                               Psi4 1.3.2 release

  ==> Input File <==

--------------------------------------------------------------------------
import numpy as np
set {scf_type pk
basis cc-pvdz
d_convergence 10
gdma_switch   0
gdma_limit    0
gdma_origin   [ 0.0,  0.0,  0.0 ]
}
molecule test {
    units Angstrom
    0 1
    --
    0 1
    C                0.111070801197271    -1.718118171389549     0.188661327304417
    C               -0.120929198802729    -3.110118171389549     0.767661327304417
    H                1.105070801197271    -1.635118171389549    -0.246338672695583
    H               -0.624929198802729    -1.523118171389549    -0.589338672695583
    H               -0.002929198802729    -0.974118171389549     0.977661327304417
    H               -0.000929198802729    -3.849118171389549    -0.026338672695583
    H               -1.158929198802729    -3.152118171389549     1.095661327304417
    H                0.540530801197271    -3.364967171389549     1.608801327304417
    C                0.590070801197271     2.056881828610451    -0.133338672695583
    C               -0.575929198802729     2.768881828610451    -0.819338672695583
    H                1.229070801197271     1.581881828610451    -0.879338672695583
    H                1.183070801197271     2.780881828610451     0.426661327304417
    H                0.210070801197271     1.303881828610451     0.555661327304417
    H               -0.152929198802729     3.559881828610451    -1.437338672695583
    H               -1.139788198802729     2.073359828610451    -1.458328672695583
    H               -1.238379198802728     3.228112728610451    -0.070828672695583

}
e, wfn = energy('scf', return_wfn=True)
gdma(wfn)
dmavals = variable('DMA DISTRIBUTED MULTIPOLES')
charges = np.array(dmavals)
print(charges)
np.save('SSI-015ILE-034LEU-1-dimer.npy', np.array(charges))--------------------------------------------------------------------------

*** tstart() called on ds3
*** at Sun Apr 26 17:01:28 2020

   => Loading Basis Set <=

    Name: CC-PVDZ
    Role: ORBITAL
    Keyword: BASIS
    atoms 1-2, 9-10  entry C          line   138 file /theoryfs2/ds/metcalf/miniconda2/envs/tf2gpu/share/psi4/basis/cc-pvdz.gbs
    atoms 3-8, 11-16 entry H          line    22 file /theoryfs2/ds/metcalf/miniconda2/envs/tf2gpu/share/psi4/basis/cc-pvdz.gbs

         ---------------------------------------------------------
                                   SCF
               by Justin Turney, Rob Parrish, Andy Simmonett
                          and Daniel G. A. Smith
                              RHF Reference
                        1 Threads,    500 MiB Core
         ---------------------------------------------------------

  ==> Geometry <==

    Molecular point group: c1
    Full point group: C1

    Geometry (in Angstrom), charge = 0, multiplicity = 1:

       Center              X                  Y                   Z               Mass
    ------------   -----------------  -----------------  -----------------  -----------------
         C            0.111070801197    -1.718118171390     0.188661327304    12.000000000000
         C           -0.120929198803    -3.110118171390     0.767661327304    12.000000000000
         H            1.105070801197    -1.635118171390    -0.246338672696     1.007825032230
         H           -0.624929198803    -1.523118171390    -0.589338672696     1.007825032230
         H           -0.002929198803    -0.974118171390     0.977661327304     1.007825032230
         H           -0.000929198803    -3.849118171390    -0.026338672696     1.007825032230
         H           -1.158929198803    -3.152118171390     1.095661327304     1.007825032230
         H            0.540530801197    -3.364967171390     1.608801327304     1.007825032230
         C            0.590070801197     2.056881828610    -0.133338672696    12.000000000000
         C           -0.575929198803     2.768881828610    -0.819338672696    12.000000000000
         H            1.229070801197     1.581881828610    -0.879338672696     1.007825032230
         H            1.183070801197     2.780881828610     0.426661327304     1.007825032230
         H            0.210070801197     1.303881828610     0.555661327304     1.007825032230
         H           -0.152929198803     3.559881828610    -1.437338672696     1.007825032230
         H           -1.139788198803     2.073359828610    -1.458328672696     1.007825032230
         H           -1.238379198803     3.228112728610    -0.070828672696     1.007825032230

  Running in c1 symmetry.

  Rotational constants: A =      0.62812  B =      0.04205  C =      0.04082 [cm^-1]
  Rotational constants: A =  18830.46395  B =   1260.68260  C =   1223.87414 [MHz]
  Nuclear repulsion =  120.218236159578353

  Charge       = 0
  Multiplicity = 1
  Electrons    = 36
  Nalpha       = 18
  Nbeta        = 18

  ==> Algorithm <==

  SCF Algorithm Type is PK.
  DIIS enabled.
  MOM disabled.
  Fractional occupation disabled.
  Guess Type is SAD.
  Energy threshold   = 1.00e-06
  Density threshold  = 1.00e-10
  Integral threshold = 0.00e+00

  ==> Primary Basis <==

  Basis Set: CC-PVDZ
    Blend: CC-PVDZ
    Number of shells: 60
    Number of basis function: 116
    Number of Cartesian functions: 120
    Spherical Harmonics?: true
    Max angular momentum: 2

  ==> Pre-Iterations <==

   -------------------------------------------------------
    Irrep   Nso     Nmo     Nalpha   Nbeta   Ndocc  Nsocc
   -------------------------------------------------------
     A        116     116       0       0       0       0
   -------------------------------------------------------
    Total     116     116      18      18      18       0
   -------------------------------------------------------

  ==> Integral Setup <==

  Using integral reordering PK algorithm.
  Sizing the integral batches needed.
  Building batch lookup table.
   Calculation information:
      Number of atoms:                  16
      Number of AO shells:              60
      Number of primitives:            148
      Number of atomic orbitals:       120
      Number of basis functions:       116

      Integral cutoff                 1.00e-12
      Number of threads:                 1

	Batch   1 pq = [       0,    6786] index = [             0,23028291] size =     23028291
  Task number: 3
  Buffer size: 11059200
  Buffer per thread: 2
  We computed 1363200 shell quartets total.
  Whereas there are 1675365 unique shell quartets.

  ==> DiskJK: Disk-Based J/K Matrices <==

    J tasked:                  Yes
    K tasked:                  Yes
    wK tasked:                  No
    Memory [MiB]:              375
    Schwarz Cutoff:          1E-12

    OpenMP threads:              1

  Minimum eigenvalue in the overlap matrix is 6.7378456779E-03.
  Using Symmetric Orthogonalization.

  SCF Guess: Superposition of Atomic Densities via on-the-fly atomic UHF.

  ==> Iterations <==

                        Total Energy        Delta E     RMS |[F,P]|

   @RHF iter SAD:  -157.35489952890396   -1.57355e+02   0.00000e+00
   @RHF iter   1:  -158.30692140760118   -9.52022e-01   4.22415e-03 DIIS
   @RHF iter   2:  -158.44076655098689   -1.33845e-01   1.80185e-03 DIIS
   @RHF iter   3:  -158.46430220350740   -2.35357e-02   3.49623e-04 DIIS
   @RHF iter   4:  -158.46612753252523   -1.82533e-03   3.84842e-05 DIIS
   @RHF iter   5:  -158.46615076908662   -2.32366e-05   6.42170e-06 DIIS
   @RHF iter   6:  -158.46615138435521   -6.15269e-07   9.45791e-07 DIIS
   @RHF iter   7:  -158.46615139363936   -9.28415e-09   2.92782e-07 DIIS
   @RHF iter   8:  -158.46615139435377   -7.14408e-10   3.76127e-08 DIIS
   @RHF iter   9:  -158.46615139437483   -2.10605e-11   6.96316e-09 DIIS
   @RHF iter  10:  -158.46615139437534   -5.11591e-13   1.72113e-09 DIIS
   @RHF iter  11:  -158.46615139437571   -3.69482e-13   3.99074e-10 DIIS
   @RHF iter  12:  -158.46615139437532    3.97904e-13   1.28013e-10 DIIS
   @RHF iter  13:  -158.46615139437540   -8.52651e-14   2.30088e-11 DIIS
  Energy and wave function converged.

  ==> Post-Iterations <==

    Orbital Energies [Eh]
    ---------------------

    Doubly Occupied:

       1A    -11.218407     2A    -11.217839     3A    -11.216555
       4A    -11.215289     5A     -1.019920     6A     -1.017122
       7A     -0.838917     8A     -0.833508     9A     -0.601756
      10A     -0.598537    11A     -0.597176    12A     -0.595117
      13A     -0.504318    14A     -0.497864    15A     -0.490337
      16A     -0.486675    17A     -0.483945    18A     -0.477136

    Virtual:

      19A      0.173572    20A      0.194575    21A      0.226563
      22A      0.233197    23A      0.239022    24A      0.258588
      25A      0.266564    26A      0.276742    27A      0.278118
      28A      0.288564    29A      0.306626    30A      0.359652
      31A      0.392151    32A      0.398325    33A      0.567462
      34A      0.589318    35A      0.597673    36A      0.604732
      37A      0.609607    38A      0.631334    39A      0.675975
      40A      0.685176    41A      0.694460    42A      0.754086
      43A      0.846459    44A      0.869304    45A      0.883102
      46A      0.888816    47A      0.894236    48A      0.895728
      49A      0.898840    50A      0.907765    51A      0.918885
      52A      0.930781    53A      0.936177    54A      0.947041
      55A      0.970778    56A      0.998636    57A      1.122824
      58A      1.125481    59A      1.131336    60A      1.142743
      61A      1.224554    62A      1.259964    63A      1.462936
      64A      1.475796    65A      1.486249    66A      1.492576
      67A      1.567617    68A      1.589371    69A      1.680189
      70A      1.683376    71A      1.695126    72A      1.696061
      73A      1.846920    74A      1.858182    75A      1.869808
      76A      1.876174    77A      1.889502    78A      1.904066
      79A      1.930806    80A      1.939335    81A      1.947908
      82A      1.950810    83A      1.953799    84A      1.956187
      85A      1.969879    86A      1.975438    87A      1.977901
      88A      2.044811    89A      2.085982    90A      2.102468
      91A      2.124901    92A      2.126133    93A      2.291479
      94A      2.303343    95A      2.310516    96A      2.335522
      97A      2.449180    98A      2.455508    99A      2.468404
     100A      2.480033   101A      2.553996   102A      2.560974
     103A      2.576943   104A      2.582780   105A      2.762700
     106A      2.766200   107A      2.786832   108A      2.792804
     109A      2.847093   110A      2.851580   111A      2.854706
     112A      2.870591   113A      2.946017   114A      2.951052
     115A      2.963631   116A      2.974016

    Final Occupation by Irrep:
              A
    DOCC [    18 ]

  @RHF Final Energy:  -158.46615139437540

   => Energetics <=

    Nuclear Repulsion Energy =            120.2182361595783533
    One-Electron Energy =                -449.5479378341142365
    Two-Electron Energy =                 170.8635502801604957
    Total Energy =                       -158.4661513943754017

Computation Completed

Properties will be evaluated at   0.000000,   0.000000,   0.000000 [a0]

Properties computed using the SCF density matrix

  Nuclear Dipole Moment: [e a0]
     X:    -0.0478      Y:     0.0276      Z:    -0.0407

  Electronic Dipole Moment: [e a0]
     X:     0.0499      Y:    -0.0307      Z:     0.0376

  Dipole Moment: [e a0]
     X:     0.0021      Y:    -0.0031      Z:    -0.0030     Total:     0.0048

  Dipole Moment: [D]
     X:     0.0054      Y:    -0.0078      Z:    -0.0077     Total:     0.0123

*** tstop() called on ds3 at Sun Apr 26 17:01:38 2020
Module time:
	user time   =       7.31 seconds =       0.12 minutes
	system time =       3.14 seconds =       0.05 minutes
	total time  =         10 seconds =       0.17 minutes
Total time:
	user time   =       7.31 seconds =       0.12 minutes
	system time =       3.14 seconds =       0.05 minutes
	total time  =         10 seconds =       0.17 minutes
                                     G D M A

                                 by Anthony Stone

                           version 2.2.06, 22 June 2011

               Distributed Multipoles from Gaussian wavefunctions

Starting at 17:1:38 on 26 Apr 2020

Using SCF density matrix from file ./SSI/SSI-015ILE-034LEU-1-dimer.test.17255.fchk

                         Distributed Multipole Analysis

Standard DMA

Positions and radii in angstrom
Multipole moments in atomic units, ea_0^k for rank k

C          x =  0.111071  y = -1.718118  z =  0.188661 angstrom
           Maximum rank =  0   Radius =  0.650 angstrom
                   Q00  =  -0.233747

C          x = -0.120929  y = -3.110118  z =  0.767661 angstrom
           Maximum rank =  0   Radius =  0.650 angstrom
                   Q00  =  -0.238439

H          x =  1.105071  y = -1.635118  z = -0.246339 angstrom
           Maximum rank =  0   Radius =  0.325 angstrom
                   Q00  =   0.080071

H          x = -0.624929  y = -1.523118  z = -0.589339 angstrom
           Maximum rank =  0   Radius =  0.325 angstrom
                   Q00  =   0.079339

H          x = -0.002929  y = -0.974118  z =  0.977661 angstrom
           Maximum rank =  0   Radius =  0.325 angstrom
                   Q00  =   0.076795

H          x = -0.000929  y = -3.849118  z = -0.026339 angstrom
           Maximum rank =  0   Radius =  0.325 angstrom
                   Q00  =   0.077349

H          x = -1.158929  y = -3.152118  z =  1.095661 angstrom
           Maximum rank =  0   Radius =  0.325 angstrom
                   Q00  =   0.076258

H          x =  0.540531  y = -3.364967  z =  1.608801 angstrom
           Maximum rank =  0   Radius =  0.325 angstrom
                   Q00  =   0.082649

C          x =  0.590071  y =  2.056882  z = -0.133339 angstrom
           Maximum rank =  0   Radius =  0.650 angstrom
                   Q00  =  -0.238109

C          x = -0.575929  y =  2.768882  z = -0.819339 angstrom
           Maximum rank =  0   Radius =  0.650 angstrom
                   Q00  =  -0.235555

H          x =  1.229071  y =  1.581882  z = -0.879339 angstrom
           Maximum rank =  0   Radius =  0.325 angstrom
                   Q00  =   0.079457

H          x =  1.183071  y =  2.780882  z =  0.426661 angstrom
           Maximum rank =  0   Radius =  0.325 angstrom
                   Q00  =   0.077271

H          x =  0.210071  y =  1.303882  z =  0.555661 angstrom
           Maximum rank =  0   Radius =  0.325 angstrom
                   Q00  =   0.082400

H          x = -0.152929  y =  3.559882  z = -1.437339 angstrom
           Maximum rank =  0   Radius =  0.325 angstrom
                   Q00  =   0.076312

H          x = -1.139788  y =  2.073360  z = -1.458329 angstrom
           Maximum rank =  0   Radius =  0.325 angstrom
                   Q00  =   0.079535

H          x = -1.238379  y =  3.228113  z = -0.070829 angstrom
           Maximum rank =  0   Radius =  0.325 angstrom
                   Q00  =   0.078412

Total multipoles referred to origin at
           x =   0.000000,  y =    0.000000,  z =    0.000000 angstrom
                   Q00  =  -0.000000

Finished at 17:1:38 on 26 Apr 2020

  DMA results are available in the Python driver through the
	  variable('DMA DISTRIBUTED MULTIPOLES')
  and
	  variable('DMA TOTAL MULTIPOLES')
  commands.

    Psi4 stopped on: Sunday, 26 April 2020 05:01PM
    Psi4 wall time for execution: 0:00:10.19

*** Psi4 exiting successfully. Buy a developer a beer!
