                               Psi4 1.3.2 release

  ==> Input File <==

--------------------------------------------------------------------------
import numpy as np
set {scf_type pk
basis cc-pvdz
d_convergence 10
gdma_switch   0
gdma_limit    0
gdma_origin   [ 0.0,  0.0,  0.0 ]
}
molecule test {
    units Angstrom
    0 1
    --
    0 1
    C               -2.672785195824266    -0.266126764886181    -1.217414112192600
    C               -4.073785195824267    -0.683126764886180    -0.781414112192600
    H               -2.436785195824267    -0.660126764886180    -2.201414112192600
    H               -2.595785195824266     0.819873235113820    -1.230414112192600
    H               -1.944785195824266    -0.653126764886181    -0.506414112192600
    H               -4.169785195824267    -0.343126764886180     0.250585887807400
    H               -4.186355195824266    -1.777256764886181    -0.795754112192600
    H               -4.860955195824266    -0.168846764886181    -1.352274112192600
    C                1.532214804175734    -2.204126764886181    -0.111414112192600
    C                0.517214804175734     1.424873235113819    -0.594414112192600
    C                0.771214804175734     0.076873235113819    -0.836414112192600
    C                0.788214804175734     1.939873235113820     0.629585887807400
    C                1.259214804175734    -0.764126764886180     0.166585887807400
    C                1.260214804175734     1.127873235113819     1.658585887807400
    C                1.513214804175734    -0.227126764886181     1.418585887807400
    H                0.128214804175734     2.057873235113819    -1.381414112192600
    H                0.567214804175734    -0.326126764886181    -1.819414112192600
    H                0.617214804175734     2.991873235113820     0.816585887807400
    H                1.455214804175734     1.551873235113819     2.634585887807400
    H                2.413214804175734    -2.513126764886181     0.453585887807400
    H                1.772214804175734    -2.316126764886181    -1.170414112192600
    H                1.894214804175734    -0.852126764886180     2.214585887807400
    H                0.691130804175734    -2.870226764886181     0.131265887807400

}
e, wfn = energy('scf', return_wfn=True)
gdma(wfn)
dmavals = variable('DMA DISTRIBUTED MULTIPOLES')
charges = np.array(dmavals)
print(charges)
np.save('SSI-143VAL-152PHE-1-dimer.npy', np.array(charges))--------------------------------------------------------------------------

*** tstart() called on ds3
*** at Mon Apr 27 12:52:40 2020

   => Loading Basis Set <=

    Name: CC-PVDZ
    Role: ORBITAL
    Keyword: BASIS
    atoms 1-2, 9-15  entry C          line   138 file /theoryfs2/ds/metcalf/miniconda2/envs/tf2gpu/share/psi4/basis/cc-pvdz.gbs
    atoms 3-8, 16-23 entry H          line    22 file /theoryfs2/ds/metcalf/miniconda2/envs/tf2gpu/share/psi4/basis/cc-pvdz.gbs

         ---------------------------------------------------------
                                   SCF
               by Justin Turney, Rob Parrish, Andy Simmonett
                          and Daniel G. A. Smith
                              RHF Reference
                        1 Threads,    500 MiB Core
         ---------------------------------------------------------

  ==> Geometry <==

    Molecular point group: c1
    Full point group: C1

    Geometry (in Angstrom), charge = 0, multiplicity = 1:

       Center              X                  Y                   Z               Mass
    ------------   -----------------  -----------------  -----------------  -----------------
         C           -2.672785195824    -0.266126764886    -1.217414112193    12.000000000000
         C           -4.073785195824    -0.683126764886    -0.781414112193    12.000000000000
         H           -2.436785195824    -0.660126764886    -2.201414112193     1.007825032230
         H           -2.595785195824     0.819873235114    -1.230414112193     1.007825032230
         H           -1.944785195824    -0.653126764886    -0.506414112193     1.007825032230
         H           -4.169785195824    -0.343126764886     0.250585887807     1.007825032230
         H           -4.186355195824    -1.777256764886    -0.795754112193     1.007825032230
         H           -4.860955195824    -0.168846764886    -1.352274112193     1.007825032230
         C            1.532214804176    -2.204126764886    -0.111414112193    12.000000000000
         C            0.517214804176     1.424873235114    -0.594414112193    12.000000000000
         C            0.771214804176     0.076873235114    -0.836414112193    12.000000000000
         C            0.788214804176     1.939873235114     0.629585887807    12.000000000000
         C            1.259214804176    -0.764126764886     0.166585887807    12.000000000000
         C            1.260214804176     1.127873235114     1.658585887807    12.000000000000
         C            1.513214804176    -0.227126764886     1.418585887807    12.000000000000
         H            0.128214804176     2.057873235114    -1.381414112193     1.007825032230
         H            0.567214804176    -0.326126764886    -1.819414112193     1.007825032230
         H            0.617214804176     2.991873235114     0.816585887807     1.007825032230
         H            1.455214804176     1.551873235114     2.634585887807     1.007825032230
         H            2.413214804176    -2.513126764886     0.453585887807     1.007825032230
         H            1.772214804176    -2.316126764886    -1.170414112193     1.007825032230
         H            1.894214804176    -0.852126764886     2.214585887807     1.007825032230
         H            0.691130804176    -2.870226764886     0.131265887807     1.007825032230

  Running in c1 symmetry.

  Rotational constants: A =      0.06267  B =      0.02735  C =      0.02261 [cm^-1]
  Rotational constants: A =   1878.89665  B =    819.88910  C =    677.68384 [MHz]
  Nuclear repulsion =  410.673445336427562

  Charge       = 0
  Multiplicity = 1
  Electrons    = 68
  Nalpha       = 34
  Nbeta        = 34

  ==> Algorithm <==

  SCF Algorithm Type is PK.
  DIIS enabled.
  MOM disabled.
  Fractional occupation disabled.
  Guess Type is SAD.
  Energy threshold   = 1.00e-06
  Density threshold  = 1.00e-10
  Integral threshold = 0.00e+00

  ==> Primary Basis <==

  Basis Set: CC-PVDZ
    Blend: CC-PVDZ
    Number of shells: 96
    Number of basis function: 196
    Number of Cartesian functions: 205
    Spherical Harmonics?: true
    Max angular momentum: 2

  ==> Pre-Iterations <==

   -------------------------------------------------------
    Irrep   Nso     Nmo     Nalpha   Nbeta   Ndocc  Nsocc
   -------------------------------------------------------
     A        196     196       0       0       0       0
   -------------------------------------------------------
    Total     196     196      34      34      34       0
   -------------------------------------------------------

  ==> Integral Setup <==

  Using integral reordering PK algorithm.
  Sizing the integral batches needed.
  Building batch lookup table.
   Calculation information:
      Number of atoms:                  23
      Number of AO shells:              96
      Number of primitives:            268
      Number of atomic orbitals:       205
      Number of basis functions:       196

      Integral cutoff                 1.00e-12
      Number of threads:                 1

	Batch   1 pq = [       0,    9405] index = [             0,44231715] size =     44231715
	Batch   2 pq = [    9405,   13301] index = [      44231715,88464951] size =     44233236
	Batch   3 pq = [   13301,   16290] index = [      88464951,132690195] size =     44225244
	Batch   4 pq = [   16290,   18810] index = [     132690195,176917455] size =     44227260
	Batch   5 pq = [   18810,   19306] index = [     176917455,186370471] size =      9453016
  Task number: 17
  Buffer size: 11059200
  Buffer per thread: 2
  We computed 9643513 shell quartets total.
  Whereas there are 10841496 unique shell quartets.

  ==> DiskJK: Disk-Based J/K Matrices <==

    J tasked:                  Yes
    K tasked:                  Yes
    wK tasked:                  No
    Memory [MiB]:              375
    Schwarz Cutoff:          1E-12

    OpenMP threads:              1

  Minimum eigenvalue in the overlap matrix is 3.0234264763E-04.
  Using Symmetric Orthogonalization.

  SCF Guess: Superposition of Atomic Densities via on-the-fly atomic UHF.

  ==> Iterations <==

                        Total Energy        Delta E     RMS |[F,P]|

   @RHF iter SAD:  -347.95976319255544   -3.47960e+02   0.00000e+00
   @RHF iter   1:  -348.76064615347411   -8.00883e-01   2.92486e-03 DIIS
   @RHF iter   2:  -348.95603412072546   -1.95388e-01   1.21980e-03 DIIS
   @RHF iter   3:  -348.98704678709083   -3.10127e-02   2.59473e-04 DIIS
   @RHF iter   4:  -348.98953551250224   -2.48873e-03   5.15583e-05 DIIS
   @RHF iter   5:  -348.98960728656976   -7.17741e-05   1.65890e-05 DIIS
   @RHF iter   6:  -348.98961427623129   -6.98966e-06   4.56498e-06 DIIS
   @RHF iter   7:  -348.98961489984737   -6.23616e-07   1.40860e-06 DIIS
   @RHF iter   8:  -348.98961497941781   -7.95704e-08   4.51231e-07 DIIS
   @RHF iter   9:  -348.98961499881261   -1.93948e-08   2.28483e-07 DIIS
   @RHF iter  10:  -348.98961500431074   -5.49812e-09   1.01024e-07 DIIS
   @RHF iter  11:  -348.98961500560983   -1.29910e-09   3.25125e-08 DIIS
   @RHF iter  12:  -348.98961500568942   -7.95808e-11   1.49148e-08 DIIS
   @RHF iter  13:  -348.98961500570067   -1.12550e-11   4.55073e-09 DIIS
   @RHF iter  14:  -348.98961500570067    0.00000e+00   1.42200e-09 DIIS
   @RHF iter  15:  -348.98961500570056    1.13687e-13   6.81833e-10 DIIS
   @RHF iter  16:  -348.98961500570192   -1.36424e-12   2.89676e-10 DIIS
   @RHF iter  17:  -348.98961500570186    5.68434e-14   9.12943e-11 DIIS
  Energy and wave function converged.

  ==> Post-Iterations <==

    Orbital Energies [Eh]
    ---------------------

    Doubly Occupied:

       1A    -11.238112     2A    -11.235167     3A    -11.230543
       4A    -11.230445     5A    -11.228872     6A    -11.228398
       7A    -11.226530     8A    -11.214527     9A    -11.209309
      10A     -1.155940    11A     -1.049631    12A     -1.014734
      13A     -1.009878    14A     -0.932184    15A     -0.831956
      16A     -0.827088    17A     -0.793264    18A     -0.691723
      19A     -0.633109    20A     -0.629356    21A     -0.595999
      22A     -0.591404    23A     -0.582511    24A     -0.577725
      25A     -0.562569    26A     -0.534239    27A     -0.500171
      28A     -0.486743    29A     -0.486096    30A     -0.482721
      31A     -0.480591    32A     -0.474282    33A     -0.332134
      34A     -0.322074

    Virtual:

      35A      0.134814    36A      0.144206    37A      0.174671
      38A      0.195251    39A      0.199988    40A      0.213273
      41A      0.234990    42A      0.244638    43A      0.250404
      44A      0.264687    45A      0.268885    46A      0.272679
      47A      0.282159    48A      0.294772    49A      0.308946
      50A      0.322637    51A      0.370191    52A      0.378288
      53A      0.405732    54A      0.457388    55A      0.465997
      56A      0.482484    57A      0.491274    58A      0.567100
      59A      0.578481    60A      0.598338    61A      0.604885
      62A      0.615933    63A      0.641129    64A      0.658330
      65A      0.680024    66A      0.689124    67A      0.702957
      68A      0.705091    69A      0.725625    70A      0.743466
      71A      0.748416    72A      0.749135    73A      0.760050
      74A      0.780029    75A      0.780348    76A      0.816130
      77A      0.832401    78A      0.857160    79A      0.858040
      80A      0.864614    81A      0.877886    82A      0.889281
      83A      0.896792    84A      0.898438    85A      0.904687
      86A      0.909855    87A      0.923638    88A      0.925616
      89A      0.930322    90A      0.939992    91A      0.958849
      92A      0.985338    93A      0.995456    94A      1.015207
      95A      1.026993    96A      1.053406    97A      1.125264
      98A      1.127771    99A      1.131487   100A      1.144708
     101A      1.155336   102A      1.163596   103A      1.196118
     104A      1.231558   105A      1.244513   106A      1.255366
     107A      1.260229   108A      1.261145   109A      1.309611
     110A      1.316969   111A      1.326992   112A      1.341763
     113A      1.414653   114A      1.473955   115A      1.483078
     116A      1.511901   117A      1.518534   118A      1.562974
     119A      1.595945   120A      1.608314   121A      1.680689
     122A      1.683930   123A      1.700539   124A      1.702632
     125A      1.736626   126A      1.752384   127A      1.766830
     128A      1.793276   129A      1.812695   130A      1.860079
     131A      1.865412   132A      1.879754   133A      1.892914
     134A      1.894425   135A      1.899146   136A      1.913698
     137A      1.922742   138A      1.933704   139A      1.940959
     140A      1.945399   141A      1.958221   142A      1.965110
     143A      1.966011   144A      1.968824   145A      1.987856
     146A      2.001299   147A      2.001572   148A      2.035533
     149A      2.056624   150A      2.066055   151A      2.070920
     152A      2.095288   153A      2.113758   154A      2.141379
     155A      2.148821   156A      2.161452   157A      2.174977
     158A      2.184646   159A      2.202043   160A      2.260558
     161A      2.280499   162A      2.295424   163A      2.305537
     164A      2.307418   165A      2.320703   166A      2.328981
     167A      2.343606   168A      2.451822   169A      2.476319
     170A      2.478571   171A      2.483031   172A      2.502025
     173A      2.546936   174A      2.565696   175A      2.591639
     176A      2.628782   177A      2.736344   178A      2.763724
     179A      2.765924   180A      2.766341   181A      2.790090
     182A      2.800617   183A      2.817490   184A      2.845146
     185A      2.854583   186A      2.878747   187A      2.880167
     188A      2.950944   189A      2.974707   190A      2.992613
     191A      3.026462   192A      3.040508   193A      3.165484
     194A      3.212248   195A      3.307143   196A      3.986410

    Final Occupation by Irrep:
              A
    DOCC [    34 ]

  @RHF Final Energy:  -348.98961500570186

   => Energetics <=

    Nuclear Repulsion Energy =            410.6734453364275623
    One-Electron Energy =               -1284.0860708660948148
    Two-Electron Energy =                 524.4230105239654449
    Total Energy =                       -348.9896150057018076

Computation Completed

Properties will be evaluated at   0.000000,   0.000000,   0.000000 [a0]

Properties computed using the SCF density matrix

  Nuclear Dipole Moment: [e a0]
     X:    -9.9895      Y:    -4.7424      Z:    -3.7089

  Electronic Dipole Moment: [e a0]
     X:    10.0647      Y:     4.6480      Z:     3.7230

  Dipole Moment: [e a0]
     X:     0.0752      Y:    -0.0944      Z:     0.0141     Total:     0.1215

  Dipole Moment: [D]
     X:     0.1912      Y:    -0.2399      Z:     0.0358     Total:     0.3089

*** tstop() called on ds3 at Mon Apr 27 12:54:38 2020
Module time:
	user time   =      90.54 seconds =       1.51 minutes
	system time =      32.88 seconds =       0.55 minutes
	total time  =        118 seconds =       1.97 minutes
Total time:
	user time   =      90.54 seconds =       1.51 minutes
	system time =      32.88 seconds =       0.55 minutes
	total time  =        118 seconds =       1.97 minutes
                                     G D M A

                                 by Anthony Stone

                           version 2.2.06, 22 June 2011

               Distributed Multipoles from Gaussian wavefunctions

Starting at 12:54:38 on 27 Apr 2020

Using SCF density matrix from file ./SSI/SSI-143VAL-152PHE-1-dimer.test.4481.fchk

                         Distributed Multipole Analysis

Standard DMA

Positions and radii in angstrom
Multipole moments in atomic units, ea_0^k for rank k

C          x = -2.672785  y = -0.266127  z = -1.217414 angstrom
           Maximum rank =  0   Radius =  0.650 angstrom
                   Q00  =  -0.235096

C          x = -4.073785  y = -0.683127  z = -0.781414 angstrom
           Maximum rank =  0   Radius =  0.650 angstrom
                   Q00  =  -0.233443

H          x = -2.436785  y = -0.660127  z = -2.201414 angstrom
           Maximum rank =  0   Radius =  0.325 angstrom
                   Q00  =   0.070899

H          x = -2.595785  y =  0.819873  z = -1.230414 angstrom
           Maximum rank =  0   Radius =  0.325 angstrom
                   Q00  =   0.079018

H          x = -1.944785  y = -0.653127  z = -0.506414 angstrom
           Maximum rank =  0   Radius =  0.325 angstrom
                   Q00  =   0.087189

H          x = -4.169785  y = -0.343127  z =  0.250586 angstrom
           Maximum rank =  0   Radius =  0.325 angstrom
                   Q00  =   0.073525

H          x = -4.186355  y = -1.777257  z = -0.795754 angstrom
           Maximum rank =  0   Radius =  0.325 angstrom
                   Q00  =   0.079260

H          x = -4.860955  y = -0.168847  z = -1.352274 angstrom
           Maximum rank =  0   Radius =  0.325 angstrom
                   Q00  =   0.078142

C          x =  1.532215  y = -2.204127  z = -0.111414 angstrom
           Maximum rank =  0   Radius =  0.650 angstrom
                   Q00  =  -0.196171

C          x =  0.517215  y =  1.424873  z = -0.594414 angstrom
           Maximum rank =  0   Radius =  0.650 angstrom
                   Q00  =  -0.066809

C          x =  0.771215  y =  0.076873  z = -0.836414 angstrom
           Maximum rank =  0   Radius =  0.650 angstrom
                   Q00  =  -0.005797

C          x =  0.788215  y =  1.939873  z =  0.629586 angstrom
           Maximum rank =  0   Radius =  0.650 angstrom
                   Q00  =  -0.052476

C          x =  1.259215  y = -0.764127  z =  0.166586 angstrom
           Maximum rank =  0   Radius =  0.650 angstrom
                   Q00  =  -0.110293

C          x =  1.260215  y =  1.127873  z =  1.658586 angstrom
           Maximum rank =  0   Radius =  0.650 angstrom
                   Q00  =  -0.075068

C          x =  1.513215  y = -0.227127  z =  1.418586 angstrom
           Maximum rank =  0   Radius =  0.650 angstrom
                   Q00  =  -0.088650

H          x =  0.128215  y =  2.057873  z = -1.381414 angstrom
           Maximum rank =  0   Radius =  0.325 angstrom
                   Q00  =   0.062736

H          x =  0.567215  y = -0.326127  z = -1.819414 angstrom
           Maximum rank =  0   Radius =  0.325 angstrom
                   Q00  =   0.056407

H          x =  0.617215  y =  2.991873  z =  0.816586 angstrom
           Maximum rank =  0   Radius =  0.325 angstrom
                   Q00  =   0.055863

H          x =  1.455215  y =  1.551873  z =  2.634586 angstrom
           Maximum rank =  0   Radius =  0.325 angstrom
                   Q00  =   0.065042

H          x =  2.413215  y = -2.513127  z =  0.453586 angstrom
           Maximum rank =  0   Radius =  0.325 angstrom
                   Q00  =   0.097248

H          x =  1.772215  y = -2.316127  z = -1.170414 angstrom
           Maximum rank =  0   Radius =  0.325 angstrom
                   Q00  =   0.097113

H          x =  1.894215  y = -0.852127  z =  2.214586 angstrom
           Maximum rank =  0   Radius =  0.325 angstrom
                   Q00  =   0.057454

H          x =  0.691131  y = -2.870227  z =  0.131266 angstrom
           Maximum rank =  0   Radius =  0.325 angstrom
                   Q00  =   0.103906

Total multipoles referred to origin at
           x =   0.000000,  y =    0.000000,  z =    0.000000 angstrom
                   Q00  =  -0.000000

Finished at 12:54:38 on 27 Apr 2020

  DMA results are available in the Python driver through the
	  variable('DMA DISTRIBUTED MULTIPOLES')
  and
	  variable('DMA TOTAL MULTIPOLES')
  commands.

    Psi4 stopped on: Monday, 27 April 2020 12:54PM
    Psi4 wall time for execution: 0:01:58.59

*** Psi4 exiting successfully. Buy a developer a beer!
