                               Psi4 1.3.2 release

  ==> Input File <==

--------------------------------------------------------------------------
import numpy as np
set {scf_type pk
basis cc-pvdz
d_convergence 10
gdma_switch   0
gdma_limit    0
gdma_origin   [ 0.0,  0.0,  0.0 ]
}
molecule test {
    units Angstrom
    0 1
    --
    0 1
    C                0.951144021015389    -1.592994819977111    -1.289635397056469
    C                1.574144021015389    -2.930994819977111    -0.925635397056469
    H               -0.117855978984611    -1.708994819977111    -1.480635397056469
    H                1.097144021015389    -0.891994819977111    -0.467635397056469
    H                1.431144021015389    -1.187994819977111    -2.178635397056469
    H                2.626144021015389    -2.769994819977111    -0.679635397056469
    H                1.514504021015389    -3.617240819977111    -1.783235397056469
    H                1.063844021015389    -3.356962819977110    -0.049235397056469
    C               -0.682855978984611     0.937005180022889     0.818364602943531
    C               -1.670855978984611     1.691005180022889     1.659364602943531
    C               -0.214855978984611     1.948005180022889    -0.203635397056469
    H               -1.189855978984611     0.112005180022889     0.315364602943531
    H                0.145144021015389     0.559005180022889     1.419364602943531
    H               -2.405855978984611     1.005005180022889     2.078364602943531
    H               -1.153855978984611     2.241005180022889     2.447364602943531
    H                0.178144021015389     1.463005180022889    -1.098635397056469
    H                0.555144021015389     2.579005180022889     0.243364602943531
    H               -2.122685978984611     2.396427180022889     0.946464602943531
    H               -1.105775978984611     2.558261180022889    -0.413035397056469

}
e, wfn = energy('scf', return_wfn=True)
gdma(wfn)
dmavals = variable('DMA DISTRIBUTED MULTIPOLES')
charges = np.array(dmavals)
print(charges)
np.save('SSI-112ALA-128PRO-1-dimer.npy', np.array(charges))--------------------------------------------------------------------------

*** tstart() called on ds3
*** at Mon Apr 27 06:32:52 2020

   => Loading Basis Set <=

    Name: CC-PVDZ
    Role: ORBITAL
    Keyword: BASIS
    atoms 1-2, 9-11  entry C          line   138 file /theoryfs2/ds/metcalf/miniconda2/envs/tf2gpu/share/psi4/basis/cc-pvdz.gbs
    atoms 3-8, 12-19 entry H          line    22 file /theoryfs2/ds/metcalf/miniconda2/envs/tf2gpu/share/psi4/basis/cc-pvdz.gbs

         ---------------------------------------------------------
                                   SCF
               by Justin Turney, Rob Parrish, Andy Simmonett
                          and Daniel G. A. Smith
                              RHF Reference
                        1 Threads,    500 MiB Core
         ---------------------------------------------------------

  ==> Geometry <==

    Molecular point group: c1
    Full point group: C1

    Geometry (in Angstrom), charge = 0, multiplicity = 1:

       Center              X                  Y                   Z               Mass
    ------------   -----------------  -----------------  -----------------  -----------------
         C            0.951144021015    -1.592994819977    -1.289635397056    12.000000000000
         C            1.574144021015    -2.930994819977    -0.925635397056    12.000000000000
         H           -0.117855978985    -1.708994819977    -1.480635397056     1.007825032230
         H            1.097144021015    -0.891994819977    -0.467635397056     1.007825032230
         H            1.431144021015    -1.187994819977    -2.178635397056     1.007825032230
         H            2.626144021015    -2.769994819977    -0.679635397056     1.007825032230
         H            1.514504021015    -3.617240819977    -1.783235397056     1.007825032230
         H            1.063844021015    -3.356962819977    -0.049235397056     1.007825032230
         C           -0.682855978985     0.937005180023     0.818364602944    12.000000000000
         C           -1.670855978985     1.691005180023     1.659364602944    12.000000000000
         C           -0.214855978985     1.948005180023    -0.203635397056    12.000000000000
         H           -1.189855978985     0.112005180023     0.315364602944     1.007825032230
         H            0.145144021015     0.559005180023     1.419364602944     1.007825032230
         H           -2.405855978985     1.005005180023     2.078364602944     1.007825032230
         H           -1.153855978985     2.241005180023     2.447364602944     1.007825032230
         H            0.178144021015     1.463005180023    -1.098635397056     1.007825032230
         H            0.555144021015     2.579005180023     0.243364602944     1.007825032230
         H           -2.122685978985     2.396427180023     0.946464602944     1.007825032230
         H           -1.105775978985     2.558261180023    -0.413035397056     1.007825032230

  Running in c1 symmetry.

  Rotational constants: A =      0.29354  B =      0.03764  C =      0.03474 [cm^-1]
  Rotational constants: A =   8800.14681  B =   1128.51919  C =   1041.39782 [MHz]
  Nuclear repulsion =  179.613786801829434

  Charge       = 0
  Multiplicity = 1
  Electrons    = 44
  Nalpha       = 22
  Nbeta        = 22

  ==> Algorithm <==

  SCF Algorithm Type is PK.
  DIIS enabled.
  MOM disabled.
  Fractional occupation disabled.
  Guess Type is SAD.
  Energy threshold   = 1.00e-06
  Density threshold  = 1.00e-10
  Integral threshold = 0.00e+00

  ==> Primary Basis <==

  Basis Set: CC-PVDZ
    Blend: CC-PVDZ
    Number of shells: 72
    Number of basis function: 140
    Number of Cartesian functions: 145
    Spherical Harmonics?: true
    Max angular momentum: 2

  ==> Pre-Iterations <==

   -------------------------------------------------------
    Irrep   Nso     Nmo     Nalpha   Nbeta   Ndocc  Nsocc
   -------------------------------------------------------
     A        140     140       0       0       0       0
   -------------------------------------------------------
    Total     140     140      22      22      22       0
   -------------------------------------------------------

  ==> Integral Setup <==

  Using integral reordering PK algorithm.
  Sizing the integral batches needed.
  Building batch lookup table.
   Calculation information:
      Number of atoms:                  19
      Number of AO shells:              72
      Number of primitives:            180
      Number of atomic orbitals:       145
      Number of basis functions:       140

      Integral cutoff                 1.00e-12
      Number of threads:                 1

	Batch   1 pq = [       0,    9405] index = [             0,44231715] size =     44231715
	Batch   2 pq = [    9405,    9870] index = [      44231715,48713385] size =      4481670
  Task number: 5
  Buffer size: 11059200
  Buffer per thread: 2
  We computed 2843742 shell quartets total.
  Whereas there are 3454506 unique shell quartets.

  ==> DiskJK: Disk-Based J/K Matrices <==

    J tasked:                  Yes
    K tasked:                  Yes
    wK tasked:                  No
    Memory [MiB]:              375
    Schwarz Cutoff:          1E-12

    OpenMP threads:              1

  Minimum eigenvalue in the overlap matrix is 4.6013635700E-03.
  Using Symmetric Orthogonalization.

  SCF Guess: Superposition of Atomic Densities via on-the-fly atomic UHF.

  ==> Iterations <==

                        Total Energy        Delta E     RMS |[F,P]|

   @RHF iter SAD:  -196.56216117602355   -1.96562e+02   0.00000e+00
   @RHF iter   1:  -197.28833148222148   -7.26170e-01   3.89466e-03 DIIS
   @RHF iter   2:  -197.45282042715763   -1.64489e-01   1.70519e-03 DIIS
   @RHF iter   3:  -197.48327149566668   -3.04511e-02   3.32331e-04 DIIS
   @RHF iter   4:  -197.48553458990904   -2.26309e-03   5.12853e-05 DIIS
   @RHF iter   5:  -197.48557721211833   -4.26222e-05   1.56666e-05 DIIS
   @RHF iter   6:  -197.48558102928081   -3.81716e-06   2.62297e-06 DIIS
   @RHF iter   7:  -197.48558115484295   -1.25562e-07   4.80278e-07 DIIS
   @RHF iter   8:  -197.48558115934878   -4.50584e-09   1.09365e-07 DIIS
   @RHF iter   9:  -197.48558115957127   -2.22485e-10   3.33573e-08 DIIS
   @RHF iter  10:  -197.48558115959423   -2.29647e-11   7.26295e-09 DIIS
   @RHF iter  11:  -197.48558115959594   -1.70530e-12   1.45513e-09 DIIS
   @RHF iter  12:  -197.48558115959617   -2.27374e-13   3.11759e-10 DIIS
   @RHF iter  13:  -197.48558115959705   -8.81073e-13   7.74363e-11 DIIS
  Energy and wave function converged.

  ==> Post-Iterations <==

    Orbital Energies [Eh]
    ---------------------

    Doubly Occupied:

       1A    -11.218717     2A    -11.215352     3A    -11.212859
       4A    -11.211706     5A    -11.210711     6A     -1.070539
       7A     -1.020230     8A     -0.915043     9A     -0.835055
      10A     -0.796737    11A     -0.638351    12A     -0.614731
      13A     -0.599043    14A     -0.598535    15A     -0.543101
      16A     -0.513003    17A     -0.499798    18A     -0.488709
      19A     -0.485009    20A     -0.478304    21A     -0.466733
      22A     -0.460049

    Virtual:

      23A      0.175961    24A      0.194600    25A      0.211983
      26A      0.225141    27A      0.230308    28A      0.245801
      29A      0.255235    30A      0.268174    31A      0.279511
      32A      0.281217    33A      0.299603    34A      0.311392
      35A      0.329284    36A      0.354504    37A      0.382179
      38A      0.413582    39A      0.440801    40A      0.561765
      41A      0.586541    42A      0.596673    43A      0.604610
      44A      0.614903    45A      0.634036    46A      0.649914
      47A      0.666867    48A      0.696512    49A      0.765716
      50A      0.784997    51A      0.824524    52A      0.850545
      53A      0.867994    54A      0.879288    55A      0.881619
      56A      0.889701    57A      0.894987    58A      0.896565
      59A      0.907951    60A      0.909413    61A      0.912873
      62A      0.922087    63A      0.932381    64A      0.951919
      65A      0.960182    66A      0.970383    67A      0.987096
      68A      1.024713    69A      1.093054    70A      1.118749
      71A      1.130099    72A      1.151460    73A      1.200157
      74A      1.249160    75A      1.421254    76A      1.463745
      77A      1.478495    78A      1.485517    79A      1.496910
      80A      1.576878    81A      1.616836    82A      1.625102
      83A      1.633608    84A      1.679445    85A      1.699125
      86A      1.726492    87A      1.745351    88A      1.797295
      89A      1.852465    90A      1.863549    91A      1.881411
      92A      1.886327    93A      1.915016    94A      1.926210
      95A      1.931402    96A      1.934386    97A      1.941804
      98A      1.951689    99A      1.959243   100A      1.961987
     101A      1.964604   102A      1.982701   103A      2.001932
     104A      2.019422   105A      2.041869   106A      2.060360
     107A      2.110782   108A      2.119804   109A      2.134158
     110A      2.145989   111A      2.202663   112A      2.244297
     113A      2.303634   114A      2.314912   115A      2.328112
     116A      2.365829   117A      2.446249   118A      2.454666
     119A      2.463796   120A      2.480101   121A      2.506423
     122A      2.559886   123A      2.570121   124A      2.581217
     125A      2.640006   126A      2.698885   127A      2.753975
     128A      2.761381   129A      2.785055   130A      2.798149
     131A      2.798780   132A      2.845935   133A      2.848322
     134A      2.855624   135A      2.878103   136A      2.932948
     137A      2.942525   138A      2.961413   139A      2.980057
     140A      3.056179

    Final Occupation by Irrep:
              A
    DOCC [    22 ]

  @RHF Final Energy:  -197.48558115959705

   => Energetics <=

    Nuclear Repulsion Energy =            179.6137868018294341
    One-Electron Energy =                -620.0141057890689353
    Two-Electron Energy =                 242.9147378276424831
    Total Energy =                       -197.4855811595970465

Computation Completed

Properties will be evaluated at   0.000000,   0.000000,   0.000000 [a0]

Properties computed using the SCF density matrix

  Nuclear Dipole Moment: [e a0]
     X:     0.4831      Y:    -0.5807      Z:    -0.6566

  Electronic Dipole Moment: [e a0]
     X:    -0.4586      Y:     0.5550      Z:     0.6637

  Dipole Moment: [e a0]
     X:     0.0245      Y:    -0.0257      Z:     0.0071     Total:     0.0362

  Dipole Moment: [D]
     X:     0.0622      Y:    -0.0654      Z:     0.0180     Total:     0.0920

*** tstop() called on ds3 at Mon Apr 27 06:33:13 2020
Module time:
	user time   =      14.95 seconds =       0.25 minutes
	system time =       6.26 seconds =       0.10 minutes
	total time  =         21 seconds =       0.35 minutes
Total time:
	user time   =      14.95 seconds =       0.25 minutes
	system time =       6.26 seconds =       0.10 minutes
	total time  =         21 seconds =       0.35 minutes
                                     G D M A

                                 by Anthony Stone

                           version 2.2.06, 22 June 2011

               Distributed Multipoles from Gaussian wavefunctions

Starting at 6:33:13 on 27 Apr 2020

Using SCF density matrix from file ./SSI/SSI-112ALA-128PRO-1-dimer.test.7018.fchk

                         Distributed Multipole Analysis

Standard DMA

Positions and radii in angstrom
Multipole moments in atomic units, ea_0^k for rank k

C          x =  0.951144  y = -1.592995  z = -1.289635 angstrom
           Maximum rank =  0   Radius =  0.650 angstrom
                   Q00  =  -0.230585

C          x =  1.574144  y = -2.930995  z = -0.925635 angstrom
           Maximum rank =  0   Radius =  0.650 angstrom
                   Q00  =  -0.241760

H          x = -0.117856  y = -1.708995  z = -1.480635 angstrom
           Maximum rank =  0   Radius =  0.325 angstrom
                   Q00  =   0.077428

H          x =  1.097144  y = -0.891995  z = -0.467635 angstrom
           Maximum rank =  0   Radius =  0.325 angstrom
                   Q00  =   0.081307

H          x =  1.431144  y = -1.187995  z = -2.178635 angstrom
           Maximum rank =  0   Radius =  0.325 angstrom
                   Q00  =   0.077358

H          x =  2.626144  y = -2.769995  z = -0.679635 angstrom
           Maximum rank =  0   Radius =  0.325 angstrom
                   Q00  =   0.077326

H          x =  1.514504  y = -3.617241  z = -1.783235 angstrom
           Maximum rank =  0   Radius =  0.325 angstrom
                   Q00  =   0.077897

H          x =  1.063844  y = -3.356963  z = -0.049235 angstrom
           Maximum rank =  0   Radius =  0.325 angstrom
                   Q00  =   0.078761

C          x = -0.682856  y =  0.937005  z =  0.818365 angstrom
           Maximum rank =  0   Radius =  0.650 angstrom
                   Q00  =  -0.109260

C          x = -1.670856  y =  1.691005  z =  1.659365 angstrom
           Maximum rank =  0   Radius =  0.650 angstrom
                   Q00  =  -0.215303

C          x = -0.214856  y =  1.948005  z = -0.203635 angstrom
           Maximum rank =  0   Radius =  0.650 angstrom
                   Q00  =  -0.205204

H          x = -1.189856  y =  0.112005  z =  0.315365 angstrom
           Maximum rank =  0   Radius =  0.325 angstrom
                   Q00  =   0.053151

H          x =  0.145144  y =  0.559005  z =  1.419365 angstrom
           Maximum rank =  0   Radius =  0.325 angstrom
                   Q00  =   0.049845

H          x = -2.405856  y =  1.005005  z =  2.078365 angstrom
           Maximum rank =  0   Radius =  0.325 angstrom
                   Q00  =   0.079850

H          x = -1.153856  y =  2.241005  z =  2.447365 angstrom
           Maximum rank =  0   Radius =  0.325 angstrom
                   Q00  =   0.077154

H          x =  0.178144  y =  1.463005  z = -1.098635 angstrom
           Maximum rank =  0   Radius =  0.325 angstrom
                   Q00  =   0.084628

H          x =  0.555144  y =  2.579005  z =  0.243365 angstrom
           Maximum rank =  0   Radius =  0.325 angstrom
                   Q00  =   0.075113

H          x = -2.122686  y =  2.396427  z =  0.946465 angstrom
           Maximum rank =  0   Radius =  0.325 angstrom
                   Q00  =   0.060164

H          x = -1.105776  y =  2.558261  z = -0.413035 angstrom
           Maximum rank =  0   Radius =  0.325 angstrom
                   Q00  =   0.052132

Total multipoles referred to origin at
           x =   0.000000,  y =    0.000000,  z =    0.000000 angstrom
                   Q00  =  -0.000000

Finished at 6:33:13 on 27 Apr 2020

  DMA results are available in the Python driver through the
	  variable('DMA DISTRIBUTED MULTIPOLES')
  and
	  variable('DMA TOTAL MULTIPOLES')
  commands.

    Psi4 stopped on: Monday, 27 April 2020 06:33AM
    Psi4 wall time for execution: 0:00:21.15

*** Psi4 exiting successfully. Buy a developer a beer!
