                               Psi4 1.3.2 release

  ==> Input File <==

--------------------------------------------------------------------------
import numpy as np
set {scf_type pk
basis cc-pvdz
d_convergence 10
gdma_switch   0
gdma_limit    0
gdma_origin   [ 0.0,  0.0,  0.0 ]
}
molecule test {
    units Angstrom
    -1 1
    --
    -1 1
    C                1.352513375466311    -2.671115791777121     1.093345505598913
    C                1.749513375466311    -1.499115791777121     1.958345505598912
    O                2.761513375466311    -0.862115791777121     1.633345505598912
    O                1.096513375466311    -1.238115791777121     2.999345505598912
    H                1.179513375466311    -2.312115791777121     0.077345505598912
    H                0.432513375466311    -3.088115791777120     1.477345505598912
    H                2.116271375466311    -3.462710791777121     1.086205505598912
    C                1.013513375466311     1.228884208222879    -0.516654494401088
    C                1.093513375466311     1.866884208222879     0.871345505598912
    C               -0.408486624533689     0.911884208222879    -1.009654494401088
    C               -1.586486624533689     1.262884208222879    -0.316654494401088
    C               -0.569486624533689     0.272884208222879    -2.224654494401088
    C               -2.883486624533689     0.959884208222879    -0.849654494401088
    C               -1.841486624533689    -0.028115791777121    -2.745654494401088
    C               -2.999486624533689     0.327884208222879    -2.090654494401087
    H                1.478513375466311     1.896884208222879    -1.243654494401088
    H                1.582513375466311     0.298884208222879    -0.507654494401088
    H                0.660513375466311     1.166884208222879     1.586345505598912
    H               -1.555486624533689     1.740884208222879     0.645345505598912
    H                0.309513375466311    -0.005115791777121    -2.788654494401088
    H               -3.774486624533689     1.234884208222879    -0.300654494401088
    H               -1.922486624533689    -0.525115791777121    -3.700654494401088
    H               -3.969486624533689     0.099884208222879    -2.511654494401088
    H                0.593870375466311     2.846544208222880     0.896255505598912
    H                2.124137375466311     2.091724208222880     1.183215505598912

}
e, wfn = energy('scf', return_wfn=True)
gdma(wfn)
dmavals = variable('DMA DISTRIBUTED MULTIPOLES')
charges = np.array(dmavals)
print(charges)
np.save('SSI-136ASP-198PHE-1-dimer.npy', np.array(charges))--------------------------------------------------------------------------

*** tstart() called on ds3
*** at Mon Apr 27 16:08:38 2020

   => Loading Basis Set <=

    Name: CC-PVDZ
    Role: ORBITAL
    Keyword: BASIS
    atoms 1-2, 8-15  entry C          line   138 file /theoryfs2/ds/metcalf/miniconda2/envs/tf2gpu/share/psi4/basis/cc-pvdz.gbs
    atoms 3-4        entry O          line   198 file /theoryfs2/ds/metcalf/miniconda2/envs/tf2gpu/share/psi4/basis/cc-pvdz.gbs
    atoms 5-7, 16-25 entry H          line    22 file /theoryfs2/ds/metcalf/miniconda2/envs/tf2gpu/share/psi4/basis/cc-pvdz.gbs

         ---------------------------------------------------------
                                   SCF
               by Justin Turney, Rob Parrish, Andy Simmonett
                          and Daniel G. A. Smith
                              RHF Reference
                        1 Threads,    500 MiB Core
         ---------------------------------------------------------

  ==> Geometry <==

    Molecular point group: c1
    Full point group: C1

    Geometry (in Angstrom), charge = -1, multiplicity = 1:

       Center              X                  Y                   Z               Mass
    ------------   -----------------  -----------------  -----------------  -----------------
         C            1.352513375466    -2.671115791777     1.093345505599    12.000000000000
         C            1.749513375466    -1.499115791777     1.958345505599    12.000000000000
         O            2.761513375466    -0.862115791777     1.633345505599    15.994914619570
         O            1.096513375466    -1.238115791777     2.999345505599    15.994914619570
         H            1.179513375466    -2.312115791777     0.077345505599     1.007825032230
         H            0.432513375466    -3.088115791777     1.477345505599     1.007825032230
         H            2.116271375466    -3.462710791777     1.086205505599     1.007825032230
         C            1.013513375466     1.228884208223    -0.516654494401    12.000000000000
         C            1.093513375466     1.866884208223     0.871345505599    12.000000000000
         C           -0.408486624534     0.911884208223    -1.009654494401    12.000000000000
         C           -1.586486624534     1.262884208223    -0.316654494401    12.000000000000
         C           -0.569486624534     0.272884208223    -2.224654494401    12.000000000000
         C           -2.883486624534     0.959884208223    -0.849654494401    12.000000000000
         C           -1.841486624534    -0.028115791777    -2.745654494401    12.000000000000
         C           -2.999486624534     0.327884208223    -2.090654494401    12.000000000000
         H            1.478513375466     1.896884208223    -1.243654494401     1.007825032230
         H            1.582513375466     0.298884208223    -0.507654494401     1.007825032230
         H            0.660513375466     1.166884208223     1.586345505599     1.007825032230
         H           -1.555486624534     1.740884208223     0.645345505599     1.007825032230
         H            0.309513375466    -0.005115791777    -2.788654494401     1.007825032230
         H           -3.774486624534     1.234884208223    -0.300654494401     1.007825032230
         H           -1.922486624534    -0.525115791777    -3.700654494401     1.007825032230
         H           -3.969486624534     0.099884208223    -2.511654494401     1.007825032230
         H            0.593870375466     2.846544208223     0.896255505599     1.007825032230
         H            2.124137375466     2.091724208223     1.183215505599     1.007825032230

  Running in c1 symmetry.

  Rotational constants: A =      0.04767  B =      0.01437  C =      0.01352 [cm^-1]
  Rotational constants: A =   1429.23896  B =    430.76194  C =    405.33560 [MHz]
  Nuclear repulsion =  644.372602448209932

  Charge       = -1
  Multiplicity = 1
  Electrons    = 90
  Nalpha       = 45
  Nbeta        = 45

  ==> Algorithm <==

  SCF Algorithm Type is PK.
  DIIS enabled.
  MOM disabled.
  Fractional occupation disabled.
  Guess Type is SAD.
  Energy threshold   = 1.00e-06
  Density threshold  = 1.00e-10
  Integral threshold = 0.00e+00

  ==> Primary Basis <==

  Basis Set: CC-PVDZ
    Blend: CC-PVDZ
    Number of shells: 111
    Number of basis function: 233
    Number of Cartesian functions: 245
    Spherical Harmonics?: true
    Max angular momentum: 2

  ==> Pre-Iterations <==

   -------------------------------------------------------
    Irrep   Nso     Nmo     Nalpha   Nbeta   Ndocc  Nsocc
   -------------------------------------------------------
     A        233     233       0       0       0       0
   -------------------------------------------------------
    Total     233     233      45      45      45       0
   -------------------------------------------------------

  ==> Integral Setup <==

  Using integral reordering PK algorithm.
  Sizing the integral batches needed.
  Building batch lookup table.
   Calculation information:
      Number of atoms:                  25
      Number of AO shells:             111
      Number of primitives:            329
      Number of atomic orbitals:       245
      Number of basis functions:       233

      Integral cutoff                 1.00e-12
      Number of threads:                 1

	Batch   1 pq = [       0,    9405] index = [             0,44231715] size =     44231715
	Batch   2 pq = [    9405,   13301] index = [      44231715,88464951] size =     44233236
	Batch   3 pq = [   13301,   16290] index = [      88464951,132690195] size =     44225244
	Batch   4 pq = [   16290,   18810] index = [     132690195,176917455] size =     44227260
	Batch   5 pq = [   18810,   21030] index = [     176917455,221140965] size =     44223510
	Batch   6 pq = [   21030,   23037] index = [     221140965,265363203] size =     44222238
	Batch   7 pq = [   23037,   24883] index = [     265363203,309594286] size =     44231083
	Batch   8 pq = [   24883,   26601] index = [     309594286,353819901] size =     44225615
	Batch   9 pq = [   26601,   27261] index = [     353819901,371594691] size =     17774790
  Task number: 34
  Buffer size: 11059200
  Buffer per thread: 2
  We computed 18451879 shell quartets total.
  Whereas there are 19322436 unique shell quartets.

  ==> DiskJK: Disk-Based J/K Matrices <==

    J tasked:                  Yes
    K tasked:                  Yes
    wK tasked:                  No
    Memory [MiB]:              375
    Schwarz Cutoff:          1E-12

    OpenMP threads:              1

  Minimum eigenvalue in the overlap matrix is 3.2091613118E-04.
  Using Symmetric Orthogonalization.

  SCF Guess: Superposition of Atomic Densities via on-the-fly atomic UHF.

  ==> Iterations <==

                        Total Energy        Delta E     RMS |[F,P]|

   @RHF iter SAD:  -534.28686426456215   -5.34287e+02   0.00000e+00
   @RHF iter   1:  -535.68040938981540   -1.39355e+00   3.44962e-03 DIIS
   @RHF iter   2:  -535.96338367523549   -2.82974e-01   1.82842e-03 DIIS
   @RHF iter   3:  -536.03325752407284   -6.98738e-02   3.16519e-04 DIIS
   @RHF iter   4:  -536.03705117209336   -3.79365e-03   1.18668e-04 DIIS
   @RHF iter   5:  -536.03752972919426   -4.78557e-04   1.74229e-05 DIIS
   @RHF iter   6:  -536.03754508401016   -1.53548e-05   5.39331e-06 DIIS
   @RHF iter   7:  -536.03754616309891   -1.07909e-06   2.08808e-06 DIIS
   @RHF iter   8:  -536.03754631591755   -1.52819e-07   6.14390e-07 DIIS
   @RHF iter   9:  -536.03754633385961   -1.79421e-08   2.04217e-07 DIIS
   @RHF iter  10:  -536.03754633739607   -3.53646e-09   8.41471e-08 DIIS
   @RHF iter  11:  -536.03754633825929   -8.63224e-10   3.52446e-08 DIIS
   @RHF iter  12:  -536.03754633842414   -1.64846e-10   1.58897e-08 DIIS
   @RHF iter  13:  -536.03754633845506   -3.09228e-11   6.28688e-09 DIIS
   @RHF iter  14:  -536.03754633846415   -9.09495e-12   2.77163e-09 DIIS
   @RHF iter  15:  -536.03754633846074    3.41061e-12   1.08139e-09 DIIS
   @RHF iter  16:  -536.03754633845881    1.93268e-12   4.47123e-10 DIIS
   @RHF iter  17:  -536.03754633846199   -3.18323e-12   1.81605e-10 DIIS
   @RHF iter  18:  -536.03754633845858    3.41061e-12   5.44499e-11 DIIS
  Energy and wave function converged.

  ==> Post-Iterations <==

    Orbital Energies [Eh]
    ---------------------

    Doubly Occupied:

       1A    -20.261622     2A    -20.260719     3A    -11.147268
       4A    -11.143032     5A    -11.141184     6A    -11.140360
       7A    -11.137390     8A    -11.133556     9A    -11.115950
      10A    -11.110031    11A    -11.087059    12A    -11.050265
      13A     -1.155470    14A     -1.050523    15A     -1.038445
      16A     -0.951136    17A     -0.906358    18A     -0.869704
      19A     -0.801632    20A     -0.749697    21A     -0.723364
      22A     -0.676695    23A     -0.595016    24A     -0.535143
      25A     -0.520523    26A     -0.503665    27A     -0.492061
      28A     -0.480480    29A     -0.475219    30A     -0.416889
      31A     -0.413235    32A     -0.410904    33A     -0.406667
      34A     -0.399707    35A     -0.398466    36A     -0.367629
      37A     -0.361011    38A     -0.350423    39A     -0.343478
      40A     -0.306653    41A     -0.229426    42A     -0.227740
      43A     -0.187145    44A     -0.173321    45A     -0.162946

    Virtual:

      46A      0.227217    47A      0.240987    48A      0.273513
      49A      0.303531    50A      0.314354    51A      0.330264
      52A      0.334176    53A      0.353144    54A      0.361942
      55A      0.382086    56A      0.398533    57A      0.403934
      58A      0.418211    59A      0.446194    60A      0.455202
      61A      0.473463    62A      0.490120    63A      0.495671
      64A      0.515967    65A      0.537202    66A      0.565250
      67A      0.572208    68A      0.582350    69A      0.606191
      70A      0.669667    71A      0.686747    72A      0.709298
      73A      0.725836    74A      0.760108    75A      0.773811
      76A      0.785048    77A      0.791602    78A      0.817151
      79A      0.822624    80A      0.826253    81A      0.831303
      82A      0.839627    83A      0.841310    84A      0.843032
      85A      0.851285    86A      0.857348    87A      0.867843
      88A      0.907675    89A      0.927375    90A      0.946426
      91A      0.955870    92A      0.969214    93A      0.973423
      94A      0.976133    95A      0.990182    96A      1.000244
      97A      1.011400    98A      1.018652    99A      1.026054
     100A      1.046195   101A      1.048250   102A      1.051323
     103A      1.061523   104A      1.068472   105A      1.086321
     106A      1.088657   107A      1.105611   108A      1.113752
     109A      1.118534   110A      1.155483   111A      1.162425
     112A      1.173549   113A      1.207528   114A      1.231877
     115A      1.241285   116A      1.260318   117A      1.278341
     118A      1.287502   119A      1.321596   120A      1.329206
     121A      1.336057   122A      1.350145   123A      1.360921
     124A      1.372153   125A      1.383982   126A      1.391867
     127A      1.407846   128A      1.410931   129A      1.423658
     130A      1.460525   131A      1.545803   132A      1.556965
     133A      1.581590   134A      1.593039   135A      1.608201
     136A      1.616093   137A      1.630521   138A      1.642729
     139A      1.664029   140A      1.676462   141A      1.705090
     142A      1.715466   143A      1.735347   144A      1.795052
     145A      1.821049   146A      1.830323   147A      1.840360
     148A      1.849127   149A      1.851903   150A      1.857935
     151A      1.883070   152A      1.899942   153A      1.924337
     154A      1.959503   155A      1.974437   156A      1.997945
     157A      2.004325   158A      2.030659   159A      2.035397
     160A      2.048212   161A      2.056939   162A      2.067710
     163A      2.075440   164A      2.077786   165A      2.086340
     166A      2.097330   167A      2.104843   168A      2.117936
     169A      2.121678   170A      2.126621   171A      2.136552
     172A      2.152847   173A      2.170534   174A      2.190723
     175A      2.212832   176A      2.222161   177A      2.232940
     178A      2.243570   179A      2.261584   180A      2.275232
     181A      2.292908   182A      2.300598   183A      2.317954
     184A      2.323098   185A      2.341329   186A      2.349144
     187A      2.361799   188A      2.394721   189A      2.403885
     190A      2.439551   191A      2.460973   192A      2.493098
     193A      2.501277   194A      2.533028   195A      2.579404
     196A      2.594154   197A      2.608732   198A      2.642840
     199A      2.657887   200A      2.667348   201A      2.721959
     202A      2.738148   203A      2.743821   204A      2.793703
     205A      2.822380   206A      2.843485   207A      2.863005
     208A      2.901431   209A      2.921647   210A      2.924880
     211A      2.949105   212A      2.963834   213A      3.013612
     214A      3.029955   215A      3.057129   216A      3.077691
     217A      3.121990   218A      3.126383   219A      3.129862
     220A      3.243688   221A      3.253311   222A      3.274870
     223A      3.276571   224A      3.300093   225A      3.365976
     226A      3.374677   227A      3.644080   228A      3.776536
     229A      3.840951   230A      4.011461   231A      4.064926
     232A      4.095025   233A      4.202448

    Final Occupation by Irrep:
              A
    DOCC [    45 ]

  @RHF Final Energy:  -536.03754633845858

   => Energetics <=

    Nuclear Repulsion Energy =            644.3726024482099319
    One-Electron Energy =               -2022.0018879217368521
    Two-Electron Energy =                 841.5917391350684511
    Total Energy =                       -536.0375463384585828

Computation Completed

Properties will be evaluated at   0.000000,   0.000000,   0.000000 [a0]

Properties computed using the SCF density matrix

  Nuclear Dipole Moment: [e a0]
     X:    -0.6795      Y:     1.8493      Z:    -3.8222

  Electronic Dipole Moment: [e a0]
     X:    -2.2782      Y:    -0.3648      Z:    -0.0397

  Dipole Moment: [e a0]
     X:    -2.9577      Y:     1.4845      Z:    -3.8618     Total:     5.0858

  Dipole Moment: [D]
     X:    -7.5178      Y:     3.7733      Z:    -9.8158     Total:    12.9269

*** tstop() called on ds3 at Mon Apr 27 16:11:54 2020
Module time:
	user time   =     147.22 seconds =       2.45 minutes
	system time =      56.79 seconds =       0.95 minutes
	total time  =        196 seconds =       3.27 minutes
Total time:
	user time   =     147.22 seconds =       2.45 minutes
	system time =      56.79 seconds =       0.95 minutes
	total time  =        196 seconds =       3.27 minutes
                                     G D M A

                                 by Anthony Stone

                           version 2.2.06, 22 June 2011

               Distributed Multipoles from Gaussian wavefunctions

Starting at 16:11:54 on 27 Apr 2020

Using SCF density matrix from file ./SSI/SSI-136ASP-198PHE-1-dimer.test.3618.fchk

                         Distributed Multipole Analysis

Standard DMA

Positions and radii in angstrom
Multipole moments in atomic units, ea_0^k for rank k

C          x =  1.352513  y = -2.671116  z =  1.093346 angstrom
           Maximum rank =  0   Radius =  0.650 angstrom
                   Q00  =  -0.280507

C          x =  1.749513  y = -1.499116  z =  1.958346 angstrom
           Maximum rank =  0   Radius =  0.650 angstrom
                   Q00  =   0.965138

O          x =  2.761513  y = -0.862116  z =  1.633346 angstrom
           Maximum rank =  0   Radius =  0.650 angstrom
                   Q00  =  -0.916798

O          x =  1.096513  y = -1.238116  z =  2.999346 angstrom
           Maximum rank =  0   Radius =  0.650 angstrom
                   Q00  =  -0.943519

H          x =  1.179513  y = -2.312116  z =  0.077346 angstrom
           Maximum rank =  0   Radius =  0.325 angstrom
                   Q00  =   0.068658

H          x =  0.432513  y = -3.088116  z =  1.477346 angstrom
           Maximum rank =  0   Radius =  0.325 angstrom
                   Q00  =   0.052881

H          x =  2.116271  y = -3.462711  z =  1.086206 angstrom
           Maximum rank =  0   Radius =  0.325 angstrom
                   Q00  =   0.072425

C          x =  1.013513  y =  1.228884  z = -0.516654 angstrom
           Maximum rank =  0   Radius =  0.650 angstrom
                   Q00  =  -0.019110

C          x =  1.093513  y =  1.866884  z =  0.871346 angstrom
           Maximum rank =  0   Radius =  0.650 angstrom
                   Q00  =  -0.216362

C          x = -0.408487  y =  0.911884  z = -1.009654 angstrom
           Maximum rank =  0   Radius =  0.650 angstrom
                   Q00  =  -0.092856

C          x = -1.586487  y =  1.262884  z = -0.316654 angstrom
           Maximum rank =  0   Radius =  0.650 angstrom
                   Q00  =  -0.088479

C          x = -0.569487  y =  0.272884  z = -2.224654 angstrom
           Maximum rank =  0   Radius =  0.650 angstrom
                   Q00  =  -0.043789

C          x = -2.883487  y =  0.959884  z = -0.849654 angstrom
           Maximum rank =  0   Radius =  0.650 angstrom
                   Q00  =  -0.091105

C          x = -1.841487  y = -0.028116  z = -2.745654 angstrom
           Maximum rank =  0   Radius =  0.650 angstrom
                   Q00  =  -0.012530

C          x = -2.999487  y =  0.327884  z = -2.090654 angstrom
           Maximum rank =  0   Radius =  0.650 angstrom
                   Q00  =  -0.094490

H          x =  1.478513  y =  1.896884  z = -1.243654 angstrom
           Maximum rank =  0   Radius =  0.325 angstrom
                   Q00  =   0.041167

H          x =  1.582513  y =  0.298884  z = -0.507654 angstrom
           Maximum rank =  0   Radius =  0.325 angstrom
                   Q00  =   0.099256

H          x =  0.660513  y =  1.166884  z =  1.586346 angstrom
           Maximum rank =  0   Radius =  0.325 angstrom
                   Q00  =   0.115167

H          x = -1.555487  y =  1.740884  z =  0.645346 angstrom
           Maximum rank =  0   Radius =  0.325 angstrom
                   Q00  =   0.074011

H          x =  0.309513  y = -0.005116  z = -2.788654 angstrom
           Maximum rank =  0   Radius =  0.325 angstrom
                   Q00  =   0.048287

H          x = -3.774487  y =  1.234884  z = -0.300654 angstrom
           Maximum rank =  0   Radius =  0.325 angstrom
                   Q00  =   0.052872

H          x = -1.922487  y = -0.525116  z = -3.700654 angstrom
           Maximum rank =  0   Radius =  0.325 angstrom
                   Q00  =   0.040759

H          x = -3.969487  y =  0.099884  z = -2.511654 angstrom
           Maximum rank =  0   Radius =  0.325 angstrom
                   Q00  =   0.042193

H          x =  0.593870  y =  2.846544  z =  0.896256 angstrom
           Maximum rank =  0   Radius =  0.325 angstrom
                   Q00  =   0.018887

H          x =  2.124137  y =  2.091724  z =  1.183216 angstrom
           Maximum rank =  0   Radius =  0.325 angstrom
                   Q00  =   0.107845

Total multipoles referred to origin at
           x =   0.000000,  y =    0.000000,  z =    0.000000 angstrom
                   Q00  =  -1.000000

Finished at 16:11:54 on 27 Apr 2020

  DMA results are available in the Python driver through the
	  variable('DMA DISTRIBUTED MULTIPOLES')
  and
	  variable('DMA TOTAL MULTIPOLES')
  commands.

    Psi4 stopped on: Monday, 27 April 2020 04:11PM
    Psi4 wall time for execution: 0:03:16.28

*** Psi4 exiting successfully. Buy a developer a beer!
