                               Psi4 1.3.2 release

  ==> Input File <==

--------------------------------------------------------------------------
import numpy as np
set {scf_type pk
basis cc-pvdz
d_convergence 10
gdma_switch   0
gdma_limit    0
gdma_origin   [ 0.0,  0.0,  0.0 ]
}
molecule test {
    units Angstrom
    -2 1
    --
    -2 1
    C                0.680965495645087     3.178486696947607     1.641322019921900
    C               -0.061034504354913     1.851486696947607     1.669322019921900
    O                0.253965495645087     1.019486696947607     0.796322019921900
    O               -0.944034504354913     1.659486696947607     2.529322019921900
    H                0.558965495645087     3.587486696947607     0.636322019921900
    H                1.747965495645087     3.041486696947608     1.788322019921900
    H                0.297861495645087     3.918246696947607     2.359642019921900
    C                0.601965495645087    -0.705513303052393    -1.643677980078100
    C                0.994965495645087    -1.147513303052393    -3.062677980078099
    C               -0.275034504354913    -1.704513303052393    -0.872677980078100
    O               -0.501034504354913    -2.840513303052393    -1.342677980078100
    O               -0.746034504354913    -1.357513303052393     0.238322019921900
    H                1.509965495645087    -0.564513303052393    -1.064677980078100
    H                0.091965495645087     0.255486696947607    -1.724677980078100
    H                1.821965495645087    -0.504513303052393    -3.336677980078100
    H                0.174574495645087    -0.996703303052393    -3.779767980078100
    H                1.419515495645087    -2.160513303052393    -3.122607980078100

}
e, wfn = energy('scf', return_wfn=True)
gdma(wfn)
dmavals = variable('DMA DISTRIBUTED MULTIPOLES')
charges = np.array(dmavals)
print(charges)
np.save('SSI-029ASP-070ASP-1-dimer.npy', np.array(charges))--------------------------------------------------------------------------

*** tstart() called on ds3
*** at Mon Apr 27 22:32:52 2020

   => Loading Basis Set <=

    Name: CC-PVDZ
    Role: ORBITAL
    Keyword: BASIS
    atoms 1-2, 8-10  entry C          line   138 file /theoryfs2/ds/metcalf/miniconda2/envs/tf2gpu/share/psi4/basis/cc-pvdz.gbs
    atoms 3-4, 11-12 entry O          line   198 file /theoryfs2/ds/metcalf/miniconda2/envs/tf2gpu/share/psi4/basis/cc-pvdz.gbs
    atoms 5-7, 13-17 entry H          line    22 file /theoryfs2/ds/metcalf/miniconda2/envs/tf2gpu/share/psi4/basis/cc-pvdz.gbs

         ---------------------------------------------------------
                                   SCF
               by Justin Turney, Rob Parrish, Andy Simmonett
                          and Daniel G. A. Smith
                              RHF Reference
                        1 Threads,    500 MiB Core
         ---------------------------------------------------------

  ==> Geometry <==

    Molecular point group: c1
    Full point group: C1

    Geometry (in Angstrom), charge = -2, multiplicity = 1:

       Center              X                  Y                   Z               Mass
    ------------   -----------------  -----------------  -----------------  -----------------
         C            0.680965495645     3.178486696948     1.641322019922    12.000000000000
         C           -0.061034504355     1.851486696948     1.669322019922    12.000000000000
         O            0.253965495645     1.019486696948     0.796322019922    15.994914619570
         O           -0.944034504355     1.659486696948     2.529322019922    15.994914619570
         H            0.558965495645     3.587486696948     0.636322019922     1.007825032230
         H            1.747965495645     3.041486696948     1.788322019922     1.007825032230
         H            0.297861495645     3.918246696948     2.359642019922     1.007825032230
         C            0.601965495645    -0.705513303052    -1.643677980078    12.000000000000
         C            0.994965495645    -1.147513303052    -3.062677980078    12.000000000000
         C           -0.275034504355    -1.704513303052    -0.872677980078    12.000000000000
         O           -0.501034504355    -2.840513303052    -1.342677980078    15.994914619570
         O           -0.746034504355    -1.357513303052     0.238322019922    15.994914619570
         H            1.509965495645    -0.564513303052    -1.064677980078     1.007825032230
         H            0.091965495645     0.255486696948    -1.724677980078     1.007825032230
         H            1.821965495645    -0.504513303052    -3.336677980078     1.007825032230
         H            0.174574495645    -0.996703303052    -3.779767980078     1.007825032230
         H            1.419515495645    -2.160513303052    -3.122607980078     1.007825032230

  Running in c1 symmetry.

  Rotational constants: A =      0.10088  B =      0.02120  C =      0.01777 [cm^-1]
  Rotational constants: A =   3024.34426  B =    635.61810  C =    532.76225 [MHz]
  Nuclear repulsion =  420.685133121952788

  Charge       = -2
  Multiplicity = 1
  Electrons    = 72
  Nalpha       = 36
  Nbeta        = 36

  ==> Algorithm <==

  SCF Algorithm Type is PK.
  DIIS enabled.
  MOM disabled.
  Fractional occupation disabled.
  Guess Type is SAD.
  Energy threshold   = 1.00e-06
  Density threshold  = 1.00e-10
  Integral threshold = 0.00e+00

  ==> Primary Basis <==

  Basis Set: CC-PVDZ
    Blend: CC-PVDZ
    Number of shells: 78
    Number of basis function: 166
    Number of Cartesian functions: 175
    Spherical Harmonics?: true
    Max angular momentum: 2

  ==> Pre-Iterations <==

   -------------------------------------------------------
    Irrep   Nso     Nmo     Nalpha   Nbeta   Ndocc  Nsocc
   -------------------------------------------------------
     A        166     166       0       0       0       0
   -------------------------------------------------------
    Total     166     166      36      36      36       0
   -------------------------------------------------------

  ==> Integral Setup <==

  Using integral reordering PK algorithm.
  Sizing the integral batches needed.
  Building batch lookup table.
   Calculation information:
      Number of atoms:                  17
      Number of AO shells:              78
      Number of primitives:            238
      Number of atomic orbitals:       175
      Number of basis functions:       166

      Integral cutoff                 1.00e-12
      Number of threads:                 1

	Batch   1 pq = [       0,    9405] index = [             0,44231715] size =     44231715
	Batch   2 pq = [    9405,   13301] index = [      44231715,88464951] size =     44233236
	Batch   3 pq = [   13301,   13861] index = [      88464951,96070591] size =      7605640
  Task number: 9
  Buffer size: 11059200
  Buffer per thread: 2
  We computed 3425931 shell quartets total.
  Whereas there are 4747821 unique shell quartets.

  ==> DiskJK: Disk-Based J/K Matrices <==

    J tasked:                  Yes
    K tasked:                  Yes
    wK tasked:                  No
    Memory [MiB]:              375
    Schwarz Cutoff:          1E-12

    OpenMP threads:              1

  Minimum eigenvalue in the overlap matrix is 3.7477307894E-03.
  Using Symmetric Orthogonalization.

  SCF Guess: Superposition of Atomic Densities via on-the-fly atomic UHF.

  ==> Iterations <==

                        Total Energy        Delta E     RMS |[F,P]|

   @RHF iter SAD:  -491.33201019212515   -4.91332e+02   0.00000e+00
   @RHF iter   1:  -492.95514051969064   -1.62313e+00   5.67691e-03 DIIS
   @RHF iter   2:  -493.25869170559565   -3.03551e-01   3.37946e-03 DIIS
   @RHF iter   3:  -493.36837249509233   -1.09681e-01   4.51914e-04 DIIS
   @RHF iter   4:  -493.37200659972734   -3.63410e-03   1.73112e-04 DIIS
   @RHF iter   5:  -493.37261439299795   -6.07793e-04   3.82129e-05 DIIS
   @RHF iter   6:  -493.37264001005298   -2.56171e-05   1.82203e-05 DIIS
   @RHF iter   7:  -493.37264487016949   -4.86012e-06   3.26655e-06 DIIS
   @RHF iter   8:  -493.37264527259367   -4.02424e-07   1.44429e-06 DIIS
   @RHF iter   9:  -493.37264534412918   -7.15355e-08   6.07807e-07 DIIS
   @RHF iter  10:  -493.37264535985196   -1.57228e-08   2.28188e-07 DIIS
   @RHF iter  11:  -493.37264536178702   -1.93506e-09   9.50888e-08 DIIS
   @RHF iter  12:  -493.37264536200217   -2.15152e-10   2.68009e-08 DIIS
   @RHF iter  13:  -493.37264536202565   -2.34763e-11   6.40884e-09 DIIS
   @RHF iter  14:  -493.37264536202446    1.19371e-12   2.74469e-09 DIIS
   @RHF iter  15:  -493.37264536202667   -2.21689e-12   8.67275e-10 DIIS
   @RHF iter  16:  -493.37264536202628    3.97904e-13   3.36000e-10 DIIS
   @RHF iter  17:  -493.37264536202497    1.30740e-12   1.34313e-10 DIIS
   @RHF iter  18:  -493.37264536202775   -2.78533e-12   5.93591e-11 DIIS
  Energy and wave function converged.

  ==> Post-Iterations <==

    Orbital Energies [Eh]
    ---------------------

    Doubly Occupied:

       1A    -20.138583     2A    -20.126703     3A    -20.126337
       4A    -20.101356     5A    -10.994041     6A    -10.972963
       7A    -10.963033     8A    -10.950575     9A    -10.920480
      10A     -1.026137    11A     -1.007780    12A     -0.913430
      13A     -0.886157    14A     -0.747342    15A     -0.694760
      16A     -0.577683    17A     -0.388534    18A     -0.370903
      19A     -0.340412    20A     -0.308861    21A     -0.302846
      22A     -0.296960    23A     -0.284648    24A     -0.254034
      25A     -0.236721    26A     -0.227499    27A     -0.224440
      28A     -0.190096    29A     -0.184693    30A     -0.163827
      31A     -0.062144    32A     -0.049626    33A     -0.046086
      34A     -0.033935    35A     -0.013654    36A     -0.007018

    Virtual:

      37A      0.433011    38A      0.443356    39A      0.483921
      40A      0.490087    41A      0.500196    42A      0.506533
      43A      0.532078    44A      0.547852    45A      0.604178
      46A      0.628334    47A      0.670312    48A      0.676774
      49A      0.741693    50A      0.808907    51A      0.820654
      52A      0.825447    53A      0.853361    54A      0.880851
      55A      0.912323    56A      0.920204    57A      0.976600
      58A      1.012588    59A      1.056750    60A      1.066878
      61A      1.078281    62A      1.091446    63A      1.127024
      64A      1.130781    65A      1.134778    66A      1.142424
      67A      1.154458    68A      1.159543    69A      1.167872
      70A      1.172371    71A      1.184312    72A      1.193131
      73A      1.196114    74A      1.229198    75A      1.272902
      76A      1.279327    77A      1.338139    78A      1.368783
      79A      1.433685    80A      1.444781    81A      1.450978
      82A      1.455926    83A      1.535577    84A      1.541307
      85A      1.611266    86A      1.638844    87A      1.658532
      88A      1.666569    89A      1.670178    90A      1.686097
      91A      1.719470    92A      1.739339    93A      1.768095
      94A      1.776569    95A      1.807243    96A      1.827648
      97A      1.850190    98A      1.873398    99A      1.937319
     100A      1.941631   101A      1.969281   102A      1.985444
     103A      1.996238   104A      2.007262   105A      2.066813
     106A      2.128696   107A      2.135981   108A      2.163672
     109A      2.170896   110A      2.185440   111A      2.205298
     112A      2.212289   113A      2.246231   114A      2.282525
     115A      2.283852   116A      2.310737   117A      2.330201
     118A      2.353486   119A      2.375871   120A      2.384160
     121A      2.394147   122A      2.463815   123A      2.502927
     124A      2.522153   125A      2.538381   126A      2.542071
     127A      2.581630   128A      2.653672   129A      2.672890
     130A      2.719937   131A      2.739227   132A      2.750260
     133A      2.775987   134A      2.833981   135A      2.840127
     136A      2.884761   137A      2.906616   138A      2.976637
     139A      3.013325   140A      3.021617   141A      3.068197
     142A      3.101114   143A      3.109939   144A      3.133372
     145A      3.197445   146A      3.226934   147A      3.367857
     148A      3.386439   149A      3.402918   150A      3.423731
     151A      3.434060   152A      3.442140   153A      3.491186
     154A      3.509232   155A      3.757682   156A      3.790696
     157A      3.895582   158A      3.939006   159A      3.956929
     160A      3.963469   161A      4.181165   162A      4.190938
     163A      4.232061   164A      4.262704   165A      4.340188
     166A      4.369888

    Final Occupation by Irrep:
              A
    DOCC [    36 ]

  @RHF Final Energy:  -493.37264536202775

   => Energetics <=

    Nuclear Repulsion Energy =            420.6851331219527879
    One-Electron Energy =               -1537.8469659613974727
    Two-Electron Energy =                 623.7891874774169310
    Total Energy =                       -493.3726453620278107

Computation Completed

Properties will be evaluated at   0.000000,   0.000000,   0.000000 [a0]

Properties computed using the SCF density matrix

  Nuclear Dipole Moment: [e a0]
     X:     7.1368      Y:     6.1579      Z:    -7.7179

  Electronic Dipole Moment: [e a0]
     X:    -5.2907      Y:    -4.3740      Z:     6.0673

  Dipole Moment: [e a0]
     X:     1.8461      Y:     1.7839      Z:    -1.6507     Total:     3.0521

  Dipole Moment: [D]
     X:     4.6924      Y:     4.5343      Z:    -4.1956     Total:     7.7576

*** tstop() called on ds3 at Mon Apr 27 22:33:46 2020
Module time:
	user time   =      34.92 seconds =       0.58 minutes
	system time =      20.84 seconds =       0.35 minutes
	total time  =         54 seconds =       0.90 minutes
Total time:
	user time   =      34.92 seconds =       0.58 minutes
	system time =      20.84 seconds =       0.35 minutes
	total time  =         54 seconds =       0.90 minutes
                                     G D M A

                                 by Anthony Stone

                           version 2.2.06, 22 June 2011

               Distributed Multipoles from Gaussian wavefunctions

Starting at 22:33:46 on 27 Apr 2020

Using SCF density matrix from file ./SSI/SSI-029ASP-070ASP-1-dimer.test.31235.fchk

                         Distributed Multipole Analysis

Standard DMA

Positions and radii in angstrom
Multipole moments in atomic units, ea_0^k for rank k

C          x =  0.680965  y =  3.178487  z =  1.641322 angstrom
           Maximum rank =  0   Radius =  0.650 angstrom
                   Q00  =  -0.267084

C          x = -0.061035  y =  1.851487  z =  1.669322 angstrom
           Maximum rank =  0   Radius =  0.650 angstrom
                   Q00  =   0.977452

O          x =  0.253965  y =  1.019487  z =  0.796322 angstrom
           Maximum rank =  0   Radius =  0.650 angstrom
                   Q00  =  -0.876710

O          x = -0.944035  y =  1.659487  z =  2.529322 angstrom
           Maximum rank =  0   Radius =  0.650 angstrom
                   Q00  =  -0.932900

H          x =  0.558965  y =  3.587487  z =  0.636322 angstrom
           Maximum rank =  0   Radius =  0.325 angstrom
                   Q00  =   0.049989

H          x =  1.747965  y =  3.041487  z =  1.788322 angstrom
           Maximum rank =  0   Radius =  0.325 angstrom
                   Q00  =   0.053176

H          x =  0.297861  y =  3.918247  z =  2.359642 angstrom
           Maximum rank =  0   Radius =  0.325 angstrom
                   Q00  =   0.006597

C          x =  0.601965  y = -0.705513  z = -1.643678 angstrom
           Maximum rank =  0   Radius =  0.650 angstrom
                   Q00  =  -0.126014

C          x =  0.994965  y = -1.147513  z = -3.062678 angstrom
           Maximum rank =  0   Radius =  0.650 angstrom
                   Q00  =  -0.239056

C          x = -0.275035  y = -1.704513  z = -0.872678 angstrom
           Maximum rank =  0   Radius =  0.650 angstrom
                   Q00  =   1.050179

O          x = -0.501035  y = -2.840513  z = -1.342678 angstrom
           Maximum rank =  0   Radius =  0.650 angstrom
                   Q00  =  -1.001133

O          x = -0.746035  y = -1.357513  z =  0.238322 angstrom
           Maximum rank =  0   Radius =  0.650 angstrom
                   Q00  =  -0.915814

H          x =  1.509965  y = -0.564513  z = -1.064678 angstrom
           Maximum rank =  0   Radius =  0.325 angstrom
                   Q00  =   0.064572

H          x =  0.091965  y =  0.255487  z = -1.724678 angstrom
           Maximum rank =  0   Radius =  0.325 angstrom
                   Q00  =   0.062317

H          x =  1.821965  y = -0.504513  z = -3.336678 angstrom
           Maximum rank =  0   Radius =  0.325 angstrom
                   Q00  =  -0.013648

H          x =  0.174574  y = -0.996703  z = -3.779768 angstrom
           Maximum rank =  0   Radius =  0.325 angstrom
                   Q00  =   0.043786

H          x =  1.419515  y = -2.160513  z = -3.122608 angstrom
           Maximum rank =  0   Radius =  0.325 angstrom
                   Q00  =   0.064292

Total multipoles referred to origin at
           x =   0.000000,  y =    0.000000,  z =    0.000000 angstrom
                   Q00  =  -2.000000

Finished at 22:33:46 on 27 Apr 2020

  DMA results are available in the Python driver through the
	  variable('DMA DISTRIBUTED MULTIPOLES')
  and
	  variable('DMA TOTAL MULTIPOLES')
  commands.

    Psi4 stopped on: Monday, 27 April 2020 10:33PM
    Psi4 wall time for execution: 0:00:54.03

*** Psi4 exiting successfully. Buy a developer a beer!
