                               Psi4 1.3.2 release

  ==> Input File <==

--------------------------------------------------------------------------
import numpy as np
set {scf_type pk
basis cc-pvdz
d_convergence 10
gdma_switch   0
gdma_limit    0
gdma_origin   [ 0.0,  0.0,  0.0 ]
}
molecule test {
    units Angstrom
    1 1
    --
    1 1
    C                1.904998508604008     0.158967975566117     1.475869133357875
    O                0.481998508604008     0.129967975566117     1.362869133357875
    H                0.128998508604008    -0.290032024433883     2.170869133357875
    H                2.174998508604008     0.411967975566117     2.501869133357876
    H                2.306608508604008    -0.829608024433883     1.208609133357875
    H                2.302738508604008     0.926248975566117     0.795368133357875
    C               -1.656001491395992     0.424967975566117    -1.720130866642125
    N               -0.746001491395992    -0.623032024433883    -1.195130866642125
    H               -1.222001491395992    -1.497032024433883    -0.985130866642125
    H               -0.016001491395992    -0.847032024433883    -1.874130866642125
    H               -0.281001491395992    -0.321032024433883    -0.346130866642125
    H               -2.245001491395991     0.024967975566117    -2.552130866642125
    H               -1.065001491395992     1.264967975566117    -2.097130866642124
    H               -2.333561491395991     0.797696975566117    -0.937833866642125

}
e, wfn = energy('scf', return_wfn=True)
gdma(wfn)
dmavals = variable('DMA DISTRIBUTED MULTIPOLES')
charges = np.array(dmavals)
print(charges)
np.save('SSI-107THR-129LYS-1-dimer.npy', np.array(charges))--------------------------------------------------------------------------

*** tstart() called on ds3
*** at Sun Apr 26 18:07:19 2020

   => Loading Basis Set <=

    Name: CC-PVDZ
    Role: ORBITAL
    Keyword: BASIS
    atoms 1, 7      entry C          line   138 file /theoryfs2/ds/metcalf/miniconda2/envs/tf2gpu/share/psi4/basis/cc-pvdz.gbs
    atoms 2         entry O          line   198 file /theoryfs2/ds/metcalf/miniconda2/envs/tf2gpu/share/psi4/basis/cc-pvdz.gbs
    atoms 3-6, 9-14 entry H          line    22 file /theoryfs2/ds/metcalf/miniconda2/envs/tf2gpu/share/psi4/basis/cc-pvdz.gbs
    atoms 8         entry N          line   168 file /theoryfs2/ds/metcalf/miniconda2/envs/tf2gpu/share/psi4/basis/cc-pvdz.gbs

         ---------------------------------------------------------
                                   SCF
               by Justin Turney, Rob Parrish, Andy Simmonett
                          and Daniel G. A. Smith
                              RHF Reference
                        1 Threads,    500 MiB Core
         ---------------------------------------------------------

  ==> Geometry <==

    Molecular point group: c1
    Full point group: C1

    Geometry (in Angstrom), charge = 1, multiplicity = 1:

       Center              X                  Y                   Z               Mass
    ------------   -----------------  -----------------  -----------------  -----------------
         C            1.904998508604     0.158967975566     1.475869133358    12.000000000000
         O            0.481998508604     0.129967975566     1.362869133358    15.994914619570
         H            0.128998508604    -0.290032024434     2.170869133358     1.007825032230
         H            2.174998508604     0.411967975566     2.501869133358     1.007825032230
         H            2.306608508604    -0.829608024434     1.208609133358     1.007825032230
         H            2.302738508604     0.926248975566     0.795368133358     1.007825032230
         C           -1.656001491396     0.424967975566    -1.720130866642    12.000000000000
         N           -0.746001491396    -0.623032024434    -1.195130866642    14.003074004430
         H           -1.222001491396    -1.497032024434    -0.985130866642     1.007825032230
         H           -0.016001491396    -0.847032024434    -1.874130866642     1.007825032230
         H           -0.281001491396    -0.321032024434    -0.346130866642     1.007825032230
         H           -2.245001491396     0.024967975566    -2.552130866642     1.007825032230
         H           -1.065001491396     1.264967975566    -2.097130866642     1.007825032230
         H           -2.333561491396     0.797696975566    -0.937833866642     1.007825032230

  Running in c1 symmetry.

  Rotational constants: A =      0.55348  B =      0.06612  C =      0.06462 [cm^-1]
  Rotational constants: A =  16592.96395  B =   1982.34801  C =   1937.39525 [MHz]
  Nuclear repulsion =  136.268416046161235

  Charge       = 1
  Multiplicity = 1
  Electrons    = 36
  Nalpha       = 18
  Nbeta        = 18

  ==> Algorithm <==

  SCF Algorithm Type is PK.
  DIIS enabled.
  MOM disabled.
  Fractional occupation disabled.
  Guess Type is SAD.
  Energy threshold   = 1.00e-06
  Density threshold  = 1.00e-10
  Integral threshold = 0.00e+00

  ==> Primary Basis <==

  Basis Set: CC-PVDZ
    Blend: CC-PVDZ
    Number of shells: 54
    Number of basis function: 106
    Number of Cartesian functions: 110
    Spherical Harmonics?: true
    Max angular momentum: 2

  ==> Pre-Iterations <==

   -------------------------------------------------------
    Irrep   Nso     Nmo     Nalpha   Nbeta   Ndocc  Nsocc
   -------------------------------------------------------
     A        106     106       0       0       0       0
   -------------------------------------------------------
    Total     106     106      18      18      18       0
   -------------------------------------------------------

  ==> Integral Setup <==

  Using in-core PK algorithm.
   Calculation information:
      Number of atoms:                  14
      Number of AO shells:              54
      Number of primitives:            138
      Number of atomic orbitals:       110
      Number of basis functions:       106

      Integral cutoff                 1.00e-12
      Number of threads:                 1

  Performing in-core PK
  Using 32165912 doubles for integral storage.
  We computed 947379 shell quartets total.
  Whereas there are 1103355 unique shell quartets.

  ==> DiskJK: Disk-Based J/K Matrices <==

    J tasked:                  Yes
    K tasked:                  Yes
    wK tasked:                  No
    Memory [MiB]:              375
    Schwarz Cutoff:          1E-12

    OpenMP threads:              1

  Minimum eigenvalue in the overlap matrix is 1.1084766272E-02.
  Using Symmetric Orthogonalization.

  SCF Guess: Superposition of Atomic Densities via on-the-fly atomic UHF.

  ==> Iterations <==

                        Total Energy        Delta E     RMS |[F,P]|

   @RHF iter SAD:  -209.91419198749836   -2.09914e+02   0.00000e+00
   @RHF iter   1:  -210.55421715600951   -6.40025e-01   3.98342e-03 DIIS
   @RHF iter   2:  -210.64865115970321   -9.44340e-02   1.67046e-03 DIIS
   @RHF iter   3:  -210.66158358569902   -1.29324e-02   5.14905e-04 DIIS
   @RHF iter   4:  -210.66334309646621   -1.75951e-03   1.00597e-04 DIIS
   @RHF iter   5:  -210.66341731431211   -7.42178e-05   2.70299e-05 DIIS
   @RHF iter   6:  -210.66342336850283   -6.05419e-06   5.41462e-06 DIIS
   @RHF iter   7:  -210.66342373448563   -3.65983e-07   1.47045e-06 DIIS
   @RHF iter   8:  -210.66342376071856   -2.62329e-08   5.51494e-07 DIIS
   @RHF iter   9:  -210.66342376330525   -2.58669e-09   9.71424e-08 DIIS
   @RHF iter  10:  -210.66342376341430   -1.09054e-10   1.78659e-08 DIIS
   @RHF iter  11:  -210.66342376341876   -4.46221e-12   5.13870e-09 DIIS
   @RHF iter  12:  -210.66342376341910   -3.41061e-13   1.31311e-09 DIIS
   @RHF iter  13:  -210.66342376341927   -1.70530e-13   3.38806e-10 DIIS
   @RHF iter  14:  -210.66342376341913    1.42109e-13   1.22624e-10 DIIS
   @RHF iter  15:  -210.66342376341879    3.41061e-13   3.76181e-11 DIIS
  Energy and wave function converged.

  ==> Post-Iterations <==

    Orbital Energies [Eh]
    ---------------------

    Doubly Occupied:

       1A    -20.721575     2A    -15.883242     3A    -11.474853
       4A    -11.418187     5A     -1.514914     6A     -1.501554
       7A     -1.150703     8A     -1.064306     9A     -0.960560
      10A     -0.957027    11A     -0.850166    12A     -0.836522
      13A     -0.767895    14A     -0.752340    15A     -0.749211
      16A     -0.738703    17A     -0.650628    18A     -0.602467

    Virtual:

      19A     -0.036020    20A      0.027813    21A      0.038281
      22A      0.043340    23A      0.085586    24A      0.091558
      25A      0.101000    26A      0.129627    27A      0.138242
      28A      0.153304    29A      0.186100    30A      0.240707
      31A      0.378966    32A      0.384884    33A      0.433859
      34A      0.477955    35A      0.502101    36A      0.527930
      37A      0.560617    38A      0.591153    39A      0.641841
      40A      0.667063    41A      0.671696    42A      0.697132
      43A      0.706738    44A      0.725957    45A      0.750352
      46A      0.765842    47A      0.779531    48A      0.798971
      49A      0.875067    50A      0.924144    51A      0.934355
      52A      0.983667    53A      1.004416    54A      1.034577
      55A      1.081791    56A      1.166712    57A      1.225717
      58A      1.279735    59A      1.287046    60A      1.360015
      61A      1.454022    62A      1.474586    63A      1.481209
      64A      1.528468    65A      1.550605    66A      1.641552
      67A      1.684426    68A      1.697574    69A      1.707410
      70A      1.718440    71A      1.732170    72A      1.744474
      73A      1.758144    74A      1.780529    75A      1.824118
      76A      1.888584    77A      1.940129    78A      1.945169
      79A      1.959716    80A      1.965221    81A      1.989965
      82A      2.097879    83A      2.133347    84A      2.169003
      85A      2.223100    86A      2.247062    87A      2.259263
      88A      2.282216    89A      2.333380    90A      2.428288
      91A      2.489053    92A      2.498043    93A      2.545722
      94A      2.603978    95A      2.620371    96A      2.638886
      97A      2.733877    98A      2.738879    99A      2.778951
     100A      3.094737   101A      3.095491   102A      3.179664
     103A      3.204137   104A      3.281686   105A      3.414469
     106A      3.912009

    Final Occupation by Irrep:
              A
    DOCC [    18 ]

  @RHF Final Energy:  -210.66342376341879

   => Energetics <=

    Nuclear Repulsion Energy =            136.2684160461612350
    One-Electron Energy =                -548.6739734559962471
    Two-Electron Energy =                 201.7421336464162209
    Total Energy =                       -210.6634237634187912

Computation Completed

Properties will be evaluated at   0.000000,   0.000000,   0.000000 [a0]

Properties computed using the SCF density matrix

  Nuclear Dipole Moment: [e a0]
     X:    -0.2292      Y:    -0.3340      Z:    -1.9735

  Electronic Dipole Moment: [e a0]
     X:    -0.6588      Y:    -0.6913      Z:     0.5918

  Dipole Moment: [e a0]
     X:    -0.8879      Y:    -1.0253      Z:    -1.3816     Total:     1.9361

  Dipole Moment: [D]
     X:    -2.2569      Y:    -2.6060      Z:    -3.5118     Total:     4.9211

*** tstop() called on ds3 at Sun Apr 26 18:07:26 2020
Module time:
	user time   =       6.77 seconds =       0.11 minutes
	system time =       0.38 seconds =       0.01 minutes
	total time  =          7 seconds =       0.12 minutes
Total time:
	user time   =       6.77 seconds =       0.11 minutes
	system time =       0.38 seconds =       0.01 minutes
	total time  =          7 seconds =       0.12 minutes
                                     G D M A

                                 by Anthony Stone

                           version 2.2.06, 22 June 2011

               Distributed Multipoles from Gaussian wavefunctions

Starting at 18:7:26 on 26 Apr 2020

Using SCF density matrix from file ./SSI/SSI-107THR-129LYS-1-dimer.test.22469.fchk

                         Distributed Multipole Analysis

Standard DMA

Positions and radii in angstrom
Multipole moments in atomic units, ea_0^k for rank k

C          x =  1.904999  y =  0.158968  z =  1.475869 angstrom
           Maximum rank =  0   Radius =  0.650 angstrom
                   Q00  =  -0.086798

O          x =  0.481999  y =  0.129968  z =  1.362869 angstrom
           Maximum rank =  0   Radius =  0.650 angstrom
                   Q00  =  -0.673112

H          x =  0.128999  y = -0.290032  z =  2.170869 angstrom
           Maximum rank =  0   Radius =  0.325 angstrom
                   Q00  =   0.426445

H          x =  2.174999  y =  0.411968  z =  2.501869 angstrom
           Maximum rank =  0   Radius =  0.325 angstrom
                   Q00  =   0.128527

H          x =  2.306609  y = -0.829608  z =  1.208609 angstrom
           Maximum rank =  0   Radius =  0.325 angstrom
                   Q00  =   0.088720

H          x =  2.302739  y =  0.926249  z =  0.795368 angstrom
           Maximum rank =  0   Radius =  0.325 angstrom
                   Q00  =   0.127415

C          x = -1.656001  y =  0.424968  z = -1.720131 angstrom
           Maximum rank =  0   Radius =  0.650 angstrom
                   Q00  =  -0.155615

N          x = -0.746001  y = -0.623032  z = -1.195131 angstrom
           Maximum rank =  0   Radius =  0.650 angstrom
                   Q00  =  -0.127852

H          x = -1.222001  y = -1.497032  z = -0.985131 angstrom
           Maximum rank =  0   Radius =  0.325 angstrom
                   Q00  =   0.249610

H          x = -0.016001  y = -0.847032  z = -1.874131 angstrom
           Maximum rank =  0   Radius =  0.325 angstrom
                   Q00  =   0.246654

H          x = -0.281001  y = -0.321032  z = -0.346131 angstrom
           Maximum rank =  0   Radius =  0.325 angstrom
                   Q00  =   0.299834

H          x = -2.245001  y =  0.024968  z = -2.552131 angstrom
           Maximum rank =  0   Radius =  0.325 angstrom
                   Q00  =   0.154772

H          x = -1.065001  y =  1.264968  z = -2.097131 angstrom
           Maximum rank =  0   Radius =  0.325 angstrom
                   Q00  =   0.157904

H          x = -2.333561  y =  0.797697  z = -0.937834 angstrom
           Maximum rank =  0   Radius =  0.325 angstrom
                   Q00  =   0.163496

Total multipoles referred to origin at
           x =   0.000000,  y =    0.000000,  z =    0.000000 angstrom
                   Q00  =   1.000000

Finished at 18:7:26 on 26 Apr 2020

  DMA results are available in the Python driver through the
	  variable('DMA DISTRIBUTED MULTIPOLES')
  and
	  variable('DMA TOTAL MULTIPOLES')
  commands.

    Psi4 stopped on: Sunday, 26 April 2020 06:07PM
    Psi4 wall time for execution: 0:00:07.33

*** Psi4 exiting successfully. Buy a developer a beer!
