                               Psi4 1.3.2 release

  ==> Input File <==

--------------------------------------------------------------------------
import numpy as np
set {scf_type pk
basis cc-pvdz
d_convergence 10
gdma_switch   0
gdma_limit    0
gdma_origin   [ 0.0,  0.0,  0.0 ]
}
molecule test {
    units Angstrom
    0 1
    --
    0 1
    C                0.463613951625787     0.228089707209263    -1.665799001513739
    C                0.610613951625787     0.219089707209263    -3.176799001513739
    H               -0.139386048374213    -0.619910292790737    -1.343799001513739
    H                1.449613951625787     0.159089707209263    -1.200799001513739
    H               -0.018386048374213     1.152089707209262    -1.341799001513739
    H                1.124613951625787    -0.703910292790737    -3.434799001513738
    H               -0.370466048374213     0.228446707209263    -3.674179001513739
    H                1.248613951625787     1.057126707209263    -3.494046001513739
    C               -0.991386048374213    -0.279910292790737     1.812200998486261
    C               -0.090386048374213    -0.166910292790737     3.031200998486261
    H               -1.078386048374213     0.691089707209263     1.327200998486261
    H               -0.565386048374213    -0.978910292790737     1.092200998486261
    H               -1.989386048374213    -0.581910292790737     2.125200998486261
    H                0.806613951625787     0.371089707209263     2.734200998486262
    H               -0.607596048374213     0.384540707209263     3.830198998486261
    H                0.229363951625787    -1.163104292790738     3.370844998486262

}
e, wfn = energy('scf', return_wfn=True)
gdma(wfn)
dmavals = variable('DMA DISTRIBUTED MULTIPOLES')
charges = np.array(dmavals)
print(charges)
np.save('SSI-083LEU-108VAL-1-dimer.npy', np.array(charges))--------------------------------------------------------------------------

*** tstart() called on ds3
*** at Tue Apr 28 15:24:56 2020

   => Loading Basis Set <=

    Name: CC-PVDZ
    Role: ORBITAL
    Keyword: BASIS
    atoms 1-2, 9-10  entry C          line   138 file /theoryfs2/ds/metcalf/miniconda2/envs/tf2gpu/share/psi4/basis/cc-pvdz.gbs
    atoms 3-8, 11-16 entry H          line    22 file /theoryfs2/ds/metcalf/miniconda2/envs/tf2gpu/share/psi4/basis/cc-pvdz.gbs

         ---------------------------------------------------------
                                   SCF
               by Justin Turney, Rob Parrish, Andy Simmonett
                          and Daniel G. A. Smith
                              RHF Reference
                        1 Threads,    500 MiB Core
         ---------------------------------------------------------

  ==> Geometry <==

    Molecular point group: c1
    Full point group: C1

    Geometry (in Angstrom), charge = 0, multiplicity = 1:

       Center              X                  Y                   Z               Mass
    ------------   -----------------  -----------------  -----------------  -----------------
         C            0.463613951626     0.228089707209    -1.665799001514    12.000000000000
         C            0.610613951626     0.219089707209    -3.176799001514    12.000000000000
         H           -0.139386048374    -0.619910292791    -1.343799001514     1.007825032230
         H            1.449613951626     0.159089707209    -1.200799001514     1.007825032230
         H           -0.018386048374     1.152089707209    -1.341799001514     1.007825032230
         H            1.124613951626    -0.703910292791    -3.434799001514     1.007825032230
         H           -0.370466048374     0.228446707209    -3.674179001514     1.007825032230
         H            1.248613951626     1.057126707209    -3.494046001514     1.007825032230
         C           -0.991386048374    -0.279910292791     1.812200998486    12.000000000000
         C           -0.090386048374    -0.166910292791     3.031200998486    12.000000000000
         H           -1.078386048374     0.691089707209     1.327200998486     1.007825032230
         H           -0.565386048374    -0.978910292791     1.092200998486     1.007825032230
         H           -1.989386048374    -0.581910292791     2.125200998486     1.007825032230
         H            0.806613951626     0.371089707209     2.734200998486     1.007825032230
         H           -0.607596048374     0.384540707209     3.830198998486     1.007825032230
         H            0.229363951626    -1.163104292791     3.370844998486     1.007825032230

  Running in c1 symmetry.

  Rotational constants: A =      0.71344  B =      0.04101  C =      0.03997 [cm^-1]
  Rotational constants: A =  21388.51370  B =   1229.54986  C =   1198.12680 [MHz]
  Nuclear repulsion =  120.202653832263437

  Charge       = 0
  Multiplicity = 1
  Electrons    = 36
  Nalpha       = 18
  Nbeta        = 18

  ==> Algorithm <==

  SCF Algorithm Type is PK.
  DIIS enabled.
  MOM disabled.
  Fractional occupation disabled.
  Guess Type is SAD.
  Energy threshold   = 1.00e-06
  Density threshold  = 1.00e-10
  Integral threshold = 0.00e+00

  ==> Primary Basis <==

  Basis Set: CC-PVDZ
    Blend: CC-PVDZ
    Number of shells: 60
    Number of basis function: 116
    Number of Cartesian functions: 120
    Spherical Harmonics?: true
    Max angular momentum: 2

  ==> Pre-Iterations <==

   -------------------------------------------------------
    Irrep   Nso     Nmo     Nalpha   Nbeta   Ndocc  Nsocc
   -------------------------------------------------------
     A        116     116       0       0       0       0
   -------------------------------------------------------
    Total     116     116      18      18      18       0
   -------------------------------------------------------

  ==> Integral Setup <==

  Using integral reordering PK algorithm.
  Sizing the integral batches needed.
  Building batch lookup table.
   Calculation information:
      Number of atoms:                  16
      Number of AO shells:              60
      Number of primitives:            148
      Number of atomic orbitals:       120
      Number of basis functions:       116

      Integral cutoff                 1.00e-12
      Number of threads:                 1

	Batch   1 pq = [       0,    6786] index = [             0,23028291] size =     23028291
  Task number: 3
  Buffer size: 11059200
  Buffer per thread: 2
  We computed 1350534 shell quartets total.
  Whereas there are 1675365 unique shell quartets.

  ==> DiskJK: Disk-Based J/K Matrices <==

    J tasked:                  Yes
    K tasked:                  Yes
    wK tasked:                  No
    Memory [MiB]:              375
    Schwarz Cutoff:          1E-12

    OpenMP threads:              1

  Minimum eigenvalue in the overlap matrix is 6.7382020469E-03.
  Using Symmetric Orthogonalization.

  SCF Guess: Superposition of Atomic Densities via on-the-fly atomic UHF.

  ==> Iterations <==

                        Total Energy        Delta E     RMS |[F,P]|

   @RHF iter SAD:  -157.37776956765126   -1.57378e+02   0.00000e+00
   @RHF iter   1:  -158.30386440402731   -9.26095e-01   4.25420e-03 DIIS
   @RHF iter   2:  -158.43903629296571   -1.35172e-01   1.82295e-03 DIIS
   @RHF iter   3:  -158.46307995566769   -2.40437e-02   3.51064e-04 DIIS
   @RHF iter   4:  -158.46492207392680   -1.84212e-03   3.87379e-05 DIIS
   @RHF iter   5:  -158.46494569758426   -2.36237e-05   6.46457e-06 DIIS
   @RHF iter   6:  -158.46494632496501   -6.27381e-07   9.39536e-07 DIIS
   @RHF iter   7:  -158.46494633419229   -9.22728e-09   2.88335e-07 DIIS
   @RHF iter   8:  -158.46494633487910   -6.86811e-10   3.74032e-08 DIIS
   @RHF iter   9:  -158.46494633489897   -1.98668e-11   6.84813e-09 DIIS
   @RHF iter  10:  -158.46494633489891    5.68434e-14   1.48900e-09 DIIS
   @RHF iter  11:  -158.46494633489914   -2.27374e-13   4.05682e-10 DIIS
   @RHF iter  12:  -158.46494633489880    3.41061e-13   1.34085e-10 DIIS
   @RHF iter  13:  -158.46494633489891   -1.13687e-13   1.86872e-11 DIIS
  Energy and wave function converged.

  ==> Post-Iterations <==

    Orbital Energies [Eh]
    ---------------------

    Doubly Occupied:

       1A    -11.218214     2A    -11.217182     3A    -11.216135
       4A    -11.214126     5A     -1.021766     6A     -1.019489
       7A     -0.836946     8A     -0.832083     9A     -0.604395
      10A     -0.600726    11A     -0.598547    12A     -0.594405
      13A     -0.504689    14A     -0.497589    15A     -0.490796
      16A     -0.484670    17A     -0.482082    18A     -0.477570

    Virtual:

      19A      0.174605    20A      0.193483    21A      0.225103
      22A      0.230495    23A      0.240377    24A      0.254000
      25A      0.266830    26A      0.276475    27A      0.283675
      28A      0.290030    29A      0.311087    30A      0.341166
      31A      0.394239    32A      0.399654    33A      0.566703
      34A      0.594676    35A      0.595534    36A      0.603134
      37A      0.611487    38A      0.627659    39A      0.676476
      40A      0.685365    41A      0.694714    42A      0.757567
      43A      0.851087    44A      0.867000    45A      0.884399
      46A      0.891001    47A      0.893496    48A      0.896140
      49A      0.899031    50A      0.903382    51A      0.915508
      52A      0.924859    53A      0.936171    54A      0.949879
      55A      0.967269    56A      0.991072    57A      1.123231
      58A      1.127244    59A      1.129148    60A      1.141210
      61A      1.221253    62A      1.246823    63A      1.473067
      64A      1.480884    65A      1.488987    66A      1.499532
      67A      1.567400    68A      1.587946    69A      1.675996
      70A      1.680143    71A      1.692214    72A      1.693805
      73A      1.843606    74A      1.855999    75A      1.866436
      76A      1.872355    77A      1.901998    78A      1.917982
      79A      1.937461    80A      1.938218    81A      1.941117
      82A      1.947403    83A      1.950577    84A      1.953843
      85A      1.965836    86A      1.975534    87A      1.982764
      88A      2.049752    89A      2.089427    90A      2.116796
      91A      2.127092    92A      2.148464    93A      2.293373
      94A      2.297832    95A      2.310140    96A      2.332136
      97A      2.443385    98A      2.447916    99A      2.463565
     100A      2.478459   101A      2.558140   102A      2.572338
     103A      2.578825   104A      2.593397   105A      2.761008
     106A      2.764778   107A      2.783670   108A      2.795841
     109A      2.830504   110A      2.841362   111A      2.856169
     112A      2.868492   113A      2.940632   114A      2.951369
     115A      2.962843   116A      2.975356

    Final Occupation by Irrep:
              A
    DOCC [    18 ]

  @RHF Final Energy:  -158.46494633489891

   => Energetics <=

    Nuclear Repulsion Energy =            120.2026538322634366
    One-Electron Energy =                -449.5123820692197683
    Two-Electron Energy =                 170.8447819020574343
    Total Energy =                       -158.4649463348989116

Computation Completed

Properties will be evaluated at   0.000000,   0.000000,   0.000000 [a0]

Properties computed using the SCF density matrix

  Nuclear Dipole Moment: [e a0]
     X:     0.0842      Y:    -0.0040      Z:    -0.0090

  Electronic Dipole Moment: [e a0]
     X:    -0.0749      Y:     0.0011      Z:    -0.0045

  Dipole Moment: [e a0]
     X:     0.0093      Y:    -0.0029      Z:    -0.0135     Total:     0.0166

  Dipole Moment: [D]
     X:     0.0236      Y:    -0.0074      Z:    -0.0342     Total:     0.0422

*** tstop() called on ds3 at Tue Apr 28 15:25:05 2020
Module time:
	user time   =       6.53 seconds =       0.11 minutes
	system time =       2.71 seconds =       0.05 minutes
	total time  =          9 seconds =       0.15 minutes
Total time:
	user time   =       6.53 seconds =       0.11 minutes
	system time =       2.71 seconds =       0.05 minutes
	total time  =          9 seconds =       0.15 minutes
                                     G D M A

                                 by Anthony Stone

                           version 2.2.06, 22 June 2011

               Distributed Multipoles from Gaussian wavefunctions

Starting at 15:25:5 on 28 Apr 2020

Using SCF density matrix from file ./SSI/SSI-083LEU-108VAL-1-dimer.test.16467.fchk

                         Distributed Multipole Analysis

Standard DMA

Positions and radii in angstrom
Multipole moments in atomic units, ea_0^k for rank k

C          x =  0.463614  y =  0.228090  z = -1.665799 angstrom
           Maximum rank =  0   Radius =  0.650 angstrom
                   Q00  =  -0.240733

C          x =  0.610614  y =  0.219090  z = -3.176799 angstrom
           Maximum rank =  0   Radius =  0.650 angstrom
                   Q00  =  -0.226890

H          x = -0.139386  y = -0.619910  z = -1.343799 angstrom
           Maximum rank =  0   Radius =  0.325 angstrom
                   Q00  =   0.078561

H          x =  1.449614  y =  0.159090  z = -1.200799 angstrom
           Maximum rank =  0   Radius =  0.325 angstrom
                   Q00  =   0.076959

H          x = -0.018386  y =  1.152090  z = -1.341799 angstrom
           Maximum rank =  0   Radius =  0.325 angstrom
                   Q00  =   0.077106

H          x =  1.124614  y = -0.703910  z = -3.434799 angstrom
           Maximum rank =  0   Radius =  0.325 angstrom
                   Q00  =   0.074989

H          x = -0.370466  y =  0.228447  z = -3.674179 angstrom
           Maximum rank =  0   Radius =  0.325 angstrom
                   Q00  =   0.080924

H          x =  1.248614  y =  1.057127  z = -3.494046 angstrom
           Maximum rank =  0   Radius =  0.325 angstrom
                   Q00  =   0.078494

C          x = -0.991386  y = -0.279910  z =  1.812201 angstrom
           Maximum rank =  0   Radius =  0.650 angstrom
                   Q00  =  -0.242300

C          x = -0.090386  y = -0.166910  z =  3.031201 angstrom
           Maximum rank =  0   Radius =  0.650 angstrom
                   Q00  =  -0.222284

H          x = -1.078386  y =  0.691090  z =  1.327201 angstrom
           Maximum rank =  0   Radius =  0.325 angstrom
                   Q00  =   0.076987

H          x = -0.565386  y = -0.978910  z =  1.092201 angstrom
           Maximum rank =  0   Radius =  0.325 angstrom
                   Q00  =   0.081035

H          x = -1.989386  y = -0.581910  z =  2.125201 angstrom
           Maximum rank =  0   Radius =  0.325 angstrom
                   Q00  =   0.076092

H          x =  0.806614  y =  0.371090  z =  2.734201 angstrom
           Maximum rank =  0   Radius =  0.325 angstrom
                   Q00  =   0.075597

H          x = -0.607596  y =  0.384541  z =  3.830199 angstrom
           Maximum rank =  0   Radius =  0.325 angstrom
                   Q00  =   0.078371

H          x =  0.229364  y = -1.163104  z =  3.370845 angstrom
           Maximum rank =  0   Radius =  0.325 angstrom
                   Q00  =   0.077091

Total multipoles referred to origin at
           x =   0.000000,  y =    0.000000,  z =    0.000000 angstrom
                   Q00  =  -0.000000

Finished at 15:25:5 on 28 Apr 2020

  DMA results are available in the Python driver through the
	  variable('DMA DISTRIBUTED MULTIPOLES')
  and
	  variable('DMA TOTAL MULTIPOLES')
  commands.

    Psi4 stopped on: Tuesday, 28 April 2020 03:25PM
    Psi4 wall time for execution: 0:00:09.10

*** Psi4 exiting successfully. Buy a developer a beer!
