                               Psi4 1.3.2 release

  ==> Input File <==

--------------------------------------------------------------------------
import numpy as np
set {scf_type pk
basis cc-pvdz
d_convergence 10
gdma_switch   0
gdma_limit    0
gdma_origin   [ 0.0,  0.0,  0.0 ]
}
molecule test {
    units Angstrom
    -1 1
    --
    -1 1
    C                2.328350980973644     1.042612184344033    -0.012483901464679
    C                2.760350980973644    -0.212387815655967     0.749516098535321
    H                3.157350980973644     1.743612184344034    -0.098483901464679
    H                1.986350980973644     0.764612184344033    -1.008483901464679
    H                1.505350980973644     1.527612184344034     0.507516098535321
    H                1.939350980973644    -0.921387815655967     0.799516098535321
    H                3.074830980973644     0.048422184344033     1.770826098535321
    H                3.586000980973644    -0.716467815655967     0.225876098535321
    C               -2.223649019026356     0.870612184344033    -0.003483901464679
    C               -1.238649019026356    -0.270387815655967    -0.199483901464679
    O               -1.425649019026356    -1.070387815655967    -1.143483901464679
    O               -0.285649019026356    -0.374387815655967     0.593516098535321
    H               -1.925649019026356     1.500612184344033     0.839516098535321
    H               -3.206649019026356     0.456612184344033     0.237516098535321
    H               -2.322709019026356     1.493902184344033    -0.904423901464679

}
e, wfn = energy('scf', return_wfn=True)
gdma(wfn)
dmavals = variable('DMA DISTRIBUTED MULTIPOLES')
charges = np.array(dmavals)
print(charges)
np.save('SSI-008ALA-035GLU-1-dimer.npy', np.array(charges))--------------------------------------------------------------------------

*** tstart() called on ds3
*** at Tue Apr 28 21:46:59 2020

   => Loading Basis Set <=

    Name: CC-PVDZ
    Role: ORBITAL
    Keyword: BASIS
    atoms 1-2, 9-10  entry C          line   138 file /theoryfs2/ds/metcalf/miniconda2/envs/tf2gpu/share/psi4/basis/cc-pvdz.gbs
    atoms 3-8, 13-15 entry H          line    22 file /theoryfs2/ds/metcalf/miniconda2/envs/tf2gpu/share/psi4/basis/cc-pvdz.gbs
    atoms 11-12      entry O          line   198 file /theoryfs2/ds/metcalf/miniconda2/envs/tf2gpu/share/psi4/basis/cc-pvdz.gbs

         ---------------------------------------------------------
                                   SCF
               by Justin Turney, Rob Parrish, Andy Simmonett
                          and Daniel G. A. Smith
                              RHF Reference
                        1 Threads,    500 MiB Core
         ---------------------------------------------------------

  ==> Geometry <==

    Molecular point group: c1
    Full point group: C1

    Geometry (in Angstrom), charge = -1, multiplicity = 1:

       Center              X                  Y                   Z               Mass
    ------------   -----------------  -----------------  -----------------  -----------------
         C            2.328350980974     1.042612184344    -0.012483901465    12.000000000000
         C            2.760350980974    -0.212387815656     0.749516098535    12.000000000000
         H            3.157350980974     1.743612184344    -0.098483901465     1.007825032230
         H            1.986350980974     0.764612184344    -1.008483901465     1.007825032230
         H            1.505350980974     1.527612184344     0.507516098535     1.007825032230
         H            1.939350980974    -0.921387815656     0.799516098535     1.007825032230
         H            3.074830980974     0.048422184344     1.770826098535     1.007825032230
         H            3.586000980974    -0.716467815656     0.225876098535     1.007825032230
         C           -2.223649019026     0.870612184344    -0.003483901465    12.000000000000
         C           -1.238649019026    -0.270387815656    -0.199483901465    12.000000000000
         O           -1.425649019026    -1.070387815656    -1.143483901465    15.994914619570
         O           -0.285649019026    -0.374387815656     0.593516098535    15.994914619570
         H           -1.925649019026     1.500612184344     0.839516098535     1.007825032230
         H           -3.206649019026     0.456612184344     0.237516098535     1.007825032230
         H           -2.322709019026     1.493902184344    -0.904423901465     1.007825032230

  Running in c1 symmetry.

  Rotational constants: A =      0.20270  B =      0.04546  C =      0.04216 [cm^-1]
  Rotational constants: A =   6076.81150  B =   1362.97974  C =   1263.80768 [MHz]
  Nuclear repulsion =  228.361744009120883

  Charge       = -1
  Multiplicity = 1
  Electrons    = 50
  Nalpha       = 25
  Nbeta        = 25

  ==> Algorithm <==

  SCF Algorithm Type is PK.
  DIIS enabled.
  MOM disabled.
  Fractional occupation disabled.
  Guess Type is SAD.
  Energy threshold   = 1.00e-06
  Density threshold  = 1.00e-10
  Integral threshold = 0.00e+00

  ==> Primary Basis <==

  Basis Set: CC-PVDZ
    Blend: CC-PVDZ
    Number of shells: 63
    Number of basis function: 129
    Number of Cartesian functions: 135
    Spherical Harmonics?: true
    Max angular momentum: 2

  ==> Pre-Iterations <==

   -------------------------------------------------------
    Irrep   Nso     Nmo     Nalpha   Nbeta   Ndocc  Nsocc
   -------------------------------------------------------
     A        129     129       0       0       0       0
   -------------------------------------------------------
    Total     129     129      25      25      25       0
   -------------------------------------------------------

  ==> Integral Setup <==

  Using integral reordering PK algorithm.
  Sizing the integral batches needed.
  Building batch lookup table.
   Calculation information:
      Number of atoms:                  15
      Number of AO shells:              63
      Number of primitives:            177
      Number of atomic orbitals:       135
      Number of basis functions:       129

      Integral cutoff                 1.00e-12
      Number of threads:                 1

	Batch   1 pq = [       0,    8385] index = [             0,35158305] size =     35158305
  Task number: 4
  Buffer size: 11059200
  Buffer per thread: 2
  We computed 1775755 shell quartets total.
  Whereas there are 2033136 unique shell quartets.

  ==> DiskJK: Disk-Based J/K Matrices <==

    J tasked:                  Yes
    K tasked:                  Yes
    wK tasked:                  No
    Memory [MiB]:              375
    Schwarz Cutoff:          1E-12

    OpenMP threads:              1

  Minimum eigenvalue in the overlap matrix is 5.4193008338E-03.
  Using Symmetric Orthogonalization.

  SCF Guess: Superposition of Atomic Densities via on-the-fly atomic UHF.

  ==> Iterations <==

                        Total Energy        Delta E     RMS |[F,P]|

   @RHF iter SAD:  -304.87494774704720   -3.04875e+02   0.00000e+00
   @RHF iter   1:  -306.21047920140450   -1.33553e+00   5.66505e-03 DIIS
   @RHF iter   2:  -306.41283209719063   -2.02353e-01   3.19385e-03 DIIS
   @RHF iter   3:  -306.47567552984896   -6.28434e-02   4.72158e-04 DIIS
   @RHF iter   4:  -306.47822100683254   -2.54548e-03   1.77030e-04 DIIS
   @RHF iter   5:  -306.47859953640835   -3.78530e-04   2.60522e-05 DIIS
   @RHF iter   6:  -306.47860963525773   -1.00988e-05   7.18648e-06 DIIS
   @RHF iter   7:  -306.47861023814448   -6.02887e-07   3.10934e-06 DIIS
   @RHF iter   8:  -306.47861032244674   -8.43023e-08   7.58647e-07 DIIS
   @RHF iter   9:  -306.47861033358998   -1.11432e-08   3.60288e-07 DIIS
   @RHF iter  10:  -306.47861033612622   -2.53624e-09   1.22325e-07 DIIS
   @RHF iter  11:  -306.47861033660507   -4.78849e-10   3.17651e-08 DIIS
   @RHF iter  12:  -306.47861033663122   -2.61480e-11   6.62177e-09 DIIS
   @RHF iter  13:  -306.47861033663219   -9.66338e-13   1.91467e-09 DIIS
   @RHF iter  14:  -306.47861033663077    1.42109e-12   6.53548e-10 DIIS
   @RHF iter  15:  -306.47861033663224   -1.47793e-12   2.34531e-10 DIIS
   @RHF iter  16:  -306.47861033663133    9.09495e-13   8.72224e-11 DIIS
  Energy and wave function converged.

  ==> Post-Iterations <==

    Orbital Energies [Eh]
    ---------------------

    Doubly Occupied:

       1A    -20.263996     2A    -20.255010     3A    -11.116459
       4A    -11.072094     5A    -11.070601     6A    -11.052285
       7A     -1.152932     8A     -1.037588     9A     -0.870024
      10A     -0.797386    11A     -0.692960    12A     -0.505122
      13A     -0.452893    14A     -0.449620    15A     -0.411514
      16A     -0.407932    17A     -0.403549    18A     -0.356381
      19A     -0.346784    20A     -0.341280    21A     -0.332574
      22A     -0.305915    23A     -0.185120    24A     -0.171852
      25A     -0.161842

    Virtual:

      26A      0.325089    27A      0.347175    28A      0.371620
      29A      0.382882    30A      0.393822    31A      0.400940
      32A      0.409304    33A      0.451300    34A      0.469687
      35A      0.487946    36A      0.539716    37A      0.575992
      38A      0.686466    39A      0.711336    40A      0.741346
      41A      0.743749    42A      0.783579    43A      0.817437
      44A      0.825842    45A      0.837635    46A      0.890739
      47A      0.968163    48A      0.975676    49A      0.986844
      50A      1.010175    51A      1.028157    52A      1.031377
      53A      1.038326    54A      1.044047    55A      1.054348
      56A      1.058421    57A      1.083454    58A      1.115917
      59A      1.123579    60A      1.153765    61A      1.224182
      62A      1.267831    63A      1.272308    64A      1.345722
      65A      1.349706    66A      1.368978    67A      1.454125
      68A      1.557792    69A      1.571185    70A      1.579018
      71A      1.596922    72A      1.613144    73A      1.628360
      74A      1.666682    75A      1.723965    76A      1.745245
      77A      1.773881    78A      1.841359    79A      1.843773
      80A      1.850081    81A      1.867341    82A      2.010427
      83A      2.027886    84A      2.047671    85A      2.063308
      86A      2.087914    87A      2.089753    88A      2.090986
      89A      2.099607    90A      2.101361    91A      2.113403
      92A      2.126987    93A      2.161811    94A      2.215839
      95A      2.249094    96A      2.272030    97A      2.298032
      98A      2.317199    99A      2.416395   100A      2.437745
     101A      2.462436   102A      2.475232   103A      2.584882
     104A      2.605531   105A      2.617955   106A      2.640470
     107A      2.711298   108A      2.719871   109A      2.732841
     110A      2.792218   111A      2.908832   112A      2.911888
     113A      2.941332   114A      2.956228   115A      2.991618
     116A      3.003345   117A      3.023301   118A      3.098089
     119A      3.117576   120A      3.241760   121A      3.279992
     122A      3.296541   123A      3.368002   124A      3.640262
     125A      3.795594   126A      3.835444   127A      4.071462
     128A      4.101948   129A      4.211621

    Final Occupation by Irrep:
              A
    DOCC [    25 ]

  @RHF Final Energy:  -306.47861033663133

   => Energetics <=

    Nuclear Repulsion Energy =            228.3617440091208834
    One-Electron Energy =                -881.2532811184165666
    Two-Electron Energy =                 346.4129267726643207
    Total Energy =                       -306.4786103366313341

Computation Completed

Properties will be evaluated at   0.000000,   0.000000,   0.000000 [a0]

Properties computed using the SCF density matrix

  Nuclear Dipole Moment: [e a0]
     X:     7.2986      Y:     5.5218      Z:     2.2186

  Electronic Dipole Moment: [e a0]
     X:    -6.4502      Y:    -4.1723      Z:    -1.7091

  Dipole Moment: [e a0]
     X:     0.8484      Y:     1.3495      Z:     0.5095     Total:     1.6735

  Dipole Moment: [D]
     X:     2.1565      Y:     3.4301      Z:     1.2950     Total:     4.2536

*** tstop() called on ds3 at Tue Apr 28 21:47:18 2020
Module time:
	user time   =      13.83 seconds =       0.23 minutes
	system time =       5.17 seconds =       0.09 minutes
	total time  =         19 seconds =       0.32 minutes
Total time:
	user time   =      13.83 seconds =       0.23 minutes
	system time =       5.17 seconds =       0.09 minutes
	total time  =         19 seconds =       0.32 minutes
                                     G D M A

                                 by Anthony Stone

                           version 2.2.06, 22 June 2011

               Distributed Multipoles from Gaussian wavefunctions

Starting at 21:47:18 on 28 Apr 2020

Using SCF density matrix from file ./SSI/SSI-008ALA-035GLU-1-dimer.test.30490.fchk

                         Distributed Multipole Analysis

Standard DMA

Positions and radii in angstrom
Multipole moments in atomic units, ea_0^k for rank k

C          x =  2.328351  y =  1.042612  z = -0.012484 angstrom
           Maximum rank =  0   Radius =  0.650 angstrom
                   Q00  =  -0.212013

C          x =  2.760351  y = -0.212388  z =  0.749516 angstrom
           Maximum rank =  0   Radius =  0.650 angstrom
                   Q00  =  -0.204203

H          x =  3.157351  y =  1.743612  z = -0.098484 angstrom
           Maximum rank =  0   Radius =  0.325 angstrom
                   Q00  =   0.006183

H          x =  1.986351  y =  0.764612  z = -1.008484 angstrom
           Maximum rank =  0   Radius =  0.325 angstrom
                   Q00  =   0.090818

H          x =  1.505351  y =  1.527612  z =  0.507516 angstrom
           Maximum rank =  0   Radius =  0.325 angstrom
                   Q00  =   0.098780

H          x =  1.939351  y = -0.921388  z =  0.799516 angstrom
           Maximum rank =  0   Radius =  0.325 angstrom
                   Q00  =   0.133587

H          x =  3.074831  y =  0.048422  z =  1.770826 angstrom
           Maximum rank =  0   Radius =  0.325 angstrom
                   Q00  =   0.036250

H          x =  3.586001  y = -0.716468  z =  0.225876 angstrom
           Maximum rank =  0   Radius =  0.325 angstrom
                   Q00  =   0.023583

C          x = -2.223649  y =  0.870612  z = -0.003484 angstrom
           Maximum rank =  0   Radius =  0.650 angstrom
                   Q00  =  -0.284937

C          x = -1.238649  y = -0.270388  z = -0.199484 angstrom
           Maximum rank =  0   Radius =  0.650 angstrom
                   Q00  =   0.980038

O          x = -1.425649  y = -1.070388  z = -1.143484 angstrom
           Maximum rank =  0   Radius =  0.650 angstrom
                   Q00  =  -0.935646

O          x = -0.285649  y = -0.374388  z =  0.593516 angstrom
           Maximum rank =  0   Radius =  0.650 angstrom
                   Q00  =  -0.919454

H          x = -1.925649  y =  1.500612  z =  0.839516 angstrom
           Maximum rank =  0   Radius =  0.325 angstrom
                   Q00  =   0.050502

H          x = -3.206649  y =  0.456612  z =  0.237516 angstrom
           Maximum rank =  0   Radius =  0.325 angstrom
                   Q00  =   0.069917

H          x = -2.322709  y =  1.493902  z = -0.904424 angstrom
           Maximum rank =  0   Radius =  0.325 angstrom
                   Q00  =   0.066594

Total multipoles referred to origin at
           x =   0.000000,  y =    0.000000,  z =    0.000000 angstrom
                   Q00  =  -1.000000

Finished at 21:47:18 on 28 Apr 2020

  DMA results are available in the Python driver through the
	  variable('DMA DISTRIBUTED MULTIPOLES')
  and
	  variable('DMA TOTAL MULTIPOLES')
  commands.

    Psi4 stopped on: Tuesday, 28 April 2020 09:47PM
    Psi4 wall time for execution: 0:00:18.84

*** Psi4 exiting successfully. Buy a developer a beer!
