                               Psi4 1.3.2 release

  ==> Input File <==

--------------------------------------------------------------------------
import numpy as np
set {scf_type pk
basis cc-pvdz
d_convergence 10
gdma_switch   0
gdma_limit    0
gdma_origin   [ 0.0,  0.0,  0.0 ]
}
molecule test {
    units Angstrom
    0 1
    --
    0 1
    C               -1.977546232616379     0.720097268728665    -0.092284154997167
    C               -3.378546232616379     0.194097268728665    -0.301284154997167
    C               -2.091546232616379     2.053097268728665     0.587715845002833
    H               -1.439546232616379     0.799097268728665    -1.037284154997167
    H               -1.446546232616379     0.036097268728665     0.571715845002833
    H               -3.735546232616379     0.453097268728665    -1.300284154997167
    H               -3.406546232616379    -0.882902731271335    -0.137284154997167
    H               -2.197546232616379     2.820097268728665    -0.182284154997167
    H               -1.218546232616379     2.266097268728665     1.202715845002833
    H               -3.957006232616379     0.738972268728665     0.459305845002833
    H               -3.009976232616379     1.979883268728665     1.188645845002833
    C                0.864453767383621    -1.854902731271335     0.124715845002833
    C                3.000453767383621    -0.277902731271335     0.641715845002833
    S                1.610453767383621    -0.340902731271335    -0.488284154997167
    H                0.349453767383621    -1.689902731271335     1.069715845002833
    H                0.130453767383621    -2.198902731271335    -0.600284154997167
    H                1.622453767383621    -2.632902731271335     0.223715845002833
    H                3.432453767383621     0.723097268728665     0.628715845002833
    H                3.753453767383621    -0.986902731271335     0.302715845002833
    H                2.692193767383621    -0.546270731271335     1.662965845002833

}
e, wfn = energy('scf', return_wfn=True)
gdma(wfn)
dmavals = variable('DMA DISTRIBUTED MULTIPOLES')
charges = np.array(dmavals)
print(charges)
np.save('SSI-027PRO-032MET-1-dimer.npy', np.array(charges))--------------------------------------------------------------------------

*** tstart() called on ds3
*** at Sun Apr 26 20:30:01 2020

   => Loading Basis Set <=

    Name: CC-PVDZ
    Role: ORBITAL
    Keyword: BASIS
    atoms 1-3, 12-13  entry C          line   138 file /theoryfs2/ds/metcalf/miniconda2/envs/tf2gpu/share/psi4/basis/cc-pvdz.gbs
    atoms 4-11, 15-20 entry H          line    22 file /theoryfs2/ds/metcalf/miniconda2/envs/tf2gpu/share/psi4/basis/cc-pvdz.gbs
    atoms 14          entry S          line   598 file /theoryfs2/ds/metcalf/miniconda2/envs/tf2gpu/share/psi4/basis/cc-pvdz.gbs

         ---------------------------------------------------------
                                   SCF
               by Justin Turney, Rob Parrish, Andy Simmonett
                          and Daniel G. A. Smith
                              RHF Reference
                        1 Threads,    500 MiB Core
         ---------------------------------------------------------

  ==> Geometry <==

    Molecular point group: c1
    Full point group: C1

    Geometry (in Angstrom), charge = 0, multiplicity = 1:

       Center              X                  Y                   Z               Mass
    ------------   -----------------  -----------------  -----------------  -----------------
         C           -1.977546232616     0.720097268729    -0.092284154997    12.000000000000
         C           -3.378546232616     0.194097268729    -0.301284154997    12.000000000000
         C           -2.091546232616     2.053097268729     0.587715845003    12.000000000000
         H           -1.439546232616     0.799097268729    -1.037284154997     1.007825032230
         H           -1.446546232616     0.036097268729     0.571715845003     1.007825032230
         H           -3.735546232616     0.453097268729    -1.300284154997     1.007825032230
         H           -3.406546232616    -0.882902731271    -0.137284154997     1.007825032230
         H           -2.197546232616     2.820097268729    -0.182284154997     1.007825032230
         H           -1.218546232616     2.266097268729     1.202715845003     1.007825032230
         H           -3.957006232616     0.738972268729     0.459305845003     1.007825032230
         H           -3.009976232616     1.979883268729     1.188645845003     1.007825032230
         C            0.864453767384    -1.854902731271     0.124715845003    12.000000000000
         C            3.000453767384    -0.277902731271     0.641715845003    12.000000000000
         S            1.610453767384    -0.340902731271    -0.488284154997    31.972071174400
         H            0.349453767384    -1.689902731271     1.069715845003     1.007825032230
         H            0.130453767384    -2.198902731271    -0.600284154997     1.007825032230
         H            1.622453767384    -2.632902731271     0.223715845003     1.007825032230
         H            3.432453767384     0.723097268729     0.628715845003     1.007825032230
         H            3.753453767384    -0.986902731271     0.302715845003     1.007825032230
         H            2.692193767384    -0.546270731271     1.662965845003     1.007825032230

  Running in c1 symmetry.

  Rotational constants: A =      0.14252  B =      0.02770  C =      0.02490 [cm^-1]
  Rotational constants: A =   4272.63017  B =    830.41062  C =    746.39912 [MHz]
  Nuclear repulsion =  294.655484170880243

  Charge       = 0
  Multiplicity = 1
  Electrons    = 60
  Nalpha       = 30
  Nbeta        = 30

  ==> Algorithm <==

  SCF Algorithm Type is PK.
  DIIS enabled.
  MOM disabled.
  Fractional occupation disabled.
  Guess Type is SAD.
  Energy threshold   = 1.00e-06
  Density threshold  = 1.00e-10
  Integral threshold = 0.00e+00

  ==> Primary Basis <==

  Basis Set: CC-PVDZ
    Blend: CC-PVDZ
    Number of shells: 80
    Number of basis function: 158
    Number of Cartesian functions: 164
    Spherical Harmonics?: true
    Max angular momentum: 2

  ==> Pre-Iterations <==

   -------------------------------------------------------
    Irrep   Nso     Nmo     Nalpha   Nbeta   Ndocc  Nsocc
   -------------------------------------------------------
     A        158     158       0       0       0       0
   -------------------------------------------------------
    Total     158     158      30      30      30       0
   -------------------------------------------------------

  ==> Integral Setup <==

  Using integral reordering PK algorithm.
  Sizing the integral batches needed.
  Building batch lookup table.
   Calculation information:
      Number of atoms:                  20
      Number of AO shells:              80
      Number of primitives:            230
      Number of atomic orbitals:       164
      Number of basis functions:       158

      Integral cutoff                 1.00e-12
      Number of threads:                 1

	Batch   1 pq = [       0,    9405] index = [             0,44231715] size =     44231715
	Batch   2 pq = [    9405,   12561] index = [      44231715,78895641] size =     34663926
  Task number: 8
  Buffer size: 11059200
  Buffer per thread: 2
  We computed 4435441 shell quartets total.
  Whereas there are 5250420 unique shell quartets.

  ==> DiskJK: Disk-Based J/K Matrices <==

    J tasked:                  Yes
    K tasked:                  Yes
    wK tasked:                  No
    Memory [MiB]:              375
    Schwarz Cutoff:          1E-12

    OpenMP threads:              1

  Minimum eigenvalue in the overlap matrix is 4.6389425330E-03.
  Using Symmetric Orthogonalization.

  SCF Guess: Superposition of Atomic Densities via on-the-fly atomic UHF.

  ==> Iterations <==

                        Total Energy        Delta E     RMS |[F,P]|

   @RHF iter SAD:  -594.10510883335542   -5.94105e+02   0.00000e+00
   @RHF iter   1:  -594.82575194078981   -7.20643e-01   3.24638e-03 DIIS
   @RHF iter   2:  -594.98036588809089   -1.54614e-01   1.35489e-03 DIIS
   @RHF iter   3:  -595.00540279524080   -2.50369e-02   3.06868e-04 DIIS
   @RHF iter   4:  -595.00773078542886   -2.32799e-03   5.17993e-05 DIIS
   @RHF iter   5:  -595.00778759115678   -5.68057e-05   1.23728e-05 DIIS
   @RHF iter   6:  -595.00779112753003   -3.53637e-06   2.72050e-06 DIIS
   @RHF iter   7:  -595.00779130245269   -1.74923e-07   6.22200e-07 DIIS
   @RHF iter   8:  -595.00779131603940   -1.35867e-08   1.73513e-07 DIIS
   @RHF iter   9:  -595.00779131702620   -9.86802e-10   4.68132e-08 DIIS
   @RHF iter  10:  -595.00779131709930   -7.31006e-11   1.47349e-08 DIIS
   @RHF iter  11:  -595.00779131710601   -6.70752e-12   3.01635e-09 DIIS
   @RHF iter  12:  -595.00779131710442    1.59162e-12   9.13004e-10 DIIS
   @RHF iter  13:  -595.00779131710419    2.27374e-13   2.38955e-10 DIIS
   @RHF iter  14:  -595.00779131710499   -7.95808e-13   6.89856e-11 DIIS
  Energy and wave function converged.

  ==> Post-Iterations <==

    Orbital Energies [Eh]
    ---------------------

    Doubly Occupied:

       1A    -91.935166     2A    -11.255333     3A    -11.254683
       4A    -11.207786     5A    -11.206304     6A    -11.204884
       7A     -8.939370     8A     -6.621415     9A     -6.619888
      10A     -6.617571    11A     -1.066883    12A     -1.062697
      13A     -0.950970    14A     -0.913728    15A     -0.805978
      16A     -0.788911    17A     -0.630769    18A     -0.612457
      19A     -0.604404    20A     -0.602559    21A     -0.571736
      22A     -0.563539    23A     -0.538491    24A     -0.512648
      25A     -0.494706    26A     -0.472372    27A     -0.461203
      28A     -0.455105    29A     -0.431306    30A     -0.330915

    Virtual:

      31A      0.168355    32A      0.180967    33A      0.197906
      34A      0.220098    35A      0.228946    36A      0.233083
      37A      0.245039    38A      0.250111    39A      0.256530
      40A      0.267670    41A      0.275502    42A      0.288547
      43A      0.296877    44A      0.310528    45A      0.332541
      46A      0.353504    47A      0.385641    48A      0.451880
      49A      0.522737    50A      0.550931    51A      0.578740
      52A      0.583754    53A      0.595935    54A      0.612351
      55A      0.624118    56A      0.641881    57A      0.667512
      58A      0.673561    59A      0.708490    60A      0.770933
      61A      0.780469    62A      0.785817    63A      0.804340
      64A      0.807016    65A      0.828343    66A      0.842231
      67A      0.853293    68A      0.862449    69A      0.877278
      70A      0.878239    71A      0.886796    72A      0.891553
      73A      0.904499    74A      0.908896    75A      0.911387
      76A      0.914870    77A      0.918590    78A      0.933671
      79A      0.949456    80A      0.957485    81A      0.966275
      82A      0.980768    83A      0.991039    84A      1.020486
      85A      1.097573    86A      1.112626    87A      1.169451
      88A      1.205823    89A      1.251153    90A      1.315218
      91A      1.326769    92A      1.352900    93A      1.384385
      94A      1.440851    95A      1.479372    96A      1.489578
      97A      1.499612    98A      1.509306    99A      1.610923
     100A      1.631589   101A      1.640006   102A      1.666666
     103A      1.681660   104A      1.725756   105A      1.731993
     106A      1.800242   107A      1.869650   108A      1.878414
     109A      1.887162   110A      1.892685   111A      1.896948
     112A      1.906206   113A      1.926625   114A      1.935333
     115A      1.944197   116A      1.952485   117A      1.959256
     118A      1.984820   119A      1.994461   120A      2.003268
     121A      2.004620   122A      2.028124   123A      2.038578
     124A      2.045425   125A      2.057597   126A      2.082669
     127A      2.090640   128A      2.159497   129A      2.211713
     130A      2.235674   131A      2.245639   132A      2.266787
     133A      2.318836   134A      2.365776   135A      2.401991
     136A      2.413483   137A      2.442724   138A      2.444371
     139A      2.454585   140A      2.456726   141A      2.509212
     142A      2.566471   143A      2.645468   144A      2.711007
     145A      2.732735   146A      2.759040   147A      2.766877
     148A      2.773989   149A      2.784007   150A      2.792578
     151A      2.798681   152A      2.804109   153A      2.841187
     154A      2.847590   155A      2.855774   156A      2.913210
     157A      2.950796   158A      3.083445

    Final Occupation by Irrep:
              A
    DOCC [    30 ]

  @RHF Final Energy:  -595.00779131710499

   => Energetics <=

    Nuclear Repulsion Energy =            294.6554841708802428
    One-Electron Energy =               -1399.8589972878432945
    Two-Electron Energy =                 510.1957217998580063
    Total Energy =                       -595.0077913171049886

Computation Completed

Properties will be evaluated at   0.000000,   0.000000,   0.000000 [a0]

Properties computed using the SCF density matrix

  Nuclear Dipole Moment: [e a0]
     X:    -7.8611      Y:     0.8147      Z:     3.7865

  Electronic Dipole Moment: [e a0]
     X:     8.1494      Y:    -1.2357      Z:    -3.3416

  Dipole Moment: [e a0]
     X:     0.2883      Y:    -0.4210      Z:     0.4449     Total:     0.6769

  Dipole Moment: [D]
     X:     0.7327      Y:    -1.0700      Z:     1.1308     Total:     1.7206

*** tstop() called on ds3 at Sun Apr 26 20:30:47 2020
Module time:
	user time   =      35.04 seconds =       0.58 minutes
	system time =      11.70 seconds =       0.20 minutes
	total time  =         46 seconds =       0.77 minutes
Total time:
	user time   =      35.04 seconds =       0.58 minutes
	system time =      11.70 seconds =       0.20 minutes
	total time  =         46 seconds =       0.77 minutes
                                     G D M A

                                 by Anthony Stone

                           version 2.2.06, 22 June 2011

               Distributed Multipoles from Gaussian wavefunctions

Starting at 20:30:47 on 26 Apr 2020

Using SCF density matrix from file ./SSI/SSI-027PRO-032MET-1-dimer.test.1228.fchk

                         Distributed Multipole Analysis

Standard DMA

Positions and radii in angstrom
Multipole moments in atomic units, ea_0^k for rank k

C          x = -1.977546  y =  0.720097  z = -0.092284 angstrom
           Maximum rank =  0   Radius =  0.650 angstrom
                   Q00  =  -0.099733

C          x = -3.378546  y =  0.194097  z = -0.301284 angstrom
           Maximum rank =  0   Radius =  0.650 angstrom
                   Q00  =  -0.235349

C          x = -2.091546  y =  2.053097  z =  0.587716 angstrom
           Maximum rank =  0   Radius =  0.650 angstrom
                   Q00  =  -0.203243

H          x = -1.439546  y =  0.799097  z = -1.037284 angstrom
           Maximum rank =  0   Radius =  0.325 angstrom
                   Q00  =   0.053841

H          x = -1.446546  y =  0.036097  z =  0.571716 angstrom
           Maximum rank =  0   Radius =  0.325 angstrom
                   Q00  =   0.045455

H          x = -3.735546  y =  0.453097  z = -1.300284 angstrom
           Maximum rank =  0   Radius =  0.325 angstrom
                   Q00  =   0.083696

H          x = -3.406546  y = -0.882903  z = -0.137284 angstrom
           Maximum rank =  0   Radius =  0.325 angstrom
                   Q00  =   0.083910

H          x = -2.197546  y =  2.820097  z = -0.182284 angstrom
           Maximum rank =  0   Radius =  0.325 angstrom
                   Q00  =   0.079462

H          x = -1.218546  y =  2.266097  z =  1.202716 angstrom
           Maximum rank =  0   Radius =  0.325 angstrom
                   Q00  =   0.083175

H          x = -3.957006  y =  0.738972  z =  0.459306 angstrom
           Maximum rank =  0   Radius =  0.325 angstrom
                   Q00  =   0.059857

H          x = -3.009976  y =  1.979883  z =  1.188646 angstrom
           Maximum rank =  0   Radius =  0.325 angstrom
                   Q00  =   0.048483

C          x =  0.864454  y = -1.854903  z =  0.124716 angstrom
           Maximum rank =  0   Radius =  0.650 angstrom
                   Q00  =  -0.359714

C          x =  3.000454  y = -0.277903  z =  0.641716 angstrom
           Maximum rank =  0   Radius =  0.650 angstrom
                   Q00  =  -0.355453

S          x =  1.610454  y = -0.340903  z = -0.488284 angstrom
           Maximum rank =  0   Radius =  0.650 angstrom
                   Q00  =   0.130556

H          x =  0.349454  y = -1.689903  z =  1.069716 angstrom
           Maximum rank =  0   Radius =  0.325 angstrom
                   Q00  =   0.087129

H          x =  0.130454  y = -2.198903  z = -0.600284 angstrom
           Maximum rank =  0   Radius =  0.325 angstrom
                   Q00  =   0.118057

H          x =  1.622454  y = -2.632903  z =  0.223716 angstrom
           Maximum rank =  0   Radius =  0.325 angstrom
                   Q00  =   0.088124

H          x =  3.432454  y =  0.723097  z =  0.628716 angstrom
           Maximum rank =  0   Radius =  0.325 angstrom
                   Q00  =   0.117449

H          x =  3.753454  y = -0.986903  z =  0.302716 angstrom
           Maximum rank =  0   Radius =  0.325 angstrom
                   Q00  =   0.086013

H          x =  2.692194  y = -0.546271  z =  1.662966 angstrom
           Maximum rank =  0   Radius =  0.325 angstrom
                   Q00  =   0.088284

Total multipoles referred to origin at
           x =   0.000000,  y =    0.000000,  z =    0.000000 angstrom
                   Q00  =  -0.000000

Finished at 20:30:47 on 26 Apr 2020

  DMA results are available in the Python driver through the
	  variable('DMA DISTRIBUTED MULTIPOLES')
  and
	  variable('DMA TOTAL MULTIPOLES')
  commands.

    Psi4 stopped on: Sunday, 26 April 2020 08:30PM
    Psi4 wall time for execution: 0:00:46.08

*** Psi4 exiting successfully. Buy a developer a beer!
