                               Psi4 1.3.2 release

  ==> Input File <==

--------------------------------------------------------------------------
import numpy as np
set {scf_type pk
basis cc-pvdz
d_convergence 10
gdma_switch   0
gdma_limit    0
gdma_origin   [ 0.0,  0.0,  0.0 ]
}
molecule test {
    units Angstrom
    0 1
    --
    0 1
    C                1.246125461520698    -0.082863527742620     0.865307629220028
    C                1.669125461520699    -1.246863527742620     1.743307629220028
    C                2.280125461520699     0.012136472257380    -0.264692370779972
    H                1.161125461520698     0.836136472257380     1.442307629220029
    H                0.276125461520698    -0.321863527742620     0.442307629220028
    H                1.770125461520698    -0.924863527742620     2.781307629220028
    H                0.940125461520698    -2.052863527742620     1.692307629220029
    H                1.759125461520698     0.129136472257380    -1.217692370779972
    H                2.639375461520698    -1.591693527742620     1.356387629220029
    H                2.831905461520698    -0.936163527742620    -0.185542370779972
    H                2.980095461520698     0.845371472257380    -0.104202370779972
    C               -1.981874538479302     0.366136472257380    -0.769692370779971
    C               -3.132874538479301     0.960136472257380    -1.518692370779972
    H               -1.963874538479301     0.755136472257380     0.249307629220028
    H               -2.072874538479302    -0.716863527742620    -0.708692370779972
    H               -1.036874538479302     0.626136472257380    -1.242692370779972
    H               -3.129874538479301     0.546136472257380    -2.528692370779972
    H               -3.036471538479301     2.053711472257380    -1.587982370779972
    H               -4.078049538479302     0.649166472257380    -1.049712370779972

}
e, wfn = energy('scf', return_wfn=True)
gdma(wfn)
dmavals = variable('DMA DISTRIBUTED MULTIPOLES')
charges = np.array(dmavals)
print(charges)
np.save('SSI-120PRO-126ALA-1-dimer.npy', np.array(charges))--------------------------------------------------------------------------

*** tstart() called on ds3
*** at Tue Apr 28 00:40:02 2020

   => Loading Basis Set <=

    Name: CC-PVDZ
    Role: ORBITAL
    Keyword: BASIS
    atoms 1-3, 12-13  entry C          line   138 file /theoryfs2/ds/metcalf/miniconda2/envs/tf2gpu/share/psi4/basis/cc-pvdz.gbs
    atoms 4-11, 14-19 entry H          line    22 file /theoryfs2/ds/metcalf/miniconda2/envs/tf2gpu/share/psi4/basis/cc-pvdz.gbs

         ---------------------------------------------------------
                                   SCF
               by Justin Turney, Rob Parrish, Andy Simmonett
                          and Daniel G. A. Smith
                              RHF Reference
                        1 Threads,    500 MiB Core
         ---------------------------------------------------------

  ==> Geometry <==

    Molecular point group: c1
    Full point group: C1

    Geometry (in Angstrom), charge = 0, multiplicity = 1:

       Center              X                  Y                   Z               Mass
    ------------   -----------------  -----------------  -----------------  -----------------
         C            1.246125461521    -0.082863527743     0.865307629220    12.000000000000
         C            1.669125461521    -1.246863527743     1.743307629220    12.000000000000
         C            2.280125461521     0.012136472257    -0.264692370780    12.000000000000
         H            1.161125461521     0.836136472257     1.442307629220     1.007825032230
         H            0.276125461521    -0.321863527743     0.442307629220     1.007825032230
         H            1.770125461521    -0.924863527743     2.781307629220     1.007825032230
         H            0.940125461521    -2.052863527743     1.692307629220     1.007825032230
         H            1.759125461521     0.129136472257    -1.217692370780     1.007825032230
         H            2.639375461521    -1.591693527743     1.356387629220     1.007825032230
         H            2.831905461521    -0.936163527743    -0.185542370780     1.007825032230
         H            2.980095461521     0.845371472257    -0.104202370780     1.007825032230
         C           -1.981874538479     0.366136472257    -0.769692370780    12.000000000000
         C           -3.132874538479     0.960136472257    -1.518692370780    12.000000000000
         H           -1.963874538479     0.755136472257     0.249307629220     1.007825032230
         H           -2.072874538479    -0.716863527743    -0.708692370780     1.007825032230
         H           -1.036874538479     0.626136472257    -1.242692370780     1.007825032230
         H           -3.129874538479     0.546136472257    -2.528692370780     1.007825032230
         H           -3.036471538479     2.053711472257    -1.587982370780     1.007825032230
         H           -4.078049538479     0.649166472257    -1.049712370780     1.007825032230

  Running in c1 symmetry.

  Rotational constants: A =      0.26634  B =      0.03645  C =      0.03344 [cm^-1]
  Rotational constants: A =   7984.70981  B =   1092.87327  C =   1002.62754 [MHz]
  Nuclear repulsion =  177.847451664317930

  Charge       = 0
  Multiplicity = 1
  Electrons    = 44
  Nalpha       = 22
  Nbeta        = 22

  ==> Algorithm <==

  SCF Algorithm Type is PK.
  DIIS enabled.
  MOM disabled.
  Fractional occupation disabled.
  Guess Type is SAD.
  Energy threshold   = 1.00e-06
  Density threshold  = 1.00e-10
  Integral threshold = 0.00e+00

  ==> Primary Basis <==

  Basis Set: CC-PVDZ
    Blend: CC-PVDZ
    Number of shells: 72
    Number of basis function: 140
    Number of Cartesian functions: 145
    Spherical Harmonics?: true
    Max angular momentum: 2

  ==> Pre-Iterations <==

   -------------------------------------------------------
    Irrep   Nso     Nmo     Nalpha   Nbeta   Ndocc  Nsocc
   -------------------------------------------------------
     A        140     140       0       0       0       0
   -------------------------------------------------------
    Total     140     140      22      22      22       0
   -------------------------------------------------------

  ==> Integral Setup <==

  Using integral reordering PK algorithm.
  Sizing the integral batches needed.
  Building batch lookup table.
   Calculation information:
      Number of atoms:                  19
      Number of AO shells:              72
      Number of primitives:            180
      Number of atomic orbitals:       145
      Number of basis functions:       140

      Integral cutoff                 1.00e-12
      Number of threads:                 1

	Batch   1 pq = [       0,    9405] index = [             0,44231715] size =     44231715
	Batch   2 pq = [    9405,    9870] index = [      44231715,48713385] size =      4481670
  Task number: 5
  Buffer size: 11059200
  Buffer per thread: 2
  We computed 2760179 shell quartets total.
  Whereas there are 3454506 unique shell quartets.

  ==> DiskJK: Disk-Based J/K Matrices <==

    J tasked:                  Yes
    K tasked:                  Yes
    wK tasked:                  No
    Memory [MiB]:              375
    Schwarz Cutoff:          1E-12

    OpenMP threads:              1

  Minimum eigenvalue in the overlap matrix is 4.3069514360E-03.
  Using Symmetric Orthogonalization.

  SCF Guess: Superposition of Atomic Densities via on-the-fly atomic UHF.

  ==> Iterations <==

                        Total Energy        Delta E     RMS |[F,P]|

   @RHF iter SAD:  -196.52558661719732   -1.96526e+02   0.00000e+00
   @RHF iter   1:  -197.28442592689996   -7.58839e-01   3.87299e-03 DIIS
   @RHF iter   2:  -197.44759320544534   -1.63167e-01   1.68363e-03 DIIS
   @RHF iter   3:  -197.47735581753733   -2.97626e-02   3.28526e-04 DIIS
   @RHF iter   4:  -197.47959408205821   -2.23826e-03   4.82394e-05 DIIS
   @RHF iter   5:  -197.47963375176784   -3.96697e-05   1.48584e-05 DIIS
   @RHF iter   6:  -197.47963719690489   -3.44514e-06   2.62914e-06 DIIS
   @RHF iter   7:  -197.47963732022220   -1.23317e-07   5.10321e-07 DIIS
   @RHF iter   8:  -197.47963732550053   -5.27834e-09   1.23934e-07 DIIS
   @RHF iter   9:  -197.47963732581806   -3.17527e-10   3.99725e-08 DIIS
   @RHF iter  10:  -197.47963732585393   -3.58682e-11   8.45526e-09 DIIS
   @RHF iter  11:  -197.47963732585396   -2.84217e-14   1.67565e-09 DIIS
   @RHF iter  12:  -197.47963732585475   -7.95808e-13   3.27081e-10 DIIS
   @RHF iter  13:  -197.47963732585478   -2.84217e-14   5.93562e-11 DIIS
  Energy and wave function converged.

  ==> Post-Iterations <==

    Orbital Energies [Eh]
    ---------------------

    Doubly Occupied:

       1A    -11.217907     2A    -11.215002     3A    -11.214086
       4A    -11.211185     5A    -11.209838     6A     -1.059218
       7A     -1.027597     8A     -0.914560     9A     -0.836303
      10A     -0.797588    11A     -0.624989    12A     -0.616954
      13A     -0.605604    14A     -0.598776    15A     -0.538679
      16A     -0.517378    17A     -0.511484    18A     -0.488698
      19A     -0.479712    20A     -0.476550    21A     -0.457856
      22A     -0.456857

    Virtual:

      23A      0.174226    24A      0.195084    25A      0.216326
      26A      0.218178    27A      0.226912    28A      0.247974
      29A      0.254852    30A      0.265609    31A      0.274299
      32A      0.286385    33A      0.302484    34A      0.318094
      35A      0.332631    36A      0.355056    37A      0.396697
      38A      0.432684    39A      0.447987    40A      0.570909
      41A      0.590699    42A      0.597716    43A      0.608356
      44A      0.613277    45A      0.665467    46A      0.672086
      47A      0.693454    48A      0.709891    49A      0.727206
      50A      0.764124    51A      0.796657    52A      0.830410
      53A      0.864791    54A      0.867853    55A      0.888650
      56A      0.890322    57A      0.891488    58A      0.904319
      59A      0.905660    60A      0.914129    61A      0.915761
      62A      0.922005    63A      0.927341    64A      0.945150
      65A      0.959936    66A      0.969751    67A      0.994428
      68A      1.004475    69A      1.069520    70A      1.090564
      71A      1.127200    72A      1.134933    73A      1.211995
      74A      1.289761    75A      1.408226    76A      1.471923
      77A      1.479608    78A      1.491719    79A      1.517811
      80A      1.586933    81A      1.604619    82A      1.626565
      83A      1.673505    84A      1.676510    85A      1.695723
      86A      1.700411    87A      1.739473    88A      1.787927
      89A      1.847909    90A      1.857160    91A      1.869243
      92A      1.889768    93A      1.902082    94A      1.915133
      95A      1.929891    96A      1.944941    97A      1.947528
      98A      1.953722    99A      1.961969   100A      1.964761
     101A      1.970905   102A      1.988747   103A      2.000474
     104A      2.017229   105A      2.042702   106A      2.054413
     107A      2.074876   108A      2.090759   109A      2.123816
     110A      2.189211   111A      2.269585   112A      2.288326
     113A      2.317199   114A      2.322637   115A      2.353196
     116A      2.377392   117A      2.406880   118A      2.418202
     119A      2.446884   120A      2.480044   121A      2.483608
     122A      2.560703   123A      2.575575   124A      2.597125
     125A      2.689516   126A      2.707376   127A      2.756983
     128A      2.773374   129A      2.781782   130A      2.789960
     131A      2.800287   132A      2.828720   133A      2.840990
     134A      2.846306   135A      2.855280   136A      2.881867
     137A      2.944322   138A      2.952711   139A      2.975531
     140A      3.055987

    Final Occupation by Irrep:
              A
    DOCC [    22 ]

  @RHF Final Energy:  -197.47963732585478

   => Energetics <=

    Nuclear Repulsion Energy =            177.8474516643179300
    One-Electron Energy =                -616.5005374707384362
    Two-Electron Energy =                 241.1734484805657246
    Total Energy =                       -197.4796373258547817

Computation Completed

Properties will be evaluated at   0.000000,   0.000000,   0.000000 [a0]

Properties computed using the SCF density matrix

  Nuclear Dipole Moment: [e a0]
     X:    -0.9000      Y:    -0.0969      Z:    -0.6199

  Electronic Dipole Moment: [e a0]
     X:     0.8407      Y:     0.1132      Z:     0.6203

  Dipole Moment: [e a0]
     X:    -0.0593      Y:     0.0163      Z:     0.0004     Total:     0.0615

  Dipole Moment: [D]
     X:    -0.1507      Y:     0.0415      Z:     0.0009     Total:     0.1563

*** tstop() called on ds3 at Tue Apr 28 00:40:22 2020
Module time:
	user time   =      14.24 seconds =       0.24 minutes
	system time =       6.29 seconds =       0.10 minutes
	total time  =         20 seconds =       0.33 minutes
Total time:
	user time   =      14.24 seconds =       0.24 minutes
	system time =       6.29 seconds =       0.10 minutes
	total time  =         20 seconds =       0.33 minutes
                                     G D M A

                                 by Anthony Stone

                           version 2.2.06, 22 June 2011

               Distributed Multipoles from Gaussian wavefunctions

Starting at 0:40:22 on 28 Apr 2020

Using SCF density matrix from file ./SSI/SSI-120PRO-126ALA-1-dimer.test.7744.fchk

                         Distributed Multipole Analysis

Standard DMA

Positions and radii in angstrom
Multipole moments in atomic units, ea_0^k for rank k

C          x =  1.246125  y = -0.082864  z =  0.865308 angstrom
           Maximum rank =  0   Radius =  0.650 angstrom
                   Q00  =  -0.121632

C          x =  1.669125  y = -1.246864  z =  1.743308 angstrom
           Maximum rank =  0   Radius =  0.650 angstrom
                   Q00  =  -0.231280

C          x =  2.280125  y =  0.012136  z = -0.264692 angstrom
           Maximum rank =  0   Radius =  0.650 angstrom
                   Q00  =  -0.238366

H          x =  1.161125  y =  0.836136  z =  1.442308 angstrom
           Maximum rank =  0   Radius =  0.325 angstrom
                   Q00  =   0.057751

H          x =  0.276125  y = -0.321864  z =  0.442308 angstrom
           Maximum rank =  0   Radius =  0.325 angstrom
                   Q00  =   0.063050

H          x =  1.770125  y = -0.924864  z =  2.781308 angstrom
           Maximum rank =  0   Radius =  0.325 angstrom
                   Q00  =   0.083175

H          x =  0.940125  y = -2.052864  z =  1.692308 angstrom
           Maximum rank =  0   Radius =  0.325 angstrom
                   Q00  =   0.086578

H          x =  1.759125  y =  0.129136  z = -1.217692 angstrom
           Maximum rank =  0   Radius =  0.325 angstrom
                   Q00  =   0.085616

H          x =  2.639375  y = -1.591694  z =  1.356388 angstrom
           Maximum rank =  0   Radius =  0.325 angstrom
                   Q00  =   0.059501

H          x =  2.831905  y = -0.936164  z = -0.185542 angstrom
           Maximum rank =  0   Radius =  0.325 angstrom
                   Q00  =   0.068711

H          x =  2.980095  y =  0.845371  z = -0.104202 angstrom
           Maximum rank =  0   Radius =  0.325 angstrom
                   Q00  =   0.082333

C          x = -1.981875  y =  0.366136  z = -0.769692 angstrom
           Maximum rank =  0   Radius =  0.650 angstrom
                   Q00  =  -0.239295

C          x = -3.132875  y =  0.960136  z = -1.518692 angstrom
           Maximum rank =  0   Radius =  0.650 angstrom
                   Q00  =  -0.216539

H          x = -1.963875  y =  0.755136  z =  0.249308 angstrom
           Maximum rank =  0   Radius =  0.325 angstrom
                   Q00  =   0.073885

H          x = -2.072875  y = -0.716864  z = -0.708692 angstrom
           Maximum rank =  0   Radius =  0.325 angstrom
                   Q00  =   0.076157

H          x = -1.036875  y =  0.626136  z = -1.242692 angstrom
           Maximum rank =  0   Radius =  0.325 angstrom
                   Q00  =   0.076105

H          x = -3.129875  y =  0.546136  z = -2.528692 angstrom
           Maximum rank =  0   Radius =  0.325 angstrom
                   Q00  =   0.074831

H          x = -3.036472  y =  2.053711  z = -1.587982 angstrom
           Maximum rank =  0   Radius =  0.325 angstrom
                   Q00  =   0.081137

H          x = -4.078050  y =  0.649166  z = -1.049712 angstrom
           Maximum rank =  0   Radius =  0.325 angstrom
                   Q00  =   0.078283

Total multipoles referred to origin at
           x =   0.000000,  y =    0.000000,  z =    0.000000 angstrom
                   Q00  =  -0.000000

Finished at 0:40:22 on 28 Apr 2020

  DMA results are available in the Python driver through the
	  variable('DMA DISTRIBUTED MULTIPOLES')
  and
	  variable('DMA TOTAL MULTIPOLES')
  commands.

    Psi4 stopped on: Tuesday, 28 April 2020 12:40AM
    Psi4 wall time for execution: 0:00:20.41

*** Psi4 exiting successfully. Buy a developer a beer!
