                               Psi4 1.3.2 release

  ==> Input File <==

--------------------------------------------------------------------------
import numpy as np
set {scf_type pk
basis cc-pvdz
d_convergence 10
gdma_switch   0
gdma_limit    0
gdma_origin   [ 0.0,  0.0,  0.0 ]
}
molecule test {
    units Angstrom
    0 1
    --
    0 1
    C                2.839075104836184    -0.478250740948448    -1.278214047117186
    C               -0.427924895163815     0.164749259051552     0.489785952882814
    C               -0.109924895163815     1.256749259051552     1.282785952882814
    C                0.533075104836185    -0.403250740948448    -0.323214047117186
    C                1.794075104836184     0.156749259051552    -0.412214047117186
    C                1.159075104836184     1.808749259051552     1.224785952882814
    C                2.099075104836185     1.264749259051552     0.369785952882814
    O               -1.064924895163815     1.753749259051552     2.112785952882814
    H               -1.415924895163815    -0.261250740948448     0.548785952882814
    H                0.299075104836185    -1.281250740948448    -0.908214047117186
    H                1.411075104836184     2.653749259051551     1.846785952882814
    H               -0.742924895163815     2.508749259051551     2.630785952882813
    H                3.486075104836185     0.305749259051552    -1.662214047117186
    H                2.347075104836184    -0.949250740948448    -2.131214047117187
    H                3.089075104836184     1.698749259051552     0.320785952882814
    H                3.450125104836185    -1.228112740948448    -0.754454047117186
    C               -2.231924895163815    -2.545250740948448    -1.509214047117186
    C               -3.733924895163816    -2.568250740948448    -1.813214047117186
    H               -1.753924895163816    -3.472250740948449    -1.807214047117186
    H               -1.764924895163815    -1.722250740948448    -2.044214047117186
    H               -2.073924895163815    -2.398250740948449    -0.441214047117186
    H               -4.129924895163816    -1.569250740948448    -1.641214047117186
    H               -4.266824895163816    -3.290758740948449    -1.177604047117186
    H               -3.902154895163815    -2.833716740948448    -2.867364047117186

}
e, wfn = energy('scf', return_wfn=True)
gdma(wfn)
dmavals = variable('DMA DISTRIBUTED MULTIPOLES')
charges = np.array(dmavals)
print(charges)
np.save('SSI-009TYR-029THR-1-dimer.npy', np.array(charges))--------------------------------------------------------------------------

*** tstart() called on ds3
*** at Mon Apr 27 13:10:14 2020

   => Loading Basis Set <=

    Name: CC-PVDZ
    Role: ORBITAL
    Keyword: BASIS
    atoms 1-7, 17-18  entry C          line   138 file /theoryfs2/ds/metcalf/miniconda2/envs/tf2gpu/share/psi4/basis/cc-pvdz.gbs
    atoms 8           entry O          line   198 file /theoryfs2/ds/metcalf/miniconda2/envs/tf2gpu/share/psi4/basis/cc-pvdz.gbs
    atoms 9-16, 19-24 entry H          line    22 file /theoryfs2/ds/metcalf/miniconda2/envs/tf2gpu/share/psi4/basis/cc-pvdz.gbs

         ---------------------------------------------------------
                                   SCF
               by Justin Turney, Rob Parrish, Andy Simmonett
                          and Daniel G. A. Smith
                              RHF Reference
                        1 Threads,    500 MiB Core
         ---------------------------------------------------------

  ==> Geometry <==

    Molecular point group: c1
    Full point group: C1

    Geometry (in Angstrom), charge = 0, multiplicity = 1:

       Center              X                  Y                   Z               Mass
    ------------   -----------------  -----------------  -----------------  -----------------
         C            2.839075104836    -0.478250740948    -1.278214047117    12.000000000000
         C           -0.427924895164     0.164749259052     0.489785952883    12.000000000000
         C           -0.109924895164     1.256749259052     1.282785952883    12.000000000000
         C            0.533075104836    -0.403250740948    -0.323214047117    12.000000000000
         C            1.794075104836     0.156749259052    -0.412214047117    12.000000000000
         C            1.159075104836     1.808749259052     1.224785952883    12.000000000000
         C            2.099075104836     1.264749259052     0.369785952883    12.000000000000
         O           -1.064924895164     1.753749259052     2.112785952883    15.994914619570
         H           -1.415924895164    -0.261250740948     0.548785952883     1.007825032230
         H            0.299075104836    -1.281250740948    -0.908214047117     1.007825032230
         H            1.411075104836     2.653749259052     1.846785952883     1.007825032230
         H           -0.742924895164     2.508749259052     2.630785952883     1.007825032230
         H            3.486075104836     0.305749259052    -1.662214047117     1.007825032230
         H            2.347075104836    -0.949250740948    -2.131214047117     1.007825032230
         H            3.089075104836     1.698749259052     0.320785952883     1.007825032230
         H            3.450125104836    -1.228112740948    -0.754454047117     1.007825032230
         C           -2.231924895164    -2.545250740948    -1.509214047117    12.000000000000
         C           -3.733924895164    -2.568250740948    -1.813214047117    12.000000000000
         H           -1.753924895164    -3.472250740948    -1.807214047117     1.007825032230
         H           -1.764924895164    -1.722250740948    -2.044214047117     1.007825032230
         H           -2.073924895164    -2.398250740948    -0.441214047117     1.007825032230
         H           -4.129924895164    -1.569250740948    -1.641214047117     1.007825032230
         H           -4.266824895164    -3.290758740948    -1.177604047117     1.007825032230
         H           -3.902154895164    -2.833716740948    -2.867364047117     1.007825032230

  Running in c1 symmetry.

  Rotational constants: A =      0.04750  B =      0.02083  C =      0.01469 [cm^-1]
  Rotational constants: A =   1423.90038  B =    624.53428  C =    440.48586 [MHz]
  Nuclear repulsion =  487.369775015818675

  Charge       = 0
  Multiplicity = 1
  Electrons    = 76
  Nalpha       = 38
  Nbeta        = 38

  ==> Algorithm <==

  SCF Algorithm Type is PK.
  DIIS enabled.
  MOM disabled.
  Fractional occupation disabled.
  Guess Type is SAD.
  Energy threshold   = 1.00e-06
  Density threshold  = 1.00e-10
  Integral threshold = 0.00e+00

  ==> Primary Basis <==

  Basis Set: CC-PVDZ
    Blend: CC-PVDZ
    Number of shells: 102
    Number of basis function: 210
    Number of Cartesian functions: 220
    Spherical Harmonics?: true
    Max angular momentum: 2

  ==> Pre-Iterations <==

   -------------------------------------------------------
    Irrep   Nso     Nmo     Nalpha   Nbeta   Ndocc  Nsocc
   -------------------------------------------------------
     A        210     210       0       0       0       0
   -------------------------------------------------------
    Total     210     210      38      38      38       0
   -------------------------------------------------------

  ==> Integral Setup <==

  Using integral reordering PK algorithm.
  Sizing the integral batches needed.
  Building batch lookup table.
   Calculation information:
      Number of atoms:                  24
      Number of AO shells:             102
      Number of primitives:            290
      Number of atomic orbitals:       220
      Number of basis functions:       210

      Integral cutoff                 1.00e-12
      Number of threads:                 1

	Batch   1 pq = [       0,    9405] index = [             0,44231715] size =     44231715
	Batch   2 pq = [    9405,   13301] index = [      44231715,88464951] size =     44233236
	Batch   3 pq = [   13301,   16290] index = [      88464951,132690195] size =     44225244
	Batch   4 pq = [   16290,   18810] index = [     132690195,176917455] size =     44227260
	Batch   5 pq = [   18810,   21030] index = [     176917455,221140965] size =     44223510
	Batch   6 pq = [   21030,   22155] index = [     221140965,245433090] size =     24292125
  Task number: 23
  Buffer size: 11059200
  Buffer per thread: 2
  We computed 10726211 shell quartets total.
  Whereas there are 13799631 unique shell quartets.

  ==> DiskJK: Disk-Based J/K Matrices <==

    J tasked:                  Yes
    K tasked:                  Yes
    wK tasked:                  No
    Memory [MiB]:              375
    Schwarz Cutoff:          1E-12

    OpenMP threads:              1

  Minimum eigenvalue in the overlap matrix is 3.0397332450E-04.
  Using Symmetric Orthogonalization.

  SCF Guess: Superposition of Atomic Densities via on-the-fly atomic UHF.

  ==> Iterations <==

                        Total Energy        Delta E     RMS |[F,P]|

   @RHF iter SAD:  -422.80767495223051   -4.22808e+02   0.00000e+00
   @RHF iter   1:  -423.59735481542538   -7.89680e-01   3.00341e-03 DIIS
   @RHF iter   2:  -423.81722407576024   -2.19869e-01   1.27069e-03 DIIS
   @RHF iter   3:  -423.85296025495632   -3.57362e-02   2.85441e-04 DIIS
   @RHF iter   4:  -423.85586773395096   -2.90748e-03   1.17036e-04 DIIS
   @RHF iter   5:  -423.85622083920009   -3.53105e-04   2.09542e-05 DIIS
   @RHF iter   6:  -423.85623859034399   -1.77511e-05   6.40210e-06 DIIS
   @RHF iter   7:  -423.85624023147625   -1.64113e-06   2.03949e-06 DIIS
   @RHF iter   8:  -423.85624044637041   -2.14894e-07   7.45704e-07 DIIS
   @RHF iter   9:  -423.85624047964978   -3.32794e-08   2.98137e-07 DIIS
   @RHF iter  10:  -423.85624048573123   -6.08145e-09   1.20807e-07 DIIS
   @RHF iter  11:  -423.85624048753135   -1.80012e-09   5.52804e-08 DIIS
   @RHF iter  12:  -423.85624048790669   -3.75337e-10   2.61861e-08 DIIS
   @RHF iter  13:  -423.85624048797467   -6.79847e-11   7.97189e-09 DIIS
   @RHF iter  14:  -423.85624048797860   -3.92220e-12   2.18032e-09 DIIS
   @RHF iter  15:  -423.85624048798053   -1.93268e-12   7.26390e-10 DIIS
   @RHF iter  16:  -423.85624048797706    3.46745e-12   2.78641e-10 DIIS
   @RHF iter  17:  -423.85624048797854   -1.47793e-12   1.30302e-10 DIIS
   @RHF iter  18:  -423.85624048797899   -4.54747e-13   6.75216e-11 DIIS
  Energy and wave function converged.

  ==> Post-Iterations <==

    Orbital Energies [Eh]
    ---------------------

    Doubly Occupied:

       1A    -20.582758     2A    -11.295686     3A    -11.235438
       4A    -11.231824     5A    -11.230229     6A    -11.227485
       7A    -11.224857     8A    -11.224731     9A    -11.219383
      10A    -11.217241    11A     -1.398616    12A     -1.154478
      13A     -1.038551    14A     -1.020836    15A     -1.017368
      16A     -0.925268    17A     -0.844984    18A     -0.839337
      19A     -0.801495    20A     -0.731553    21A     -0.668818
      22A     -0.639704    23A     -0.606069    24A     -0.600823
      25A     -0.596842    26A     -0.587002    27A     -0.585846
      28A     -0.570596    29A     -0.566072    30A     -0.525103
      31A     -0.502396    32A     -0.495901    33A     -0.488280
      34A     -0.486765    35A     -0.481556    36A     -0.467623
      37A     -0.339669    38A     -0.300063

    Virtual:

      39A      0.133611    40A      0.156553    41A      0.178941
      42A      0.180068    43A      0.191821    44A      0.219532
      45A      0.222278    46A      0.242043    47A      0.254044
      48A      0.263039    49A      0.265481    50A      0.277765
      51A      0.288799    52A      0.289432    53A      0.306534
      54A      0.329107    55A      0.376732    56A      0.381219
      57A      0.417259    58A      0.429607    59A      0.456440
      60A      0.484463    61A      0.505449    62A      0.512244
      63A      0.593864    64A      0.606651    65A      0.608788
      66A      0.636242    67A      0.646636    68A      0.653826
      69A      0.668388    70A      0.681624    71A      0.691009
      72A      0.696524    73A      0.708975    74A      0.720836
      75A      0.735292    76A      0.740248    77A      0.771140
      78A      0.777665    79A      0.791637    80A      0.797510
      81A      0.808171    82A      0.841639    83A      0.846391
      84A      0.851511    85A      0.869021    86A      0.882606
      87A      0.886473    88A      0.891285    89A      0.898013
      90A      0.899419    91A      0.905805    92A      0.918392
      93A      0.929612    94A      0.936981    95A      0.943269
      96A      0.947738    97A      0.951800    98A      0.972948
      99A      0.983463   100A      1.027946   101A      1.043974
     102A      1.054712   103A      1.115473   104A      1.124759
     105A      1.139060   106A      1.151062   107A      1.154828
     108A      1.184346   109A      1.228634   110A      1.236742
     111A      1.248854   112A      1.256933   113A      1.283722
     114A      1.295697   115A      1.301834   116A      1.315671
     117A      1.351508   118A      1.368248   119A      1.383598
     120A      1.395286   121A      1.471142   122A      1.474886
     123A      1.491525   124A      1.509037   125A      1.536205
     126A      1.568260   127A      1.594251   128A      1.618614
     129A      1.628515   130A      1.680074   131A      1.685167
     132A      1.701831   133A      1.713064   134A      1.739315
     135A      1.749584   136A      1.785368   137A      1.805943
     138A      1.814615   139A      1.864652   140A      1.875699
     141A      1.880613   142A      1.895204   143A      1.900810
     144A      1.911029   145A      1.913196   146A      1.924031
     147A      1.928625   148A      1.942326   149A      1.943606
     150A      1.946568   151A      1.957146   152A      1.966325
     153A      1.978722   154A      1.988784   155A      1.992884
     156A      2.020925   157A      2.051371   158A      2.055444
     159A      2.065559   160A      2.074766   161A      2.087653
     162A      2.106718   163A      2.117577   164A      2.156086
     165A      2.166787   166A      2.180088   167A      2.226088
     168A      2.236202   169A      2.276527   170A      2.290909
     171A      2.299840   172A      2.310483   173A      2.323246
     174A      2.338402   175A      2.375000   176A      2.436530
     177A      2.446299   178A      2.458415   179A      2.468298
     180A      2.492631   181A      2.504198   182A      2.539480
     183A      2.552509   184A      2.564738   185A      2.581349
     186A      2.610439   187A      2.649883   188A      2.762733
     189A      2.768677   190A      2.785494   191A      2.799302
     192A      2.807310   193A      2.836723   194A      2.847223
     195A      2.851353   196A      2.863568   197A      2.918392
     198A      2.953124   199A      2.965149   200A      2.976298
     201A      3.016863   202A      3.113588   203A      3.122527
     204A      3.248137   205A      3.307379   206A      3.349407
     207A      3.581538   208A      3.691786   209A      3.983306
     210A      4.197517

    Final Occupation by Irrep:
              A
    DOCC [    38 ]

  @RHF Final Energy:  -423.85624048797899

   => Energetics <=

    Nuclear Repulsion Energy =            487.3697750158186750
    One-Electron Energy =               -1540.5095397767331633
    Two-Electron Energy =                 629.2835242729354377
    Total Energy =                       -423.8562404879789938

Computation Completed

Properties will be evaluated at   0.000000,   0.000000,   0.000000 [a0]

Properties computed using the SCF density matrix

  Nuclear Dipole Moment: [e a0]
     X:    -5.6000      Y:   -11.0906      Z:    -9.4468

  Electronic Dipole Moment: [e a0]
     X:     6.0561      Y:    11.3839      Z:     9.5445

  Dipole Moment: [e a0]
     X:     0.4562      Y:     0.2933      Z:     0.0977     Total:     0.5510

  Dipole Moment: [D]
     X:     1.1594      Y:     0.7455      Z:     0.2483     Total:     1.4006

*** tstop() called on ds3 at Mon Apr 27 13:12:24 2020
Module time:
	user time   =      89.14 seconds =       1.49 minutes
	system time =      46.73 seconds =       0.78 minutes
	total time  =        130 seconds =       2.17 minutes
Total time:
	user time   =      89.14 seconds =       1.49 minutes
	system time =      46.73 seconds =       0.78 minutes
	total time  =        130 seconds =       2.17 minutes
                                     G D M A

                                 by Anthony Stone

                           version 2.2.06, 22 June 2011

               Distributed Multipoles from Gaussian wavefunctions

Starting at 13:12:24 on 27 Apr 2020

Using SCF density matrix from file ./SSI/SSI-009TYR-029THR-1-dimer.test.5623.fchk

                         Distributed Multipole Analysis

Standard DMA

Positions and radii in angstrom
Multipole moments in atomic units, ea_0^k for rank k

C          x =  2.839075  y = -0.478251  z = -1.278214 angstrom
           Maximum rank =  0   Radius =  0.650 angstrom
                   Q00  =  -0.191327

C          x = -0.427925  y =  0.164749  z =  0.489786 angstrom
           Maximum rank =  0   Radius =  0.650 angstrom
                   Q00  =  -0.097125

C          x = -0.109925  y =  1.256749  z =  1.282786 angstrom
           Maximum rank =  0   Radius =  0.650 angstrom
                   Q00  =   0.326512

C          x =  0.533075  y = -0.403251  z = -0.323214 angstrom
           Maximum rank =  0   Radius =  0.650 angstrom
                   Q00  =  -0.050010

C          x =  1.794075  y =  0.156749  z = -0.412214 angstrom
           Maximum rank =  0   Radius =  0.650 angstrom
                   Q00  =  -0.137955

C          x =  1.159075  y =  1.808749  z =  1.224786 angstrom
           Maximum rank =  0   Radius =  0.650 angstrom
                   Q00  =  -0.194965

C          x =  2.099075  y =  1.264749  z =  0.369786 angstrom
           Maximum rank =  0   Radius =  0.650 angstrom
                   Q00  =   0.049956

O          x = -1.064925  y =  1.753749  z =  2.112786 angstrom
           Maximum rank =  0   Radius =  0.650 angstrom
                   Q00  =  -0.675108

H          x = -1.415925  y = -0.261251  z =  0.548786 angstrom
           Maximum rank =  0   Radius =  0.325 angstrom
                   Q00  =   0.074923

H          x =  0.299075  y = -1.281251  z = -0.908214 angstrom
           Maximum rank =  0   Radius =  0.325 angstrom
                   Q00  =   0.062257

H          x =  1.411075  y =  2.653749  z =  1.846786 angstrom
           Maximum rank =  0   Radius =  0.325 angstrom
                   Q00  =   0.071570

H          x = -0.742925  y =  2.508749  z =  2.630786 angstrom
           Maximum rank =  0   Radius =  0.325 angstrom
                   Q00  =   0.406803

H          x =  3.486075  y =  0.305749  z = -1.662214 angstrom
           Maximum rank =  0   Radius =  0.325 angstrom
                   Q00  =   0.094685

H          x =  2.347075  y = -0.949251  z = -2.131214 angstrom
           Maximum rank =  0   Radius =  0.325 angstrom
                   Q00  =   0.093983

H          x =  3.089075  y =  1.698749  z =  0.320786 angstrom
           Maximum rank =  0   Radius =  0.325 angstrom
                   Q00  =   0.065529

H          x =  3.450125  y = -1.228113  z = -0.754454 angstrom
           Maximum rank =  0   Radius =  0.325 angstrom
                   Q00  =   0.099212

C          x = -2.231925  y = -2.545251  z = -1.509214 angstrom
           Maximum rank =  0   Radius =  0.650 angstrom
                   Q00  =  -0.241566

C          x = -3.733925  y = -2.568251  z = -1.813214 angstrom
           Maximum rank =  0   Radius =  0.650 angstrom
                   Q00  =  -0.238378

H          x = -1.753925  y = -3.472251  z = -1.807214 angstrom
           Maximum rank =  0   Radius =  0.325 angstrom
                   Q00  =   0.081292

H          x = -1.764925  y = -1.722251  z = -2.044214 angstrom
           Maximum rank =  0   Radius =  0.325 angstrom
                   Q00  =   0.078205

H          x = -2.073925  y = -2.398251  z = -0.441214 angstrom
           Maximum rank =  0   Radius =  0.325 angstrom
                   Q00  =   0.078295

H          x = -4.129925  y = -1.569251  z = -1.641214 angstrom
           Maximum rank =  0   Radius =  0.325 angstrom
                   Q00  =   0.082184

H          x = -4.266825  y = -3.290759  z = -1.177604 angstrom
           Maximum rank =  0   Radius =  0.325 angstrom
                   Q00  =   0.081496

H          x = -3.902155  y = -2.833717  z = -2.867364 angstrom
           Maximum rank =  0   Radius =  0.325 angstrom
                   Q00  =   0.079532

Total multipoles referred to origin at
           x =   0.000000,  y =    0.000000,  z =    0.000000 angstrom
                   Q00  =  -0.000000

Finished at 13:12:24 on 27 Apr 2020

  DMA results are available in the Python driver through the
	  variable('DMA DISTRIBUTED MULTIPOLES')
  and
	  variable('DMA TOTAL MULTIPOLES')
  commands.

    Psi4 stopped on: Monday, 27 April 2020 01:12PM
    Psi4 wall time for execution: 0:02:10.12

*** Psi4 exiting successfully. Buy a developer a beer!
