                               Psi4 1.3.2 release

  ==> Input File <==

--------------------------------------------------------------------------
import numpy as np
set {scf_type pk
basis cc-pvdz
d_convergence 10
gdma_switch   0
gdma_limit    0
gdma_origin   [ 0.0,  0.0,  0.0 ]
}
molecule test {
    units Angstrom
    0 1
    --
    0 1
    C                1.678407376825160     0.687382932382025    -2.865493788246117
    C                0.037407376825159     0.546382932382025     0.650506211753883
    C                0.233407376825159     0.799382932382025    -0.733493788246117
    C                1.025407376825159    -0.147617067617975     1.377506211753883
    C                1.395407376825159     0.366382932382025    -1.390493788246117
    C                2.184407376825160    -0.582617067617975     0.727506211753883
    C                2.357407376825159    -0.328617067617975    -0.646493788246117
    H               -0.861592623174841     0.884382932382025     1.155506211753883
    H               -0.514592623174840     1.336382932382026    -1.301493788246117
    H                0.895407376825159    -0.345617067617975     2.433506211753883
    H                2.946407376825159    -1.108617067617975     1.282506211753883
    H                2.495407376825160     0.038382932382025    -3.187493788246117
    H                2.025407376825159     1.722382932382025    -2.905493788246117
    H                3.251407376825159    -0.672617067617975    -1.150493788246117
    H                0.839937376825160     0.517882932382025    -3.557033788246117
    C               -3.322592623174840    -1.086617067617975     1.319506211753883
    C               -4.538592623174839    -0.147617067617975     1.462506211753883
    H               -3.542592623174841    -1.870617067617975     0.593506211753883
    H               -2.457592623174841    -0.522617067617975     0.986506211753883
    H               -3.086592623174841    -1.541617067617975     2.282506211753883
    H               -4.310592623174840     0.628382932382025     2.193506211753883
    H               -5.406744623174840    -0.726817067617975     1.810056211753883
    H               -4.783778623174840     0.393282932382025     0.536566211753883

}
e, wfn = energy('scf', return_wfn=True)
gdma(wfn)
dmavals = variable('DMA DISTRIBUTED MULTIPOLES')
charges = np.array(dmavals)
print(charges)
np.save('SSI-110PHE-123ILE-1-dimer.npy', np.array(charges))--------------------------------------------------------------------------

*** tstart() called on ds3
*** at Mon Apr 27 14:12:25 2020

   => Loading Basis Set <=

    Name: CC-PVDZ
    Role: ORBITAL
    Keyword: BASIS
    atoms 1-7, 16-17  entry C          line   138 file /theoryfs2/ds/metcalf/miniconda2/envs/tf2gpu/share/psi4/basis/cc-pvdz.gbs
    atoms 8-15, 18-23 entry H          line    22 file /theoryfs2/ds/metcalf/miniconda2/envs/tf2gpu/share/psi4/basis/cc-pvdz.gbs

         ---------------------------------------------------------
                                   SCF
               by Justin Turney, Rob Parrish, Andy Simmonett
                          and Daniel G. A. Smith
                              RHF Reference
                        1 Threads,    500 MiB Core
         ---------------------------------------------------------

  ==> Geometry <==

    Molecular point group: c1
    Full point group: C1

    Geometry (in Angstrom), charge = 0, multiplicity = 1:

       Center              X                  Y                   Z               Mass
    ------------   -----------------  -----------------  -----------------  -----------------
         C            1.678407376825     0.687382932382    -2.865493788246    12.000000000000
         C            0.037407376825     0.546382932382     0.650506211754    12.000000000000
         C            0.233407376825     0.799382932382    -0.733493788246    12.000000000000
         C            1.025407376825    -0.147617067618     1.377506211754    12.000000000000
         C            1.395407376825     0.366382932382    -1.390493788246    12.000000000000
         C            2.184407376825    -0.582617067618     0.727506211754    12.000000000000
         C            2.357407376825    -0.328617067618    -0.646493788246    12.000000000000
         H           -0.861592623175     0.884382932382     1.155506211754     1.007825032230
         H           -0.514592623175     1.336382932382    -1.301493788246     1.007825032230
         H            0.895407376825    -0.345617067618     2.433506211754     1.007825032230
         H            2.946407376825    -1.108617067618     1.282506211754     1.007825032230
         H            2.495407376825     0.038382932382    -3.187493788246     1.007825032230
         H            2.025407376825     1.722382932382    -2.905493788246     1.007825032230
         H            3.251407376825    -0.672617067618    -1.150493788246     1.007825032230
         H            0.839937376825     0.517882932382    -3.557033788246     1.007825032230
         C           -3.322592623175    -1.086617067618     1.319506211754    12.000000000000
         C           -4.538592623175    -0.147617067618     1.462506211754    12.000000000000
         H           -3.542592623175    -1.870617067618     0.593506211754     1.007825032230
         H           -2.457592623175    -0.522617067618     0.986506211754     1.007825032230
         H           -3.086592623175    -1.541617067618     2.282506211754     1.007825032230
         H           -4.310592623175     0.628382932382     2.193506211754     1.007825032230
         H           -5.406744623175    -0.726817067618     1.810056211754     1.007825032230
         H           -4.783778623175     0.393282932382     0.536566211754     1.007825032230

  Running in c1 symmetry.

  Rotational constants: A =      0.08165  B =      0.01966  C =      0.01685 [cm^-1]
  Rotational constants: A =   2447.76359  B =    589.52129  C =    505.19510 [MHz]
  Nuclear repulsion =  394.730601061745915

  Charge       = 0
  Multiplicity = 1
  Electrons    = 68
  Nalpha       = 34
  Nbeta        = 34

  ==> Algorithm <==

  SCF Algorithm Type is PK.
  DIIS enabled.
  MOM disabled.
  Fractional occupation disabled.
  Guess Type is SAD.
  Energy threshold   = 1.00e-06
  Density threshold  = 1.00e-10
  Integral threshold = 0.00e+00

  ==> Primary Basis <==

  Basis Set: CC-PVDZ
    Blend: CC-PVDZ
    Number of shells: 96
    Number of basis function: 196
    Number of Cartesian functions: 205
    Spherical Harmonics?: true
    Max angular momentum: 2

  ==> Pre-Iterations <==

   -------------------------------------------------------
    Irrep   Nso     Nmo     Nalpha   Nbeta   Ndocc  Nsocc
   -------------------------------------------------------
     A        196     196       0       0       0       0
   -------------------------------------------------------
    Total     196     196      34      34      34       0
   -------------------------------------------------------

  ==> Integral Setup <==

  Using integral reordering PK algorithm.
  Sizing the integral batches needed.
  Building batch lookup table.
   Calculation information:
      Number of atoms:                  23
      Number of AO shells:              96
      Number of primitives:            268
      Number of atomic orbitals:       205
      Number of basis functions:       196

      Integral cutoff                 1.00e-12
      Number of threads:                 1

	Batch   1 pq = [       0,    9405] index = [             0,44231715] size =     44231715
	Batch   2 pq = [    9405,   13301] index = [      44231715,88464951] size =     44233236
	Batch   3 pq = [   13301,   16290] index = [      88464951,132690195] size =     44225244
	Batch   4 pq = [   16290,   18810] index = [     132690195,176917455] size =     44227260
	Batch   5 pq = [   18810,   19306] index = [     176917455,186370471] size =      9453016
  Task number: 17
  Buffer size: 11059200
  Buffer per thread: 2
  We computed 8398006 shell quartets total.
  Whereas there are 10841496 unique shell quartets.

  ==> DiskJK: Disk-Based J/K Matrices <==

    J tasked:                  Yes
    K tasked:                  Yes
    wK tasked:                  No
    Memory [MiB]:              375
    Schwarz Cutoff:          1E-12

    OpenMP threads:              1

  Minimum eigenvalue in the overlap matrix is 3.3390855998E-04.
  Using Symmetric Orthogonalization.

  SCF Guess: Superposition of Atomic Densities via on-the-fly atomic UHF.

  ==> Iterations <==

                        Total Energy        Delta E     RMS |[F,P]|

   @RHF iter SAD:  -347.64336809251108   -3.47643e+02   0.00000e+00
   @RHF iter   1:  -348.77208250631338   -1.12871e+00   2.82369e-03 DIIS
   @RHF iter   2:  -348.95817850379183   -1.86096e-01   1.15185e-03 DIIS
   @RHF iter   3:  -348.98621546456707   -2.80370e-02   2.54092e-04 DIIS
   @RHF iter   4:  -348.98862227253102   -2.40681e-03   5.18037e-05 DIIS
   @RHF iter   5:  -348.98869190390792   -6.96314e-05   1.84387e-05 DIIS
   @RHF iter   6:  -348.98870017071818   -8.26681e-06   4.69222e-06 DIIS
   @RHF iter   7:  -348.98870079924689   -6.28529e-07   1.19802e-06 DIIS
   @RHF iter   8:  -348.98870084591539   -4.66685e-08   2.82324e-07 DIIS
   @RHF iter   9:  -348.98870085029205   -4.37666e-09   1.11364e-07 DIIS
   @RHF iter  10:  -348.98870085105972   -7.67670e-10   5.12002e-08 DIIS
   @RHF iter  11:  -348.98870085131426   -2.54545e-10   2.24674e-08 DIIS
   @RHF iter  12:  -348.98870085136917   -5.49107e-11   1.12150e-08 DIIS
   @RHF iter  13:  -348.98870085138287   -1.36993e-11   3.94081e-09 DIIS
   @RHF iter  14:  -348.98870085138611   -3.24007e-12   1.08924e-09 DIIS
   @RHF iter  15:  -348.98870085138566    4.54747e-13   3.46128e-10 DIIS
   @RHF iter  16:  -348.98870085138486    7.95808e-13   1.32849e-10 DIIS
   @RHF iter  17:  -348.98870085138549   -6.25278e-13   6.05875e-11 DIIS
  Energy and wave function converged.

  ==> Post-Iterations <==

    Orbital Energies [Eh]
    ---------------------

    Doubly Occupied:

       1A    -11.245811     2A    -11.242759     3A    -11.238786
       4A    -11.236714     5A    -11.235889     6A    -11.234329
       7A    -11.233920     8A    -11.219190     9A    -11.214702
      10A     -1.143921    11A     -1.039066    12A     -1.012693
      13A     -1.004293    14A     -0.929964    15A     -0.837714
      16A     -0.824270    17A     -0.792212    18A     -0.687758
      19A     -0.633442    20A     -0.624390    21A     -0.597685
      22A     -0.590543    23A     -0.579197    24A     -0.577230
      25A     -0.561159    26A     -0.533620    27A     -0.498522
      28A     -0.492269    29A     -0.483217    30A     -0.481856
      31A     -0.480792    32A     -0.477175    33A     -0.327407
      34A     -0.322545

    Virtual:

      35A      0.131084    36A      0.139088    37A      0.171963
      38A      0.190267    39A      0.206012    40A      0.227157
      41A      0.234344    42A      0.245141    43A      0.249635
      44A      0.261102    45A      0.263341    46A      0.270003
      47A      0.274738    48A      0.293961    49A      0.300139
      50A      0.335394    51A      0.365067    52A      0.371058
      53A      0.398575    54A      0.444697    55A      0.455788
      56A      0.471011    57A      0.491249    58A      0.561397
      59A      0.592192    60A      0.595565    61A      0.608691
      62A      0.609629    63A      0.635055    64A      0.664866
      65A      0.670224    66A      0.690726    67A      0.697955
      68A      0.712202    69A      0.716956    70A      0.732751
      71A      0.738870    72A      0.741332    73A      0.748577
      74A      0.766845    75A      0.772067    76A      0.801999
      77A      0.839313    78A      0.847876    79A      0.853906
      80A      0.859368    81A      0.871657    82A      0.887084
      83A      0.889528    84A      0.893282    85A      0.895265
      86A      0.898659    87A      0.904064    88A      0.917375
      89A      0.923805    90A      0.937382    91A      0.941179
      92A      0.954844    93A      0.981091    94A      0.994793
      95A      1.035042    96A      1.085697    97A      1.102121
      98A      1.122903    99A      1.127584   100A      1.141714
     101A      1.149608   102A      1.151256   103A      1.186215
     104A      1.222590   105A      1.229453   106A      1.242421
     107A      1.249652   108A      1.284844   109A      1.295285
     110A      1.303730   111A      1.313948   112A      1.345973
     113A      1.409909   114A      1.469090   115A      1.477700
     116A      1.498296   117A      1.518473   118A      1.547052
     119A      1.578694   120A      1.605377   121A      1.663341
     122A      1.686983   123A      1.693853   124A      1.700022
     125A      1.727791   126A      1.735583   127A      1.753749
     128A      1.783108   129A      1.803082   130A      1.839865
     131A      1.865442   132A      1.869930   133A      1.873350
     134A      1.880562   135A      1.886368   136A      1.898313
     137A      1.917390   138A      1.919898   139A      1.926420
     140A      1.928831   141A      1.938234   142A      1.947706
     143A      1.951089   144A      1.958438   145A      1.966452
     146A      1.973436   147A      1.993162   148A      1.997937
     149A      2.023900   150A      2.059685   151A      2.062479
     152A      2.086373   153A      2.104327   154A      2.117106
     155A      2.118913   156A      2.140803   157A      2.149314
     158A      2.154323   159A      2.175339   160A      2.251237
     161A      2.261465   162A      2.279255   163A      2.288707
     164A      2.304837   165A      2.313175   166A      2.321215
     167A      2.326700   168A      2.429119   169A      2.454390
     170A      2.464440   171A      2.466956   172A      2.482680
     173A      2.517335   174A      2.551944   175A      2.578419
     176A      2.617481   177A      2.717256   178A      2.735158
     179A      2.757285   180A      2.760976   181A      2.769859
     182A      2.799053   183A      2.807661   184A      2.828446
     185A      2.846897   186A      2.852946   187A      2.870999
     188A      2.948923   189A      2.956686   190A      2.971692
     191A      2.980313   192A      3.023026   193A      3.128345
     194A      3.158561   195A      3.269620   196A      3.905314

    Final Occupation by Irrep:
              A
    DOCC [    34 ]

  @RHF Final Energy:  -348.98870085138549

   => Energetics <=

    Nuclear Repulsion Energy =            394.7306010617459151
    One-Electron Energy =               -1252.1685292283154922
    Two-Electron Energy =                 508.4492273151840891
    Total Energy =                       -348.9887008513854880

Computation Completed

Properties will be evaluated at   0.000000,   0.000000,   0.000000 [a0]

Properties computed using the SCF density matrix

  Nuclear Dipole Moment: [e a0]
     X:   -11.7278      Y:    -1.1882      Z:     1.0989

  Electronic Dipole Moment: [e a0]
     X:    11.8316      Y:     1.2342      Z:    -1.2367

  Dipole Moment: [e a0]
     X:     0.1038      Y:     0.0460      Z:    -0.1378     Total:     0.1785

  Dipole Moment: [D]
     X:     0.2637      Y:     0.1170      Z:    -0.3503     Total:     0.4538

*** tstop() called on ds3 at Mon Apr 27 14:13:52 2020
Module time:
	user time   =      60.78 seconds =       1.01 minutes
	system time =      30.14 seconds =       0.50 minutes
	total time  =         87 seconds =       1.45 minutes
Total time:
	user time   =      60.78 seconds =       1.01 minutes
	system time =      30.14 seconds =       0.50 minutes
	total time  =         87 seconds =       1.45 minutes
                                     G D M A

                                 by Anthony Stone

                           version 2.2.06, 22 June 2011

               Distributed Multipoles from Gaussian wavefunctions

Starting at 14:13:52 on 27 Apr 2020

Using SCF density matrix from file ./SSI/SSI-110PHE-123ILE-1-dimer.test.8987.fchk

                         Distributed Multipole Analysis

Standard DMA

Positions and radii in angstrom
Multipole moments in atomic units, ea_0^k for rank k

C          x =  1.678407  y =  0.687383  z = -2.865494 angstrom
           Maximum rank =  0   Radius =  0.650 angstrom
                   Q00  =  -0.208252

C          x =  0.037407  y =  0.546383  z =  0.650506 angstrom
           Maximum rank =  0   Radius =  0.650 angstrom
                   Q00  =  -0.087954

C          x =  0.233407  y =  0.799383  z = -0.733494 angstrom
           Maximum rank =  0   Radius =  0.650 angstrom
                   Q00  =  -0.058681

C          x =  1.025407  y = -0.147617  z =  1.377506 angstrom
           Maximum rank =  0   Radius =  0.650 angstrom
                   Q00  =  -0.089032

C          x =  1.395407  y =  0.366383  z = -1.390494 angstrom
           Maximum rank =  0   Radius =  0.650 angstrom
                   Q00  =  -0.108213

C          x =  2.184407  y = -0.582617  z =  0.727506 angstrom
           Maximum rank =  0   Radius =  0.650 angstrom
                   Q00  =  -0.068239

C          x =  2.357407  y = -0.328617  z = -0.646494 angstrom
           Maximum rank =  0   Radius =  0.650 angstrom
                   Q00  =  -0.016433

H          x = -0.861593  y =  0.884383  z =  1.155506 angstrom
           Maximum rank =  0   Radius =  0.325 angstrom
                   Q00  =   0.071517

H          x = -0.514593  y =  1.336383  z = -1.301494 angstrom
           Maximum rank =  0   Radius =  0.325 angstrom
                   Q00  =   0.060740

H          x =  0.895407  y = -0.345617  z =  2.433506 angstrom
           Maximum rank =  0   Radius =  0.325 angstrom
                   Q00  =   0.065934

H          x =  2.946407  y = -1.108617  z =  1.282506 angstrom
           Maximum rank =  0   Radius =  0.325 angstrom
                   Q00  =   0.067696

H          x =  2.495407  y =  0.038383  z = -3.187494 angstrom
           Maximum rank =  0   Radius =  0.325 angstrom
                   Q00  =   0.096871

H          x =  2.025407  y =  1.722383  z = -2.905494 angstrom
           Maximum rank =  0   Radius =  0.325 angstrom
                   Q00  =   0.107114

H          x =  3.251407  y = -0.672617  z = -1.150494 angstrom
           Maximum rank =  0   Radius =  0.325 angstrom
                   Q00  =   0.059517

H          x =  0.839937  y =  0.517883  z = -3.557034 angstrom
           Maximum rank =  0   Radius =  0.325 angstrom
                   Q00  =   0.105615

C          x = -3.322593  y = -1.086617  z =  1.319506 angstrom
           Maximum rank =  0   Radius =  0.650 angstrom
                   Q00  =  -0.236076

C          x = -4.538593  y = -0.147617  z =  1.462506 angstrom
           Maximum rank =  0   Radius =  0.650 angstrom
                   Q00  =  -0.250149

H          x = -3.542593  y = -1.870617  z =  0.593506 angstrom
           Maximum rank =  0   Radius =  0.325 angstrom
                   Q00  =   0.081814

H          x = -2.457593  y = -0.522617  z =  0.986506 angstrom
           Maximum rank =  0   Radius =  0.325 angstrom
                   Q00  =   0.091504

H          x = -3.086593  y = -1.541617  z =  2.282506 angstrom
           Maximum rank =  0   Radius =  0.325 angstrom
                   Q00  =   0.079307

H          x = -4.310593  y =  0.628383  z =  2.193506 angstrom
           Maximum rank =  0   Radius =  0.325 angstrom
                   Q00  =   0.074728

H          x = -5.406745  y = -0.726817  z =  1.810056 angstrom
           Maximum rank =  0   Radius =  0.325 angstrom
                   Q00  =   0.080752

H          x = -4.783779  y =  0.393283  z =  0.536566 angstrom
           Maximum rank =  0   Radius =  0.325 angstrom
                   Q00  =   0.079920

Total multipoles referred to origin at
           x =   0.000000,  y =    0.000000,  z =    0.000000 angstrom
                   Q00  =  -0.000000

Finished at 14:13:52 on 27 Apr 2020

  DMA results are available in the Python driver through the
	  variable('DMA DISTRIBUTED MULTIPOLES')
  and
	  variable('DMA TOTAL MULTIPOLES')
  commands.

    Psi4 stopped on: Monday, 27 April 2020 02:13PM
    Psi4 wall time for execution: 0:01:27.74

*** Psi4 exiting successfully. Buy a developer a beer!
