                               Psi4 1.3.2 release

  ==> Input File <==

--------------------------------------------------------------------------
import numpy as np
set {scf_type pk
basis cc-pvdz
d_convergence 10
gdma_switch   0
gdma_limit    0
gdma_origin   [ 0.0,  0.0,  0.0 ]
}
molecule test {
    units Angstrom
    0 1
    --
    0 1
    C               -1.309409980125493     1.371856445965047    -0.357477703350385
    C               -1.211409980125493     2.418856445965047    -1.482477703350385
    C               -0.006409980125493     1.000856445965048     0.301522296649615
    C                0.997590019874507     0.365856445965047    -0.428477703350385
    C                0.263590019874507     1.306856445965047     1.622522296649615
    C                2.245590019874506     0.058856445965047     0.150522296649615
    C                1.499590019874507     1.031856445965047     2.200522296649615
    C                2.479590019874507     0.392856445965047     1.473522296649615
    O                3.697590019874507     0.178856445965047     2.051522296649615
    H               -2.003409980125493     1.738856445965047     0.400522296649615
    H               -1.737409980125493     0.464856445965047    -0.766477703350385
    H               -0.501409980125493     2.047856445965047    -2.223477703350385
    H                0.831590019874507     0.128856445965047    -1.469477703350385
    H               -0.495409980125493     1.791856445965047     2.218522296649615
    H                3.016590019874507    -0.416143554034953    -0.440477703350385
    H                1.690590019874507     1.306856445965047     3.228522296649615
    H                4.289590019874507    -0.281143554034953     1.441522296649615
    H               -0.876239980125493     3.387636445965047    -1.083568703350385
    H               -2.174969980125493     2.536576445965047    -1.999867703350385
    C               -2.609409980125493    -2.020143554034953    -1.487477703350385
    C               -3.815409980125493    -2.818143554034953    -0.986477703350385
    C               -1.789409980125493    -2.693143554034953    -2.548477703350385
    H               -2.966409980125493    -1.060143554034953    -1.852477703350385
    H               -1.954409980125493    -1.822143554034953    -0.640477703350385
    H               -3.468409980125494    -3.774143554034953    -0.585477703350385
    H               -1.373409980125493    -3.614143554034953    -2.136477703350385
    H               -2.413409980125493    -2.954143554034953    -3.402477703350385
    H               -4.525999980125493    -2.993873554034953    -1.807567703350385
    H               -4.274919980125493    -2.246453554034953    -0.166702703350385
    H               -0.983179980125493    -2.037853554034953    -2.909867703350385

}
e, wfn = energy('scf', return_wfn=True)
gdma(wfn)
dmavals = variable('DMA DISTRIBUTED MULTIPOLES')
charges = np.array(dmavals)
print(charges)
np.save('SSI-058TYR-062GLN-1-dimer.npy', np.array(charges))--------------------------------------------------------------------------

*** tstart() called on ds3
*** at Mon Apr 27 16:39:56 2020

   => Loading Basis Set <=

    Name: CC-PVDZ
    Role: ORBITAL
    Keyword: BASIS
    atoms 1-8, 20-22   entry C          line   138 file /theoryfs2/ds/metcalf/miniconda2/envs/tf2gpu/share/psi4/basis/cc-pvdz.gbs
    atoms 9            entry O          line   198 file /theoryfs2/ds/metcalf/miniconda2/envs/tf2gpu/share/psi4/basis/cc-pvdz.gbs
    atoms 10-19, 23-30 entry H          line    22 file /theoryfs2/ds/metcalf/miniconda2/envs/tf2gpu/share/psi4/basis/cc-pvdz.gbs

         ---------------------------------------------------------
                                   SCF
               by Justin Turney, Rob Parrish, Andy Simmonett
                          and Daniel G. A. Smith
                              RHF Reference
                        1 Threads,    500 MiB Core
         ---------------------------------------------------------

  ==> Geometry <==

    Molecular point group: c1
    Full point group: C1

    Geometry (in Angstrom), charge = 0, multiplicity = 1:

       Center              X                  Y                   Z               Mass
    ------------   -----------------  -----------------  -----------------  -----------------
         C           -1.309409980125     1.371856445965    -0.357477703350    12.000000000000
         C           -1.211409980125     2.418856445965    -1.482477703350    12.000000000000
         C           -0.006409980125     1.000856445965     0.301522296650    12.000000000000
         C            0.997590019875     0.365856445965    -0.428477703350    12.000000000000
         C            0.263590019875     1.306856445965     1.622522296650    12.000000000000
         C            2.245590019875     0.058856445965     0.150522296650    12.000000000000
         C            1.499590019875     1.031856445965     2.200522296650    12.000000000000
         C            2.479590019875     0.392856445965     1.473522296650    12.000000000000
         O            3.697590019875     0.178856445965     2.051522296650    15.994914619570
         H           -2.003409980125     1.738856445965     0.400522296650     1.007825032230
         H           -1.737409980125     0.464856445965    -0.766477703350     1.007825032230
         H           -0.501409980125     2.047856445965    -2.223477703350     1.007825032230
         H            0.831590019875     0.128856445965    -1.469477703350     1.007825032230
         H           -0.495409980125     1.791856445965     2.218522296650     1.007825032230
         H            3.016590019875    -0.416143554035    -0.440477703350     1.007825032230
         H            1.690590019875     1.306856445965     3.228522296650     1.007825032230
         H            4.289590019875    -0.281143554035     1.441522296650     1.007825032230
         H           -0.876239980125     3.387636445965    -1.083568703350     1.007825032230
         H           -2.174969980125     2.536576445965    -1.999867703350     1.007825032230
         C           -2.609409980125    -2.020143554035    -1.487477703350    12.000000000000
         C           -3.815409980125    -2.818143554035    -0.986477703350    12.000000000000
         C           -1.789409980125    -2.693143554035    -2.548477703350    12.000000000000
         H           -2.966409980125    -1.060143554035    -1.852477703350     1.007825032230
         H           -1.954409980125    -1.822143554035    -0.640477703350     1.007825032230
         H           -3.468409980125    -3.774143554035    -0.585477703350     1.007825032230
         H           -1.373409980125    -3.614143554035    -2.136477703350     1.007825032230
         H           -2.413409980125    -2.954143554035    -3.402477703350     1.007825032230
         H           -4.525999980125    -2.993873554035    -1.807567703350     1.007825032230
         H           -4.274919980125    -2.246453554035    -0.166702703350     1.007825032230
         H           -0.983179980125    -2.037853554035    -2.909867703350     1.007825032230

  Running in c1 symmetry.

  Rotational constants: A =      0.03801  B =      0.01215  C =      0.01075 [cm^-1]
  Rotational constants: A =   1139.52995  B =    364.13356  C =    322.17236 [MHz]
  Nuclear repulsion =  661.069796608319507

  Charge       = 0
  Multiplicity = 1
  Electrons    = 92
  Nalpha       = 46
  Nbeta        = 46

  ==> Algorithm <==

  SCF Algorithm Type is PK.
  DIIS enabled.
  MOM disabled.
  Fractional occupation disabled.
  Guess Type is SAD.
  Energy threshold   = 1.00e-06
  Density threshold  = 1.00e-10
  Integral threshold = 0.00e+00

  ==> Primary Basis <==

  Basis Set: CC-PVDZ
    Blend: CC-PVDZ
    Number of shells: 126
    Number of basis function: 258
    Number of Cartesian functions: 270
    Spherical Harmonics?: true
    Max angular momentum: 2

  ==> Pre-Iterations <==

   -------------------------------------------------------
    Irrep   Nso     Nmo     Nalpha   Nbeta   Ndocc  Nsocc
   -------------------------------------------------------
     A        258     258       0       0       0       0
   -------------------------------------------------------
    Total     258     258      46      46      46       0
   -------------------------------------------------------

  ==> Integral Setup <==

  Using integral reordering PK algorithm.
  Sizing the integral batches needed.
  Building batch lookup table.
   Calculation information:
      Number of atoms:                  30
      Number of AO shells:             126
      Number of primitives:            354
      Number of atomic orbitals:       270
      Number of basis functions:       258

      Integral cutoff                 1.00e-12
      Number of threads:                 1

	Batch   1 pq = [       0,    9405] index = [             0,44231715] size =     44231715
	Batch   2 pq = [    9405,   13301] index = [      44231715,88464951] size =     44233236
	Batch   3 pq = [   13301,   16290] index = [      88464951,132690195] size =     44225244
	Batch   4 pq = [   16290,   18810] index = [     132690195,176917455] size =     44227260
	Batch   5 pq = [   18810,   21030] index = [     176917455,221140965] size =     44223510
	Batch   6 pq = [   21030,   23037] index = [     221140965,265363203] size =     44222238
	Batch   7 pq = [   23037,   24883] index = [     265363203,309594286] size =     44231083
	Batch   8 pq = [   24883,   26601] index = [     309594286,353819901] size =     44225615
	Batch   9 pq = [   26601,   28214] index = [     353819901,398029005] size =     44209104
	Batch  10 pq = [   28214,   29740] index = [     398029005,442248670] size =     44219665
	Batch  11 pq = [   29740,   31191] index = [     442248670,486454836] size =     44206166
	Batch  12 pq = [   31191,   32578] index = [     486454836,530679331] size =     44224495
	Batch  13 pq = [   32578,   33411] index = [     530679331,558164166] size =     27484835
  Task number: 51
  Buffer size: 11059200
  Buffer per thread: 2
  We computed 27976942 shell quartets total.
  Whereas there are 32012001 unique shell quartets.

  ==> DiskJK: Disk-Based J/K Matrices <==

    J tasked:                  Yes
    K tasked:                  Yes
    wK tasked:                  No
    Memory [MiB]:              375
    Schwarz Cutoff:          1E-12

    OpenMP threads:              1

  Minimum eigenvalue in the overlap matrix is 3.0916368820E-04.
  Using Symmetric Orthogonalization.

  SCF Guess: Superposition of Atomic Densities via on-the-fly atomic UHF.

  ==> Iterations <==

                        Total Energy        Delta E     RMS |[F,P]|

   @RHF iter SAD:  -500.76671691511359   -5.00767e+02   0.00000e+00
   @RHF iter   1:  -501.61187776556142   -8.45161e-01   2.67887e-03 DIIS
   @RHF iter   2:  -501.87919864345537   -2.67321e-01   1.14941e-03 DIIS
   @RHF iter   3:  -501.92397581042854   -4.47772e-02   2.59826e-04 DIIS
   @RHF iter   4:  -501.92767300177837   -3.69719e-03   1.03441e-04 DIIS
   @RHF iter   5:  -501.92808633444577   -4.13333e-04   1.94963e-05 DIIS
   @RHF iter   6:  -501.92810859578771   -2.22613e-05   5.69273e-06 DIIS
   @RHF iter   7:  -501.92811050874866   -1.91296e-06   1.78392e-06 DIIS
   @RHF iter   8:  -501.92811073389146   -2.25143e-07   6.54842e-07 DIIS
   @RHF iter   9:  -501.92811076727980   -3.33883e-08   2.37290e-07 DIIS
   @RHF iter  10:  -501.92811077231562   -5.03582e-09   9.02488e-08 DIIS
   @RHF iter  11:  -501.92811077353781   -1.22219e-09   4.07349e-08 DIIS
   @RHF iter  12:  -501.92811077383851   -3.00702e-10   2.11512e-08 DIIS
   @RHF iter  13:  -501.92811077391042   -7.19069e-11   8.01073e-09 DIIS
   @RHF iter  14:  -501.92811077392139   -1.09708e-11   1.96705e-09 DIIS
   @RHF iter  15:  -501.92811077392338   -1.98952e-12   6.14383e-10 DIIS
   @RHF iter  16:  -501.92811077392446   -1.08002e-12   2.32702e-10 DIIS
   @RHF iter  17:  -501.92811077392025    4.20641e-12   1.04733e-10 DIIS
   @RHF iter  18:  -501.92811077391997    2.84217e-13   5.30298e-11 DIIS
  Energy and wave function converged.

  ==> Post-Iterations <==

    Orbital Energies [Eh]
    ---------------------

    Doubly Occupied:

       1A    -20.583134     2A    -11.296169     3A    -11.240388
       4A    -11.235569     5A    -11.234781     6A    -11.229633
       7A    -11.226469     8A    -11.226140     9A    -11.223830
      10A    -11.219300    11A    -11.217421    12A    -11.216252
      13A     -1.398402    14A     -1.153277    15A     -1.059947
      16A     -1.057448    17A     -1.014869    18A     -0.978261
      19A     -0.927922    20A     -0.861331    21A     -0.846407
      22A     -0.797303    23A     -0.788635    24A     -0.729802
      25A     -0.671515    26A     -0.642863    27A     -0.629992
      28A     -0.614114    29A     -0.599766    30A     -0.594465
      31A     -0.585722    32A     -0.581720    33A     -0.572990
      34A     -0.553233    35A     -0.543058    36A     -0.534330
      37A     -0.517567    38A     -0.499912    39A     -0.480028
      40A     -0.477694    41A     -0.475277    42A     -0.468708
      43A     -0.466562    44A     -0.458293    45A     -0.335728
      46A     -0.304563

    Virtual:

      47A      0.128609    48A      0.153207    49A      0.168732
      50A      0.180355    51A      0.193916    52A      0.204112
      53A      0.209209    54A      0.229333    55A      0.234884
      56A      0.241497    57A      0.248628    58A      0.253598
      59A      0.274730    60A      0.277105    61A      0.284785
      62A      0.294345    63A      0.297144    64A      0.303471
      65A      0.332448    66A      0.346462    67A      0.355200
      68A      0.382940    69A      0.390976    70A      0.421403
      71A      0.427407    72A      0.432505    73A      0.479627
      74A      0.492149    75A      0.498847    76A      0.520445
      77A      0.578275    78A      0.592443    79A      0.608946
      80A      0.611813    81A      0.614750    82A      0.615240
      83A      0.633018    84A      0.650916    85A      0.667581
      86A      0.675039    87A      0.691145    88A      0.712054
      89A      0.727915    90A      0.735636    91A      0.737684
      92A      0.742635    93A      0.754367    94A      0.767139
      95A      0.787709    96A      0.793522    97A      0.798553
      98A      0.808789    99A      0.814306   100A      0.840702
     101A      0.854874   102A      0.857536   103A      0.866571
     104A      0.877284   105A      0.881166   106A      0.887432
     107A      0.892699   108A      0.896258   109A      0.897021
     110A      0.899636   111A      0.903521   112A      0.906233
     113A      0.914357   114A      0.926815   115A      0.931660
     116A      0.941407   117A      0.944830   118A      0.958086
     119A      0.965422   120A      0.982999   121A      0.987979
     122A      0.998745   123A      1.011958   124A      1.031621
     125A      1.072869   126A      1.078948   127A      1.120270
     128A      1.122836   129A      1.140127   130A      1.157237
     131A      1.170063   132A      1.195949   133A      1.205614
     134A      1.221592   135A      1.247882   136A      1.265004
     137A      1.284010   138A      1.289256   139A      1.296257
     140A      1.309345   141A      1.316276   142A      1.347848
     143A      1.363871   144A      1.377058   145A      1.392724
     146A      1.420673   147A      1.442247   148A      1.475272
     149A      1.489626   150A      1.498275   151A      1.504801
     152A      1.521678   153A      1.537262   154A      1.579933
     155A      1.614617   156A      1.631033   157A      1.648232
     158A      1.674404   159A      1.678417   160A      1.686599
     161A      1.689940   162A      1.695752   163A      1.726744
     164A      1.745537   165A      1.773508   166A      1.800439
     167A      1.828285   168A      1.846012   169A      1.870326
     170A      1.873345   171A      1.881360   172A      1.884166
     173A      1.887480   174A      1.899588   175A      1.902797
     176A      1.906498   177A      1.908872   178A      1.920005
     179A      1.926687   180A      1.936965   181A      1.946099
     182A      1.955090   183A      1.956384   184A      1.968402
     185A      1.971784   186A      1.979403   187A      1.986888
     188A      1.990918   189A      1.998048   190A      2.009949
     191A      2.013142   192A      2.027858   193A      2.033184
     194A      2.044719   195A      2.065832   196A      2.070128
     197A      2.074407   198A      2.080406   199A      2.094040
     200A      2.122183   201A      2.139739   202A      2.153692
     203A      2.161381   204A      2.189463   205A      2.201325
     206A      2.229086   207A      2.260078   208A      2.271910
     209A      2.282268   210A      2.304297   211A      2.307837
     212A      2.315231   213A      2.326567   214A      2.340554
     215A      2.349833   216A      2.367934   217A      2.435997
     218A      2.452186   219A      2.465556   220A      2.480701
     221A      2.519288   222A      2.528140   223A      2.528475
     224A      2.540169   225A      2.555444   226A      2.595641
     227A      2.597764   228A      2.621603   229A      2.626877
     230A      2.636650   231A      2.646516   232A      2.750508
     233A      2.752831   234A      2.758925   235A      2.768548
     236A      2.781276   237A      2.790048   238A      2.808582
     239A      2.820384   240A      2.860636   241A      2.882435
     242A      2.919135   243A      2.931894   244A      2.959587
     245A      2.974196   246A      2.977885   247A      3.000583
     248A      3.046741   249A      3.074774   250A      3.101352
     251A      3.175259   252A      3.255293   253A      3.289655
     254A      3.343758   255A      3.576423   256A      3.684961
     257A      3.957124   258A      4.193969

    Final Occupation by Irrep:
              A
    DOCC [    46 ]

  @RHF Final Energy:  -501.92811077391997

   => Energetics <=

    Nuclear Repulsion Energy =            661.0697966083195070
    One-Electron Energy =               -1991.2542369752522973
    Two-Electron Energy =                 828.2563295930129925
    Total Energy =                       -501.9281107739199115

Computation Completed

Properties will be evaluated at   0.000000,   0.000000,   0.000000 [a0]

Properties computed using the SCF density matrix

  Nuclear Dipole Moment: [e a0]
     X:   -18.6572      Y:    -7.3084      Z:   -13.2983

  Electronic Dipole Moment: [e a0]
     X:    18.6522      Y:     7.1171      Z:    12.7675

  Dipole Moment: [e a0]
     X:    -0.0050      Y:    -0.1913      Z:    -0.5307     Total:     0.5642

  Dipole Moment: [D]
     X:    -0.0127      Y:    -0.4863      Z:    -1.3490     Total:     1.4340

*** tstop() called on ds3 at Mon Apr 27 16:44:59 2020
Module time:
	user time   =     221.44 seconds =       3.69 minutes
	system time =      96.80 seconds =       1.61 minutes
	total time  =        303 seconds =       5.05 minutes
Total time:
	user time   =     221.44 seconds =       3.69 minutes
	system time =      96.80 seconds =       1.61 minutes
	total time  =        303 seconds =       5.05 minutes
                                     G D M A

                                 by Anthony Stone

                           version 2.2.06, 22 June 2011

               Distributed Multipoles from Gaussian wavefunctions

Starting at 16:44:59 on 27 Apr 2020

Using SCF density matrix from file ./SSI/SSI-058TYR-062GLN-1-dimer.test.27629.fchk

                         Distributed Multipole Analysis

Standard DMA

Positions and radii in angstrom
Multipole moments in atomic units, ea_0^k for rank k

C          x = -1.309410  y =  1.371856  z = -0.357478 angstrom
           Maximum rank =  0   Radius =  0.650 angstrom
                   Q00  =  -0.034582

C          x = -1.211410  y =  2.418856  z = -1.482478 angstrom
           Maximum rank =  0   Radius =  0.650 angstrom
                   Q00  =  -0.241123

C          x = -0.006410  y =  1.000856  z =  0.301522 angstrom
           Maximum rank =  0   Radius =  0.650 angstrom
                   Q00  =  -0.144038

C          x =  0.997590  y =  0.365856  z = -0.428478 angstrom
           Maximum rank =  0   Radius =  0.650 angstrom
                   Q00  =  -0.043216

C          x =  0.263590  y =  1.306856  z =  1.622522 angstrom
           Maximum rank =  0   Radius =  0.650 angstrom
                   Q00  =   0.043569

C          x =  2.245590  y =  0.058856  z =  0.150522 angstrom
           Maximum rank =  0   Radius =  0.650 angstrom
                   Q00  =  -0.198554

C          x =  1.499590  y =  1.031856  z =  2.200522 angstrom
           Maximum rank =  0   Radius =  0.650 angstrom
                   Q00  =  -0.095815

C          x =  2.479590  y =  0.392856  z =  1.473522 angstrom
           Maximum rank =  0   Radius =  0.650 angstrom
                   Q00  =   0.308593

O          x =  3.697590  y =  0.178856  z =  2.051522 angstrom
           Maximum rank =  0   Radius =  0.650 angstrom
                   Q00  =  -0.672340

H          x = -2.003410  y =  1.738856  z =  0.400522 angstrom
           Maximum rank =  0   Radius =  0.325 angstrom
                   Q00  =   0.061477

H          x = -1.737410  y =  0.464856  z = -0.766478 angstrom
           Maximum rank =  0   Radius =  0.325 angstrom
                   Q00  =   0.078086

H          x = -0.501410  y =  2.047856  z = -2.223478 angstrom
           Maximum rank =  0   Radius =  0.325 angstrom
                   Q00  =   0.077734

H          x =  0.831590  y =  0.128856  z = -1.469478 angstrom
           Maximum rank =  0   Radius =  0.325 angstrom
                   Q00  =   0.069032

H          x = -0.495410  y =  1.791856  z =  2.218522 angstrom
           Maximum rank =  0   Radius =  0.325 angstrom
                   Q00  =   0.061418

H          x =  3.016590  y = -0.416144  z = -0.440478 angstrom
           Maximum rank =  0   Radius =  0.325 angstrom
                   Q00  =   0.073041

H          x =  1.690590  y =  1.306856  z =  3.228522 angstrom
           Maximum rank =  0   Radius =  0.325 angstrom
                   Q00  =   0.079299

H          x =  4.289590  y = -0.281144  z =  1.441522 angstrom
           Maximum rank =  0   Radius =  0.325 angstrom
                   Q00  =   0.404560

H          x = -0.876240  y =  3.387636  z = -1.083569 angstrom
           Maximum rank =  0   Radius =  0.325 angstrom
                   Q00  =   0.086221

H          x = -2.174970  y =  2.536576  z = -1.999868 angstrom
           Maximum rank =  0   Radius =  0.325 angstrom
                   Q00  =   0.084591

C          x = -2.609410  y = -2.020144  z = -1.487478 angstrom
           Maximum rank =  0   Radius =  0.650 angstrom
                   Q00  =  -0.073618

C          x = -3.815410  y = -2.818144  z = -0.986478 angstrom
           Maximum rank =  0   Radius =  0.650 angstrom
                   Q00  =  -0.246155

C          x = -1.789410  y = -2.693144  z = -2.548478 angstrom
           Maximum rank =  0   Radius =  0.650 angstrom
                   Q00  =  -0.225352

H          x = -2.966410  y = -1.060144  z = -1.852478 angstrom
           Maximum rank =  0   Radius =  0.325 angstrom
                   Q00  =   0.036623

H          x = -1.954410  y = -1.822144  z = -0.640478 angstrom
           Maximum rank =  0   Radius =  0.325 angstrom
                   Q00  =   0.043361

H          x = -3.468410  y = -3.774144  z = -0.585478 angstrom
           Maximum rank =  0   Radius =  0.325 angstrom
                   Q00  =   0.076839

H          x = -1.373410  y = -3.614144  z = -2.136478 angstrom
           Maximum rank =  0   Radius =  0.325 angstrom
                   Q00  =   0.075519

H          x = -2.413410  y = -2.954144  z = -3.402478 angstrom
           Maximum rank =  0   Radius =  0.325 angstrom
                   Q00  =   0.072283

H          x = -4.526000  y = -2.993874  z = -1.807568 angstrom
           Maximum rank =  0   Radius =  0.325 angstrom
                   Q00  =   0.078044

H          x = -4.274920  y = -2.246454  z = -0.166703 angstrom
           Maximum rank =  0   Radius =  0.325 angstrom
                   Q00  =   0.084580

H          x = -0.983180  y = -2.037854  z = -2.909868 angstrom
           Maximum rank =  0   Radius =  0.325 angstrom
                   Q00  =   0.079923

Total multipoles referred to origin at
           x =   0.000000,  y =    0.000000,  z =    0.000000 angstrom
                   Q00  =  -0.000000

Finished at 16:44:59 on 27 Apr 2020

  DMA results are available in the Python driver through the
	  variable('DMA DISTRIBUTED MULTIPOLES')
  and
	  variable('DMA TOTAL MULTIPOLES')
  commands.

    Psi4 stopped on: Monday, 27 April 2020 04:44PM
    Psi4 wall time for execution: 0:05:03.27

*** Psi4 exiting successfully. Buy a developer a beer!
