                               Psi4 1.3.2 release

  ==> Input File <==

--------------------------------------------------------------------------
import numpy as np
set {scf_type pk
basis cc-pvdz
d_convergence 10
gdma_switch   0
gdma_limit    0
gdma_origin   [ 0.0,  0.0,  0.0 ]
}
molecule test {
    units Angstrom
    0 1
    --
    0 1
    C               -2.257271182291974    -2.258504933508831     0.285483163872892
    C               -0.792271182291973    -0.101504933508830     0.397483163872892
    C               -2.021271182291973    -0.802504933508830     0.116483163872892
    C               -1.000271182291973     1.251495066491170     0.061483163872892
    C               -2.899271182291973     0.120495066491170    -0.331516836127108
    C                0.466728817708027    -0.499504933508830     0.854483163872892
    C                1.453728817708027     0.459495066491170     1.008483163872892
    C                1.208728817708027     1.798495066491170     0.689483163872892
    C               -0.013271182291973     2.213495066491169     0.220483163872892
    N               -2.295271182291973     1.351495066491170    -0.359516836127108
    H                0.655728817708027    -1.535504933508830     1.094483163872892
    H                2.434728817708026     0.165495066491170     1.358483163872892
    H                2.004728817708026     2.521495066491169     0.805483163872892
    H               -2.121271182291974    -2.500504933508831     1.339483163872892
    H               -1.487271182291973    -2.785504933508830    -0.278516836127108
    H               -3.921271182291973    -0.063504933508830    -0.636516836127108
    H               -2.765271182291974     2.217495066491169    -0.640516836127108
    H               -0.201271182291973     3.246495066491169    -0.032516836127108
    H               -3.242141182291973    -2.618014933508831    -0.047366836127108
    C                2.998728817708027    -1.749504933508830    -1.294516836127108
    C                4.401728817708026    -1.166504933508830    -1.202516836127108
    H                2.631728817708027    -2.066504933508830    -0.321516836127108
    H                2.321728817708027    -0.985504933508830    -1.675516836127108
    H                2.989728817708027    -2.597504933508830    -1.979516836127108
    H                4.398728817708026    -0.320504933508830    -0.514516836127108
    H                4.650728817708026    -0.792504933508830    -2.194516836127108
    H                5.133808817708026    -1.917354933508830    -0.870406836127108

}
e, wfn = energy('scf', return_wfn=True)
gdma(wfn)
dmavals = variable('DMA DISTRIBUTED MULTIPOLES')
charges = np.array(dmavals)
print(charges)
np.save('SSI-097TRP-213ILE-1-dimer.npy', np.array(charges))--------------------------------------------------------------------------

*** tstart() called on ds3
*** at Tue Apr 28 01:42:22 2020

   => Loading Basis Set <=

    Name: CC-PVDZ
    Role: ORBITAL
    Keyword: BASIS
    atoms 1-9, 20-21   entry C          line   138 file /theoryfs2/ds/metcalf/miniconda2/envs/tf2gpu/share/psi4/basis/cc-pvdz.gbs
    atoms 10           entry N          line   168 file /theoryfs2/ds/metcalf/miniconda2/envs/tf2gpu/share/psi4/basis/cc-pvdz.gbs
    atoms 11-19, 22-27 entry H          line    22 file /theoryfs2/ds/metcalf/miniconda2/envs/tf2gpu/share/psi4/basis/cc-pvdz.gbs

         ---------------------------------------------------------
                                   SCF
               by Justin Turney, Rob Parrish, Andy Simmonett
                          and Daniel G. A. Smith
                              RHF Reference
                        1 Threads,    500 MiB Core
         ---------------------------------------------------------

  ==> Geometry <==

    Molecular point group: c1
    Full point group: C1

    Geometry (in Angstrom), charge = 0, multiplicity = 1:

       Center              X                  Y                   Z               Mass
    ------------   -----------------  -----------------  -----------------  -----------------
         C           -2.257271182292    -2.258504933509     0.285483163873    12.000000000000
         C           -0.792271182292    -0.101504933509     0.397483163873    12.000000000000
         C           -2.021271182292    -0.802504933509     0.116483163873    12.000000000000
         C           -1.000271182292     1.251495066491     0.061483163873    12.000000000000
         C           -2.899271182292     0.120495066491    -0.331516836127    12.000000000000
         C            0.466728817708    -0.499504933509     0.854483163873    12.000000000000
         C            1.453728817708     0.459495066491     1.008483163873    12.000000000000
         C            1.208728817708     1.798495066491     0.689483163873    12.000000000000
         C           -0.013271182292     2.213495066491     0.220483163873    12.000000000000
         N           -2.295271182292     1.351495066491    -0.359516836127    14.003074004430
         H            0.655728817708    -1.535504933509     1.094483163873     1.007825032230
         H            2.434728817708     0.165495066491     1.358483163873     1.007825032230
         H            2.004728817708     2.521495066491     0.805483163873     1.007825032230
         H           -2.121271182292    -2.500504933509     1.339483163873     1.007825032230
         H           -1.487271182292    -2.785504933509    -0.278516836127     1.007825032230
         H           -3.921271182292    -0.063504933509    -0.636516836127     1.007825032230
         H           -2.765271182292     2.217495066491    -0.640516836127     1.007825032230
         H           -0.201271182292     3.246495066491    -0.032516836127     1.007825032230
         H           -3.242141182292    -2.618014933509    -0.047366836127     1.007825032230
         C            2.998728817708    -1.749504933509    -1.294516836127    12.000000000000
         C            4.401728817708    -1.166504933509    -1.202516836127    12.000000000000
         H            2.631728817708    -2.066504933509    -0.321516836127     1.007825032230
         H            2.321728817708    -0.985504933509    -1.675516836127     1.007825032230
         H            2.989728817708    -2.597504933509    -1.979516836127     1.007825032230
         H            4.398728817708    -0.320504933509    -0.514516836127     1.007825032230
         H            4.650728817708    -0.792504933509    -2.194516836127     1.007825032230
         H            5.133808817708    -1.917354933509    -0.870406836127     1.007825032230

  Running in c1 symmetry.

  Rotational constants: A =      0.04282  B =      0.01813  C =      0.01427 [cm^-1]
  Rotational constants: A =   1283.58246  B =    543.66707  C =    427.67997 [MHz]
  Nuclear repulsion =  656.794834842253181

  Charge       = 0
  Multiplicity = 1
  Electrons    = 88
  Nalpha       = 44
  Nbeta        = 44

  ==> Algorithm <==

  SCF Algorithm Type is PK.
  DIIS enabled.
  MOM disabled.
  Fractional occupation disabled.
  Guess Type is SAD.
  Energy threshold   = 1.00e-06
  Density threshold  = 1.00e-10
  Integral threshold = 0.00e+00

  ==> Primary Basis <==

  Basis Set: CC-PVDZ
    Blend: CC-PVDZ
    Number of shells: 117
    Number of basis function: 243
    Number of Cartesian functions: 255
    Spherical Harmonics?: true
    Max angular momentum: 2

  ==> Pre-Iterations <==

   -------------------------------------------------------
    Irrep   Nso     Nmo     Nalpha   Nbeta   Ndocc  Nsocc
   -------------------------------------------------------
     A        243     243       0       0       0       0
   -------------------------------------------------------
    Total     243     243      44      44      44       0
   -------------------------------------------------------

  ==> Integral Setup <==

  Using integral reordering PK algorithm.
  Sizing the integral batches needed.
  Building batch lookup table.
   Calculation information:
      Number of atoms:                  27
      Number of AO shells:             117
      Number of primitives:            339
      Number of atomic orbitals:       255
      Number of basis functions:       243

      Integral cutoff                 1.00e-12
      Number of threads:                 1

	Batch   1 pq = [       0,    9405] index = [             0,44231715] size =     44231715
	Batch   2 pq = [    9405,   13301] index = [      44231715,88464951] size =     44233236
	Batch   3 pq = [   13301,   16290] index = [      88464951,132690195] size =     44225244
	Batch   4 pq = [   16290,   18810] index = [     132690195,176917455] size =     44227260
	Batch   5 pq = [   18810,   21030] index = [     176917455,221140965] size =     44223510
	Batch   6 pq = [   21030,   23037] index = [     221140965,265363203] size =     44222238
	Batch   7 pq = [   23037,   24883] index = [     265363203,309594286] size =     44231083
	Batch   8 pq = [   24883,   26601] index = [     309594286,353819901] size =     44225615
	Batch   9 pq = [   26601,   28214] index = [     353819901,398029005] size =     44209104
	Batch  10 pq = [   28214,   29646] index = [     398029005,439457481] size =     41428476
  Task number: 40
  Buffer size: 11059200
  Buffer per thread: 2
  We computed 22214616 shell quartets total.
  Whereas there are 23829156 unique shell quartets.

  ==> DiskJK: Disk-Based J/K Matrices <==

    J tasked:                  Yes
    K tasked:                  Yes
    wK tasked:                  No
    Memory [MiB]:              375
    Schwarz Cutoff:          1E-12

    OpenMP threads:              1

  Minimum eigenvalue in the overlap matrix is 2.3989104105E-04.
  Using Symmetric Orthogonalization.

  SCF Guess: Superposition of Atomic Densities via on-the-fly atomic UHF.

  ==> Iterations <==

                        Total Energy        Delta E     RMS |[F,P]|

   @RHF iter SAD:  -479.17672627812254   -4.79177e+02   0.00000e+00
   @RHF iter   1:  -479.48335015262575   -3.06624e-01   2.63470e-03 DIIS
   @RHF iter   2:  -479.71985963962220   -2.36509e-01   1.17091e-03 DIIS
   @RHF iter   3:  -479.76260516982666   -4.27455e-02   2.99920e-04 DIIS
   @RHF iter   4:  -479.76636355021049   -3.75838e-03   1.38556e-04 DIIS
   @RHF iter   5:  -479.76700202310587   -6.38473e-04   2.01797e-05 DIIS
   @RHF iter   6:  -479.76703200055675   -2.99775e-05   9.30360e-06 DIIS
   @RHF iter   7:  -479.76703821760242   -6.21705e-06   3.88530e-06 DIIS
   @RHF iter   8:  -479.76704003445116   -1.81685e-06   1.52986e-06 DIIS
   @RHF iter   9:  -479.76704038451805   -3.50067e-07   6.79761e-07 DIIS
   @RHF iter  10:  -479.76704045365221   -6.91342e-08   3.07582e-07 DIIS
   @RHF iter  11:  -479.76704046974589   -1.60937e-08   1.12315e-07 DIIS
   @RHF iter  12:  -479.76704047182568   -2.07979e-09   3.51596e-08 DIIS
   @RHF iter  13:  -479.76704047196171   -1.36026e-10   8.96522e-09 DIIS
   @RHF iter  14:  -479.76704047196972   -8.01492e-12   3.45406e-09 DIIS
   @RHF iter  15:  -479.76704047197131   -1.59162e-12   1.82237e-09 DIIS
   @RHF iter  16:  -479.76704047197217   -8.52651e-13   8.62396e-10 DIIS
   @RHF iter  17:  -479.76704047196802    4.14957e-12   3.29508e-10 DIIS
   @RHF iter  18:  -479.76704047197518   -7.16227e-12   1.43390e-10 DIIS
   @RHF iter  19:  -479.76704047197592   -7.38964e-13   4.31689e-11 DIIS
  Energy and wave function converged.

  ==> Post-Iterations <==

    Orbital Energies [Eh]
    ---------------------

    Doubly Occupied:

       1A    -15.598786     2A    -11.262037     3A    -11.259992
       4A    -11.229745     5A    -11.228897     6A    -11.227530
       7A    -11.224701     8A    -11.219256     9A    -11.218203
      10A    -11.215156    11A    -11.211036    12A    -11.205639
      13A     -1.296439    14A     -1.131944    15A     -1.074687
      16A     -1.012860    17A     -0.999279    18A     -0.989531
      19A     -0.932049    20A     -0.841125    21A     -0.828452
      22A     -0.803049    23A     -0.753069    24A     -0.717978
      25A     -0.662209    26A     -0.644248    27A     -0.603545
      28A     -0.597070    29A     -0.594155    30A     -0.591241
      31A     -0.586588    32A     -0.571642    33A     -0.551466
      34A     -0.536813    35A     -0.526289    36A     -0.495578
      37A     -0.492869    38A     -0.479015    39A     -0.478069
      40A     -0.471860    41A     -0.462003    42A     -0.371283
      43A     -0.295294    44A     -0.276918

    Virtual:

      45A      0.127603    46A      0.168044    47A      0.178335
      48A      0.180991    49A      0.194463    50A      0.211992
      51A      0.220268    52A      0.232799    53A      0.235772
      54A      0.250848    55A      0.255871    56A      0.266164
      57A      0.275877    58A      0.281406    59A      0.283967
      60A      0.291420    61A      0.324667    62A      0.339673
      63A      0.374124    64A      0.385963    65A      0.403021
      66A      0.411165    67A      0.426600    68A      0.448712
      69A      0.474698    70A      0.483684    71A      0.501647
      72A      0.509695    73A      0.585217    74A      0.603927
      75A      0.608774    76A      0.613809    77A      0.619396
      78A      0.625430    79A      0.639207    80A      0.660707
      81A      0.663820    82A      0.691441    83A      0.698690
      84A      0.710588    85A      0.722023    86A      0.734329
      87A      0.739455    88A      0.744408    89A      0.748825
      90A      0.763539    91A      0.783406    92A      0.785954
      93A      0.796807    94A      0.813185    95A      0.816734
      96A      0.841485    97A      0.855550    98A      0.868197
      99A      0.879030   100A      0.884814   101A      0.886831
     102A      0.895432   103A      0.902648   104A      0.908711
     105A      0.911263   106A      0.912864   107A      0.931600
     108A      0.941342   109A      0.949713   110A      0.961509
     111A      0.964128   112A      0.985522   113A      0.987110
     114A      0.996122   115A      1.004295   116A      1.020217
     117A      1.065718   118A      1.071141   119A      1.089137
     120A      1.125121   121A      1.130320   122A      1.141003
     123A      1.146747   124A      1.163361   125A      1.174622
     126A      1.181754   127A      1.210337   128A      1.226682
     129A      1.228018   130A      1.234334   131A      1.246833
     132A      1.273567   133A      1.286775   134A      1.300221
     135A      1.303610   136A      1.329831   137A      1.337828
     138A      1.366393   139A      1.379177   140A      1.398833
     141A      1.441341   142A      1.483370   143A      1.500737
     144A      1.527147   145A      1.577214   146A      1.587748
     147A      1.590412   148A      1.596652   149A      1.637477
     150A      1.644657   151A      1.655968   152A      1.686533
     153A      1.687456   154A      1.695854   155A      1.715888
     156A      1.744055   157A      1.772411   158A      1.779500
     159A      1.798350   160A      1.813548   161A      1.827686
     162A      1.834444   163A      1.862535   164A      1.886173
     165A      1.890812   166A      1.892372   167A      1.901563
     168A      1.913123   169A      1.924370   170A      1.931288
     171A      1.941201   172A      1.943763   173A      1.958463
     174A      1.963755   175A      1.967171   176A      1.970206
     177A      1.980836   178A      1.985255   179A      1.996854
     180A      2.007928   181A      2.021825   182A      2.037754
     183A      2.044408   184A      2.083170   185A      2.090729
     186A      2.106214   187A      2.107170   188A      2.114071
     189A      2.121341   190A      2.134517   191A      2.148195
     192A      2.152282   193A      2.154004   194A      2.175126
     195A      2.189472   196A      2.229808   197A      2.234527
     198A      2.296802   199A      2.299699   200A      2.317083
     201A      2.322223   202A      2.332474   203A      2.340935
     204A      2.349616   205A      2.396434   206A      2.443765
     207A      2.456508   208A      2.468673   209A      2.472992
     210A      2.487641   211A      2.535313   212A      2.578531
     213A      2.584468   214A      2.591720   215A      2.609773
     216A      2.656161   217A      2.661978   218A      2.688116
     219A      2.709357   220A      2.772288   221A      2.776731
     222A      2.781845   223A      2.790819   224A      2.808492
     225A      2.813167   226A      2.816317   227A      2.863182
     228A      2.869589   229A      2.871911   230A      2.873736
     231A      2.913811   232A      2.971781   233A      2.977576
     234A      2.985668   235A      3.045658   236A      3.068262
     237A      3.099084   238A      3.134154   239A      3.217746
     240A      3.325409   241A      3.395288   242A      3.741403
     243A      3.970816

    Final Occupation by Irrep:
              A
    DOCC [    44 ]

  @RHF Final Energy:  -479.76704047197592

   => Energetics <=

    Nuclear Repulsion Energy =            656.7948348422531808
    One-Electron Energy =               -1951.5845536545130017
    Two-Electron Energy =                 815.0226783402838464
    Total Energy =                       -479.7670404719758608

Computation Completed

Properties will be evaluated at   0.000000,   0.000000,   0.000000 [a0]

Properties computed using the SCF density matrix

  Nuclear Dipole Moment: [e a0]
     X:    12.6467      Y:    -9.4086      Z:    -4.3052

  Electronic Dipole Moment: [e a0]
     X:   -13.3690      Y:     9.7939      Z:     4.0219

  Dipole Moment: [e a0]
     X:    -0.7223      Y:     0.3853      Z:    -0.2833     Total:     0.8663

  Dipole Moment: [D]
     X:    -1.8359      Y:     0.9793      Z:    -0.7201     Total:     2.2018

*** tstop() called on ds3 at Tue Apr 28 01:46:10 2020
Module time:
	user time   =     167.16 seconds =       2.79 minutes
	system time =      68.10 seconds =       1.14 minutes
	total time  =        228 seconds =       3.80 minutes
Total time:
	user time   =     167.16 seconds =       2.79 minutes
	system time =      68.10 seconds =       1.14 minutes
	total time  =        228 seconds =       3.80 minutes
                                     G D M A

                                 by Anthony Stone

                           version 2.2.06, 22 June 2011

               Distributed Multipoles from Gaussian wavefunctions

Starting at 1:46:10 on 28 Apr 2020

Using SCF density matrix from file ./SSI/SSI-097TRP-213ILE-1-dimer.test.9022.fchk

                         Distributed Multipole Analysis

Standard DMA

Positions and radii in angstrom
Multipole moments in atomic units, ea_0^k for rank k

C          x = -2.257271  y = -2.258505  z =  0.285483 angstrom
           Maximum rank =  0   Radius =  0.650 angstrom
                   Q00  =  -0.203951

C          x = -0.792271  y = -0.101505  z =  0.397483 angstrom
           Maximum rank =  0   Radius =  0.650 angstrom
                   Q00  =  -0.061999

C          x = -2.021271  y = -0.802505  z =  0.116483 angstrom
           Maximum rank =  0   Radius =  0.650 angstrom
                   Q00  =  -0.117600

C          x = -1.000271  y =  1.251495  z =  0.061483 angstrom
           Maximum rank =  0   Radius =  0.650 angstrom
                   Q00  =   0.254972

C          x = -2.899271  y =  0.120495  z = -0.331517 angstrom
           Maximum rank =  0   Radius =  0.650 angstrom
                   Q00  =   0.074300

C          x =  0.466729  y = -0.499505  z =  0.854483 angstrom
           Maximum rank =  0   Radius =  0.650 angstrom
                   Q00  =  -0.097929

C          x =  1.453729  y =  0.459495  z =  1.008483 angstrom
           Maximum rank =  0   Radius =  0.650 angstrom
                   Q00  =  -0.104289

C          x =  1.208729  y =  1.798495  z =  0.689483 angstrom
           Maximum rank =  0   Radius =  0.650 angstrom
                   Q00  =  -0.001843

C          x = -0.013271  y =  2.213495  z =  0.220483 angstrom
           Maximum rank =  0   Radius =  0.650 angstrom
                   Q00  =  -0.118754

N          x = -2.295271  y =  1.351495  z = -0.359517 angstrom
           Maximum rank =  0   Radius =  0.650 angstrom
                   Q00  =  -0.503449

H          x =  0.655729  y = -1.535505  z =  1.094483 angstrom
           Maximum rank =  0   Radius =  0.325 angstrom
                   Q00  =   0.071682

H          x =  2.434729  y =  0.165495  z =  1.358483 angstrom
           Maximum rank =  0   Radius =  0.325 angstrom
                   Q00  =   0.059175

H          x =  2.004729  y =  2.521495  z =  0.805483 angstrom
           Maximum rank =  0   Radius =  0.325 angstrom
                   Q00  =   0.062458

H          x = -2.121271  y = -2.500505  z =  1.339483 angstrom
           Maximum rank =  0   Radius =  0.325 angstrom
                   Q00  =   0.095908

H          x = -1.487271  y = -2.785505  z = -0.278517 angstrom
           Maximum rank =  0   Radius =  0.325 angstrom
                   Q00  =   0.096553

H          x = -3.921271  y = -0.063505  z = -0.636517 angstrom
           Maximum rank =  0   Radius =  0.325 angstrom
                   Q00  =   0.101771

H          x = -2.765271  y =  2.217495  z = -0.640517 angstrom
           Maximum rank =  0   Radius =  0.325 angstrom
                   Q00  =   0.214114

H          x = -0.201271  y =  3.246495  z = -0.032517 angstrom
           Maximum rank =  0   Radius =  0.325 angstrom
                   Q00  =   0.072103

H          x = -3.242141  y = -2.618015  z = -0.047367 angstrom
           Maximum rank =  0   Radius =  0.325 angstrom
                   Q00  =   0.105157

C          x =  2.998729  y = -1.749505  z = -1.294517 angstrom
           Maximum rank =  0   Radius =  0.650 angstrom
                   Q00  =  -0.233152

C          x =  4.401729  y = -1.166505  z = -1.202517 angstrom
           Maximum rank =  0   Radius =  0.650 angstrom
                   Q00  =  -0.226128

H          x =  2.631729  y = -2.066505  z = -0.321517 angstrom
           Maximum rank =  0   Radius =  0.325 angstrom
                   Q00  =   0.072862

H          x =  2.321729  y = -0.985505  z = -1.675517 angstrom
           Maximum rank =  0   Radius =  0.325 angstrom
                   Q00  =   0.088006

H          x =  2.989729  y = -2.597505  z = -1.979517 angstrom
           Maximum rank =  0   Radius =  0.325 angstrom
                   Q00  =   0.072243

H          x =  4.398729  y = -0.320505  z = -0.514517 angstrom
           Maximum rank =  0   Radius =  0.325 angstrom
                   Q00  =   0.075870

H          x =  4.650729  y = -0.792505  z = -2.194517 angstrom
           Maximum rank =  0   Radius =  0.325 angstrom
                   Q00  =   0.076283

H          x =  5.133809  y = -1.917355  z = -0.870407 angstrom
           Maximum rank =  0   Radius =  0.325 angstrom
                   Q00  =   0.075635

Total multipoles referred to origin at
           x =   0.000000,  y =    0.000000,  z =    0.000000 angstrom
                   Q00  =  -0.000000

Finished at 1:46:10 on 28 Apr 2020

  DMA results are available in the Python driver through the
	  variable('DMA DISTRIBUTED MULTIPOLES')
  and
	  variable('DMA TOTAL MULTIPOLES')
  commands.

    Psi4 stopped on: Tuesday, 28 April 2020 01:46AM
    Psi4 wall time for execution: 0:03:48.02

*** Psi4 exiting successfully. Buy a developer a beer!
