                               Psi4 1.3.2 release

  ==> Input File <==

--------------------------------------------------------------------------
import numpy as np
set {scf_type pk
basis cc-pvdz
d_convergence 10
gdma_switch   0
gdma_limit    0
gdma_origin   [ 0.0,  0.0,  0.0 ]
}
molecule test {
    units Angstrom
    0 1
    --
    0 1
    C                1.268814609444422    -0.327478187805947    -0.307780930905521
    C                2.533814609444423    -0.972478187805947     0.269219069094479
    C                0.139814609444423    -0.111478187805947     0.679219069094479
    C                0.368814609444423     0.290521812194053     2.002219069094479
    C               -1.175185390555577    -0.231478187805947     0.235219069094479
    C               -0.704185390555578     0.491521812194053     2.877219069094479
    C               -2.239185390555577    -0.030478187805947     1.102219069094479
    C               -2.010185390555577     0.327521812194053     2.424219069094479
    H                1.525814609444422     0.640521812194053    -0.738780930905521
    H                0.903814609444422    -0.961478187805947    -1.116780930905521
    H                2.961814609444423    -0.317478187805947     1.025219069094479
    H                1.370814609444422     0.449521812194053     2.362219069094479
    H               -1.377185390555578    -0.490478187805947    -0.792780930905521
    H               -0.530185390555577     0.787521812194053     3.899219069094479
    H               -3.251185390555577    -0.128478187805947     0.737219069094479
    H               -2.839185390555578     0.471521812194053     3.099219069094479
    H                3.254594609444423    -1.133406187805947    -0.546000930905521
    H                2.318074609444423    -1.955595187805947     0.712999069094479
    C                0.117814609444423    -0.283478187805947    -3.885780930905521
    C                1.041814609444423     0.912521812194053    -4.113780930905522
    H                0.703814609444422    -1.189478187805947    -3.745780930905521
    H               -0.482185390555578    -0.121478187805947    -2.990780930905521
    H               -0.548185390555577    -0.411478187805947    -4.737780930905521
    H                1.780814609444423     0.913521812194053    -3.311780930905521
    H                1.558754609444422     0.813000812194053    -5.079630930905521
    H                0.482754609444422     1.857197812194053    -4.042820930905521

}
e, wfn = energy('scf', return_wfn=True)
gdma(wfn)
dmavals = variable('DMA DISTRIBUTED MULTIPOLES')
charges = np.array(dmavals)
print(charges)
np.save('SSI-021PHE-076VAL-1-dimer.npy', np.array(charges))--------------------------------------------------------------------------

*** tstart() called on ds3
*** at Tue Apr 28 09:10:00 2020

   => Loading Basis Set <=

    Name: CC-PVDZ
    Role: ORBITAL
    Keyword: BASIS
    atoms 1-8, 19-20  entry C          line   138 file /theoryfs2/ds/metcalf/miniconda2/envs/tf2gpu/share/psi4/basis/cc-pvdz.gbs
    atoms 9-18, 21-26 entry H          line    22 file /theoryfs2/ds/metcalf/miniconda2/envs/tf2gpu/share/psi4/basis/cc-pvdz.gbs

         ---------------------------------------------------------
                                   SCF
               by Justin Turney, Rob Parrish, Andy Simmonett
                          and Daniel G. A. Smith
                              RHF Reference
                        1 Threads,    500 MiB Core
         ---------------------------------------------------------

  ==> Geometry <==

    Molecular point group: c1
    Full point group: C1

    Geometry (in Angstrom), charge = 0, multiplicity = 1:

       Center              X                  Y                   Z               Mass
    ------------   -----------------  -----------------  -----------------  -----------------
         C            1.268814609444    -0.327478187806    -0.307780930906    12.000000000000
         C            2.533814609444    -0.972478187806     0.269219069094    12.000000000000
         C            0.139814609444    -0.111478187806     0.679219069094    12.000000000000
         C            0.368814609444     0.290521812194     2.002219069094    12.000000000000
         C           -1.175185390556    -0.231478187806     0.235219069094    12.000000000000
         C           -0.704185390556     0.491521812194     2.877219069094    12.000000000000
         C           -2.239185390556    -0.030478187806     1.102219069094    12.000000000000
         C           -2.010185390556     0.327521812194     2.424219069094    12.000000000000
         H            1.525814609444     0.640521812194    -0.738780930906     1.007825032230
         H            0.903814609444    -0.961478187806    -1.116780930906     1.007825032230
         H            2.961814609444    -0.317478187806     1.025219069094     1.007825032230
         H            1.370814609444     0.449521812194     2.362219069094     1.007825032230
         H           -1.377185390556    -0.490478187806    -0.792780930906     1.007825032230
         H           -0.530185390556     0.787521812194     3.899219069094     1.007825032230
         H           -3.251185390556    -0.128478187806     0.737219069094     1.007825032230
         H           -2.839185390556     0.471521812194     3.099219069094     1.007825032230
         H            3.254594609444    -1.133406187806    -0.546000930906     1.007825032230
         H            2.318074609444    -1.955595187806     0.712999069094     1.007825032230
         C            0.117814609444    -0.283478187806    -3.885780930906    12.000000000000
         C            1.041814609444     0.912521812194    -4.113780930906    12.000000000000
         H            0.703814609444    -1.189478187806    -3.745780930906     1.007825032230
         H           -0.482185390556    -0.121478187806    -2.990780930906     1.007825032230
         H           -0.548185390556    -0.411478187806    -4.737780930906     1.007825032230
         H            1.780814609444     0.913521812194    -3.311780930906     1.007825032230
         H            1.558754609444     0.813000812194    -5.079630930906     1.007825032230
         H            0.482754609444     1.857197812194    -4.042820930906     1.007825032230

  Running in c1 symmetry.

  Rotational constants: A =      0.05994  B =      0.01958  C =      0.01580 [cm^-1]
  Rotational constants: A =   1797.00045  B =    587.14277  C =    473.72386 [MHz]
  Nuclear repulsion =  487.498438706424736

  Charge       = 0
  Multiplicity = 1
  Electrons    = 76
  Nalpha       = 38
  Nbeta        = 38

  ==> Algorithm <==

  SCF Algorithm Type is PK.
  DIIS enabled.
  MOM disabled.
  Fractional occupation disabled.
  Guess Type is SAD.
  Energy threshold   = 1.00e-06
  Density threshold  = 1.00e-10
  Integral threshold = 0.00e+00

  ==> Primary Basis <==

  Basis Set: CC-PVDZ
    Blend: CC-PVDZ
    Number of shells: 108
    Number of basis function: 220
    Number of Cartesian functions: 230
    Spherical Harmonics?: true
    Max angular momentum: 2

  ==> Pre-Iterations <==

   -------------------------------------------------------
    Irrep   Nso     Nmo     Nalpha   Nbeta   Ndocc  Nsocc
   -------------------------------------------------------
     A        220     220       0       0       0       0
   -------------------------------------------------------
    Total     220     220      38      38      38       0
   -------------------------------------------------------

  ==> Integral Setup <==

  Using integral reordering PK algorithm.
  Sizing the integral batches needed.
  Building batch lookup table.
   Calculation information:
      Number of atoms:                  26
      Number of AO shells:             108
      Number of primitives:            300
      Number of atomic orbitals:       230
      Number of basis functions:       220

      Integral cutoff                 1.00e-12
      Number of threads:                 1

	Batch   1 pq = [       0,    9405] index = [             0,44231715] size =     44231715
	Batch   2 pq = [    9405,   13301] index = [      44231715,88464951] size =     44233236
	Batch   3 pq = [   13301,   16290] index = [      88464951,132690195] size =     44225244
	Batch   4 pq = [   16290,   18810] index = [     132690195,176917455] size =     44227260
	Batch   5 pq = [   18810,   21030] index = [     176917455,221140965] size =     44223510
	Batch   6 pq = [   21030,   23037] index = [     221140965,265363203] size =     44222238
	Batch   7 pq = [   23037,   24310] index = [     265363203,295500205] size =     30137002
  Task number: 27
  Buffer size: 11059200
  Buffer per thread: 2
  We computed 15504546 shell quartets total.
  Whereas there are 17325441 unique shell quartets.

  ==> DiskJK: Disk-Based J/K Matrices <==

    J tasked:                  Yes
    K tasked:                  Yes
    wK tasked:                  No
    Memory [MiB]:              375
    Schwarz Cutoff:          1E-12

    OpenMP threads:              1

  Minimum eigenvalue in the overlap matrix is 3.0612200857E-04.
  Using Symmetric Orthogonalization.

  SCF Guess: Superposition of Atomic Densities via on-the-fly atomic UHF.

  ==> Iterations <==

                        Total Energy        Delta E     RMS |[F,P]|

   @RHF iter SAD:  -386.87824944794596   -3.86878e+02   0.00000e+00
   @RHF iter   1:  -387.77452935285595   -8.96280e-01   2.72299e-03 DIIS
   @RHF iter   2:  -387.99038238913317   -2.15853e-01   1.12415e-03 DIIS
   @RHF iter   3:  -388.02395450337519   -3.35721e-02   2.44540e-04 DIIS
   @RHF iter   4:  -388.02680292652201   -2.84842e-03   4.54076e-05 DIIS
   @RHF iter   5:  -388.02687192041219   -6.89939e-05   1.90931e-05 DIIS
   @RHF iter   6:  -388.02688287618719   -1.09558e-05   3.86364e-06 DIIS
   @RHF iter   7:  -388.02688346620988   -5.90023e-07   1.19909e-06 DIIS
   @RHF iter   8:  -388.02688351708616   -5.08763e-08   2.62995e-07 DIIS
   @RHF iter   9:  -388.02688352107180   -3.98563e-09   8.43598e-08 DIIS
   @RHF iter  10:  -388.02688352147464   -4.02849e-10   3.48641e-08 DIIS
   @RHF iter  11:  -388.02688352154962   -7.49765e-11   1.05941e-08 DIIS
   @RHF iter  12:  -388.02688352156002   -1.04023e-11   5.15396e-09 DIIS
   @RHF iter  13:  -388.02688352156196   -1.93268e-12   2.38244e-09 DIIS
   @RHF iter  14:  -388.02688352156429   -2.33058e-12   8.92928e-10 DIIS
   @RHF iter  15:  -388.02688352156270    1.59162e-12   3.05714e-10 DIIS
   @RHF iter  16:  -388.02688352156372   -1.02318e-12   8.20479e-11 DIIS
  Energy and wave function converged.

  ==> Post-Iterations <==

    Orbital Energies [Eh]
    ---------------------

    Doubly Occupied:

       1A    -11.239151     2A    -11.235263     3A    -11.233034
       4A    -11.230960     5A    -11.229901     6A    -11.229411
       7A    -11.228031     8A    -11.224474     9A    -11.221225
      10A    -11.219028    11A     -1.151976    12A     -1.061236
      13A     -1.021167    14A     -1.010715    15A     -0.981345
      16A     -0.865337    17A     -0.839125    18A     -0.821513
      19A     -0.783493    20A     -0.692211    21A     -0.636696
      22A     -0.629469    23A     -0.602683    24A     -0.602378
      25A     -0.600390    26A     -0.588854    27A     -0.577716
      28A     -0.532512    29A     -0.515496    30A     -0.505796
      31A     -0.502197    32A     -0.491854    33A     -0.486889
      34A     -0.480609    35A     -0.472178    36A     -0.466013
      37A     -0.330919    38A     -0.320578

    Virtual:

      39A      0.136351    40A      0.140020    41A      0.171802
      42A      0.191623    43A      0.197567    44A      0.214190
      45A      0.227498    46A      0.230834    47A      0.242941
      48A      0.254789    49A      0.259848    50A      0.267546
      51A      0.272259    52A      0.282195    53A      0.303266
      54A      0.308776    55A      0.332739    56A      0.360791
      57A      0.365307    58A      0.391103    59A      0.403391
      60A      0.423586    61A      0.451981    62A      0.477274
      63A      0.496055    64A      0.512063    65A      0.560301
      66A      0.585662    67A      0.594468    68A      0.597879
      69A      0.608461    70A      0.616678    71A      0.654627
      72A      0.667939    73A      0.686858    74A      0.697212
      75A      0.706330    76A      0.719927    77A      0.734091
      78A      0.736809    79A      0.741753    80A      0.747003
      81A      0.753170    82A      0.758871    83A      0.787914
      84A      0.809217    85A      0.831865    86A      0.846581
      87A      0.850075    88A      0.864177    89A      0.870804
      90A      0.875841    91A      0.879663    92A      0.888098
      93A      0.892110    94A      0.897177    95A      0.900090
      96A      0.907010    97A      0.922022    98A      0.928036
      99A      0.933404   100A      0.956560   101A      0.959744
     102A      0.976477   103A      0.982867   104A      0.999990
     105A      1.025853   106A      1.035337   107A      1.037662
     108A      1.078947   109A      1.123945   110A      1.124964
     111A      1.145667   112A      1.152653   113A      1.158862
     114A      1.179340   115A      1.185688   116A      1.226164
     117A      1.242183   118A      1.252123   119A      1.258002
     120A      1.284446   121A      1.298469   122A      1.312979
     123A      1.325399   124A      1.330695   125A      1.385438
     126A      1.414681   127A      1.471390   128A      1.479105
     129A      1.485995   130A      1.527389   131A      1.549407
     132A      1.573152   133A      1.590699   134A      1.606127
     135A      1.664553   136A      1.685466   137A      1.688188
     138A      1.723893   139A      1.742484   140A      1.744991
     141A      1.762582   142A      1.776323   143A      1.802552
     144A      1.822258   145A      1.855074   146A      1.858481
     147A      1.883336   148A      1.886729   149A      1.895883
     150A      1.904363   151A      1.905182   152A      1.909624
     153A      1.919332   154A      1.936060   155A      1.942555
     156A      1.943665   157A      1.944946   158A      1.948057
     159A      1.954071   160A      1.958541   161A      1.964871
     162A      1.980024   163A      1.991481   164A      2.011324
     165A      2.011856   166A      2.030134   167A      2.063962
     168A      2.067113   169A      2.079677   170A      2.094765
     171A      2.116511   172A      2.124801   173A      2.138035
     174A      2.161130   175A      2.166450   176A      2.171050
     177A      2.185613   178A      2.205821   179A      2.216339
     180A      2.264190   181A      2.275817   182A      2.292016
     183A      2.297675   184A      2.315863   185A      2.323421
     186A      2.343304   187A      2.371417   188A      2.418678
     189A      2.447419   190A      2.461128   191A      2.468403
     192A      2.481295   193A      2.535402   194A      2.558120
     195A      2.572153   196A      2.587096   197A      2.606925
     198A      2.641686   199A      2.739475   200A      2.746986
     201A      2.765931   202A      2.770099   203A      2.781509
     204A      2.796294   205A      2.806358   206A      2.843060
     207A      2.848066   208A      2.859583   209A      2.887815
     210A      2.928499   211A      2.956375   212A      2.964764
     213A      2.976871   214A      2.995511   215A      3.037226
     216A      3.060439   217A      3.178908   218A      3.208557
     219A      3.305810   220A      3.968647

    Final Occupation by Irrep:
              A
    DOCC [    38 ]

  @RHF Final Energy:  -388.02688352156372

   => Energetics <=

    Nuclear Repulsion Energy =            487.4984387064247358
    One-Electron Energy =               -1489.3269979223155133
    Two-Electron Energy =                 613.8016756943270593
    Total Energy =                       -388.0268835215637182

Computation Completed

Properties will be evaluated at   0.000000,   0.000000,   0.000000 [a0]

Properties computed using the SCF density matrix

  Nuclear Dipole Moment: [e a0]
     X:     7.3432      Y:    -0.7280      Z:   -14.3122

  Electronic Dipole Moment: [e a0]
     X:    -7.2403      Y:     0.7340      Z:    14.2102

  Dipole Moment: [e a0]
     X:     0.1028      Y:     0.0060      Z:    -0.1020     Total:     0.1450

  Dipole Moment: [D]
     X:     0.2614      Y:     0.0153      Z:    -0.2592     Total:     0.3684

*** tstop() called on ds3 at Tue Apr 28 09:14:13 2020
Module time:
	user time   =     109.09 seconds =       1.82 minutes
	system time =      47.43 seconds =       0.79 minutes
	total time  =        253 seconds =       4.22 minutes
Total time:
	user time   =     109.09 seconds =       1.82 minutes
	system time =      47.43 seconds =       0.79 minutes
	total time  =        253 seconds =       4.22 minutes
                                     G D M A

                                 by Anthony Stone

                           version 2.2.06, 22 June 2011

               Distributed Multipoles from Gaussian wavefunctions

Starting at 9:14:13 on 28 Apr 2020

Using SCF density matrix from file ./SSI/SSI-021PHE-076VAL-1-dimer.test.9683.fchk

                         Distributed Multipole Analysis

Standard DMA

Positions and radii in angstrom
Multipole moments in atomic units, ea_0^k for rank k

C          x =  1.268815  y = -0.327478  z = -0.307781 angstrom
           Maximum rank =  0   Radius =  0.650 angstrom
                   Q00  =  -0.056613

C          x =  2.533815  y = -0.972478  z =  0.269219 angstrom
           Maximum rank =  0   Radius =  0.650 angstrom
                   Q00  =  -0.245402

C          x =  0.139815  y = -0.111478  z =  0.679219 angstrom
           Maximum rank =  0   Radius =  0.650 angstrom
                   Q00  =  -0.100527

C          x =  0.368815  y =  0.290522  z =  2.002219 angstrom
           Maximum rank =  0   Radius =  0.650 angstrom
                   Q00  =  -0.111919

C          x = -1.175185  y = -0.231478  z =  0.235219 angstrom
           Maximum rank =  0   Radius =  0.650 angstrom
                   Q00  =   0.001336

C          x = -0.704185  y =  0.491522  z =  2.877219 angstrom
           Maximum rank =  0   Radius =  0.650 angstrom
                   Q00  =  -0.072191

C          x = -2.239185  y = -0.030478  z =  1.102219 angstrom
           Maximum rank =  0   Radius =  0.650 angstrom
                   Q00  =  -0.037281

C          x = -2.010185  y =  0.327522  z =  2.424219 angstrom
           Maximum rank =  0   Radius =  0.650 angstrom
                   Q00  =  -0.080624

H          x =  1.525815  y =  0.640522  z = -0.738781 angstrom
           Maximum rank =  0   Radius =  0.325 angstrom
                   Q00  =   0.080931

H          x =  0.903815  y = -0.961478  z = -1.116781 angstrom
           Maximum rank =  0   Radius =  0.325 angstrom
                   Q00  =   0.065370

H          x =  2.961815  y = -0.317478  z =  1.025219 angstrom
           Maximum rank =  0   Radius =  0.325 angstrom
                   Q00  =   0.083152

H          x =  1.370815  y =  0.449522  z =  2.362219 angstrom
           Maximum rank =  0   Radius =  0.325 angstrom
                   Q00  =   0.058360

H          x = -1.377185  y = -0.490478  z = -0.792781 angstrom
           Maximum rank =  0   Radius =  0.325 angstrom
                   Q00  =   0.055128

H          x = -0.530185  y =  0.787522  z =  3.899219 angstrom
           Maximum rank =  0   Radius =  0.325 angstrom
                   Q00  =   0.065066

H          x = -3.251185  y = -0.128478  z =  0.737219 angstrom
           Maximum rank =  0   Radius =  0.325 angstrom
                   Q00  =   0.062296

H          x = -2.839185  y =  0.471522  z =  3.099219 angstrom
           Maximum rank =  0   Radius =  0.325 angstrom
                   Q00  =   0.060784

H          x =  3.254595  y = -1.133406  z = -0.546001 angstrom
           Maximum rank =  0   Radius =  0.325 angstrom
                   Q00  =   0.087700

H          x =  2.318075  y = -1.955595  z =  0.712999 angstrom
           Maximum rank =  0   Radius =  0.325 angstrom
                   Q00  =   0.084663

C          x =  0.117815  y = -0.283478  z = -3.885781 angstrom
           Maximum rank =  0   Radius =  0.650 angstrom
                   Q00  =  -0.240271

C          x =  1.041815  y =  0.912522  z = -4.113781 angstrom
           Maximum rank =  0   Radius =  0.650 angstrom
                   Q00  =  -0.234833

H          x =  0.703815  y = -1.189478  z = -3.745781 angstrom
           Maximum rank =  0   Radius =  0.325 angstrom
                   Q00  =   0.078588

H          x = -0.482185  y = -0.121478  z = -2.990781 angstrom
           Maximum rank =  0   Radius =  0.325 angstrom
                   Q00  =   0.077061

H          x = -0.548185  y = -0.411478  z = -4.737781 angstrom
           Maximum rank =  0   Radius =  0.325 angstrom
                   Q00  =   0.080068

H          x =  1.780815  y =  0.913522  z = -3.311781 angstrom
           Maximum rank =  0   Radius =  0.325 angstrom
                   Q00  =   0.076747

H          x =  1.558755  y =  0.813001  z = -5.079631 angstrom
           Maximum rank =  0   Radius =  0.325 angstrom
                   Q00  =   0.080763

H          x =  0.482755  y =  1.857198  z = -4.042821 angstrom
           Maximum rank =  0   Radius =  0.325 angstrom
                   Q00  =   0.081652

Total multipoles referred to origin at
           x =   0.000000,  y =    0.000000,  z =    0.000000 angstrom
                   Q00  =  -0.000000

Finished at 9:14:14 on 28 Apr 2020

  DMA results are available in the Python driver through the
	  variable('DMA DISTRIBUTED MULTIPOLES')
  and
	  variable('DMA TOTAL MULTIPOLES')
  commands.

    Psi4 stopped on: Tuesday, 28 April 2020 09:14AM
    Psi4 wall time for execution: 0:04:13.64

*** Psi4 exiting successfully. Buy a developer a beer!
