                               Psi4 1.3.2 release

  ==> Input File <==

--------------------------------------------------------------------------
import numpy as np
set {scf_type pk
basis cc-pvdz
d_convergence 10
gdma_switch   0
gdma_limit    0
gdma_origin   [ 0.0,  0.0,  0.0 ]
}
molecule test {
    units Angstrom
    0 1
    --
    0 1
    C               -1.125711898154087     0.339651982033050     0.128617099139083
    C               -1.684711898154087     0.013651982033050     1.512617099139083
    C               -2.006711898154087     1.266651982033050    -0.707382900860916
    H               -0.164711898154087     0.831651982033050     0.260617099139083
    H               -0.961711898154087    -0.588348017966950    -0.424382900860917
    H               -2.671711898154087    -0.426348017966950     1.374617099139084
    H               -2.211711898154087     2.156651982033050    -0.124382900860917
    H               -1.764041898154087     0.924781982033050     2.123811099139083
    H               -1.071741898154087    -0.756008017966950     2.004444099139084
    H               -1.467531898154087     1.564181982033050    -1.618841900860917
    H               -2.961381898154087     0.786071982033050    -0.967484900860917
    C                2.144288101845913    -1.079348017966950    -1.135382900860916
    C                2.600288101845913    -0.514348017966950     0.209617099139083
    H                2.995288101845913    -1.480348017966950    -1.686382900860917
    H                1.428288101845913    -1.879348017966950    -0.954382900860916
    H                1.642288101845913    -0.317348017966950    -1.732382900860917
    H                1.744288101845913    -0.059348017966950     0.700617099139083
    H                3.374548101845913     0.257061982033050     0.085335099139083
    H                2.953798101845913    -1.325978017966950     0.862527099139083

}
e, wfn = energy('scf', return_wfn=True)
gdma(wfn)
dmavals = variable('DMA DISTRIBUTED MULTIPOLES')
charges = np.array(dmavals)
print(charges)
np.save('SSI-094LEU-132VAL-1-dimer.npy', np.array(charges))--------------------------------------------------------------------------

*** tstart() called on ds3
*** at Sun Apr 26 23:57:39 2020

   => Loading Basis Set <=

    Name: CC-PVDZ
    Role: ORBITAL
    Keyword: BASIS
    atoms 1-3, 12-13  entry C          line   138 file /theoryfs2/ds/metcalf/miniconda2/envs/tf2gpu/share/psi4/basis/cc-pvdz.gbs
    atoms 4-11, 14-19 entry H          line    22 file /theoryfs2/ds/metcalf/miniconda2/envs/tf2gpu/share/psi4/basis/cc-pvdz.gbs

         ---------------------------------------------------------
                                   SCF
               by Justin Turney, Rob Parrish, Andy Simmonett
                          and Daniel G. A. Smith
                              RHF Reference
                        1 Threads,    500 MiB Core
         ---------------------------------------------------------

  ==> Geometry <==

    Molecular point group: c1
    Full point group: C1

    Geometry (in Angstrom), charge = 0, multiplicity = 1:

       Center              X                  Y                   Z               Mass
    ------------   -----------------  -----------------  -----------------  -----------------
         C           -1.125711898154     0.339651982033     0.128617099139    12.000000000000
         C           -1.684711898154     0.013651982033     1.512617099139    12.000000000000
         C           -2.006711898154     1.266651982033    -0.707382900861    12.000000000000
         H           -0.164711898154     0.831651982033     0.260617099139     1.007825032230
         H           -0.961711898154    -0.588348017967    -0.424382900861     1.007825032230
         H           -2.671711898154    -0.426348017967     1.374617099139     1.007825032230
         H           -2.211711898154     2.156651982033    -0.124382900861     1.007825032230
         H           -1.764041898154     0.924781982033     2.123811099139     1.007825032230
         H           -1.071741898154    -0.756008017967     2.004444099139     1.007825032230
         H           -1.467531898154     1.564181982033    -1.618841900861     1.007825032230
         H           -2.961381898154     0.786071982033    -0.967484900861     1.007825032230
         C            2.144288101846    -1.079348017967    -1.135382900861    12.000000000000
         C            2.600288101846    -0.514348017967     0.209617099139    12.000000000000
         H            2.995288101846    -1.480348017967    -1.686382900861     1.007825032230
         H            1.428288101846    -1.879348017967    -0.954382900861     1.007825032230
         H            1.642288101846    -0.317348017967    -1.732382900861     1.007825032230
         H            1.744288101846    -0.059348017967     0.700617099139     1.007825032230
         H            3.374548101846     0.257061982033     0.085335099139     1.007825032230
         H            2.953798101846    -1.325978017967     0.862527099139     1.007825032230

  Running in c1 symmetry.

  Rotational constants: A =      0.19763  B =      0.04682  C =      0.04116 [cm^-1]
  Rotational constants: A =   5924.71659  B =   1403.68719  C =   1233.91455 [MHz]
  Nuclear repulsion =  180.786099099685345

  Charge       = 0
  Multiplicity = 1
  Electrons    = 44
  Nalpha       = 22
  Nbeta        = 22

  ==> Algorithm <==

  SCF Algorithm Type is PK.
  DIIS enabled.
  MOM disabled.
  Fractional occupation disabled.
  Guess Type is SAD.
  Energy threshold   = 1.00e-06
  Density threshold  = 1.00e-10
  Integral threshold = 0.00e+00

  ==> Primary Basis <==

  Basis Set: CC-PVDZ
    Blend: CC-PVDZ
    Number of shells: 72
    Number of basis function: 140
    Number of Cartesian functions: 145
    Spherical Harmonics?: true
    Max angular momentum: 2

  ==> Pre-Iterations <==

   -------------------------------------------------------
    Irrep   Nso     Nmo     Nalpha   Nbeta   Ndocc  Nsocc
   -------------------------------------------------------
     A        140     140       0       0       0       0
   -------------------------------------------------------
    Total     140     140      22      22      22       0
   -------------------------------------------------------

  ==> Integral Setup <==

  Using integral reordering PK algorithm.
  Sizing the integral batches needed.
  Building batch lookup table.
   Calculation information:
      Number of atoms:                  19
      Number of AO shells:              72
      Number of primitives:            180
      Number of atomic orbitals:       145
      Number of basis functions:       140

      Integral cutoff                 1.00e-12
      Number of threads:                 1

	Batch   1 pq = [       0,    9405] index = [             0,44231715] size =     44231715
	Batch   2 pq = [    9405,    9870] index = [      44231715,48713385] size =      4481670
  Task number: 5
  Buffer size: 11059200
  Buffer per thread: 2
  We computed 3016002 shell quartets total.
  Whereas there are 3454506 unique shell quartets.

  ==> DiskJK: Disk-Based J/K Matrices <==

    J tasked:                  Yes
    K tasked:                  Yes
    wK tasked:                  No
    Memory [MiB]:              375
    Schwarz Cutoff:          1E-12

    OpenMP threads:              1

  Minimum eigenvalue in the overlap matrix is 5.2914883958E-03.
  Using Symmetric Orthogonalization.

  SCF Guess: Superposition of Atomic Densities via on-the-fly atomic UHF.

  ==> Iterations <==

                        Total Energy        Delta E     RMS |[F,P]|

   @RHF iter SAD:  -196.37176232857894   -1.96372e+02   0.00000e+00
   @RHF iter   1:  -197.31150947592334   -9.39747e-01   3.79827e-03 DIIS
   @RHF iter   2:  -197.47159179863800   -1.60082e-01   1.63230e-03 DIIS
   @RHF iter   3:  -197.49978306256540   -2.81913e-02   3.25699e-04 DIIS
   @RHF iter   4:  -197.50200306104986   -2.22000e-03   4.94659e-05 DIIS
   @RHF iter   5:  -197.50204225010114   -3.91891e-05   1.51900e-05 DIIS
   @RHF iter   6:  -197.50204575109302   -3.50099e-06   2.28760e-06 DIIS
   @RHF iter   7:  -197.50204584916855   -9.80755e-08   4.46755e-07 DIIS
   @RHF iter   8:  -197.50204585309325   -3.92470e-09   1.20486e-07 DIIS
   @RHF iter   9:  -197.50204585336579   -2.72536e-10   3.54499e-08 DIIS
   @RHF iter  10:  -197.50204585339591   -3.01270e-11   7.93086e-09 DIIS
   @RHF iter  11:  -197.50204585339765   -1.73372e-12   1.54128e-09 DIIS
   @RHF iter  12:  -197.50204585339725    3.97904e-13   2.98934e-10 DIIS
   @RHF iter  13:  -197.50204585339725    0.00000e+00   4.80333e-11 DIIS
  Energy and wave function converged.

  ==> Post-Iterations <==

    Orbital Energies [Eh]
    ---------------------

    Doubly Occupied:

       1A    -11.219141     2A    -11.218030     3A    -11.217776
       4A    -11.217139     5A    -11.216573     6A     -1.054099
       7A     -1.017671     8A     -0.925445     9A     -0.837016
      10A     -0.795801    11A     -0.628503    12A     -0.602502
      13A     -0.597007    14A     -0.589287    15A     -0.548743
      16A     -0.534573    17A     -0.500801    18A     -0.487846
      19A     -0.485434    20A     -0.473089    21A     -0.468907
      22A     -0.462568

    Virtual:

      23A      0.168780    24A      0.197869    25A      0.208725
      26A      0.220768    27A      0.241677    28A      0.250316
      29A      0.256919    30A      0.266821    31A      0.273557
      32A      0.285551    33A      0.301638    34A      0.306058
      35A      0.321000    36A      0.349390    37A      0.379552
      38A      0.402528    39A      0.433802    40A      0.562730
      41A      0.579091    42A      0.597913    43A      0.605612
      44A      0.607569    45A      0.620121    46A      0.625113
      47A      0.688354    48A      0.694767    49A      0.772154
      50A      0.780343    51A      0.811583    52A      0.846505
      53A      0.854440    54A      0.877746    55A      0.884487
      56A      0.890528    57A      0.892765    58A      0.899463
      59A      0.904121    60A      0.908839    61A      0.916422
      62A      0.922704    63A      0.931021    64A      0.952510
      65A      0.957348    66A      0.977496    67A      1.001497
      68A      1.010709    69A      1.119419    70A      1.127900
      71A      1.136913    72A      1.150599    73A      1.206411
      74A      1.262716    75A      1.380021    76A      1.468034
      77A      1.471745    78A      1.476782    79A      1.479237
      80A      1.555569    81A      1.566873    82A      1.631182
      83A      1.674455    84A      1.683557    85A      1.692623
      86A      1.696923    87A      1.708327    88A      1.854772
      89A      1.861728    90A      1.873201    91A      1.882370
      92A      1.887182    93A      1.903529    94A      1.909786
      95A      1.917608    96A      1.941144    97A      1.944958
      98A      1.952200    99A      1.956425   100A      1.965561
     101A      1.971595   102A      1.981440   103A      1.992220
     104A      1.998444   105A      2.012408   106A      2.027215
     107A      2.040913   108A      2.113631   109A      2.121092
     110A      2.136768   111A      2.160653   112A      2.281966
     113A      2.285682   114A      2.312367   115A      2.317898
     116A      2.330626   117A      2.350478   118A      2.450162
     119A      2.461040   120A      2.502919   121A      2.527589
     122A      2.563017   123A      2.580937   124A      2.591403
     125A      2.609784   126A      2.637235   127A      2.749332
     128A      2.755080   129A      2.769219   130A      2.789273
     131A      2.796393   132A      2.808617   133A      2.860294
     134A      2.864612   135A      2.908873   136A      2.951675
     137A      2.958247   138A      2.968693   139A      2.977850
     140A      3.074228

    Final Occupation by Irrep:
              A
    DOCC [    22 ]

  @RHF Final Energy:  -197.50204585339725

   => Energetics <=

    Nuclear Repulsion Energy =            180.7860990996853445
    One-Electron Energy =                -622.3803909841108180
    Two-Electron Energy =                 244.0922460310282531
    Total Energy =                       -197.5020458533972487

Computation Completed

Properties will be evaluated at   0.000000,   0.000000,   0.000000 [a0]

Properties computed using the SCF density matrix

  Nuclear Dipole Moment: [e a0]
     X:     0.8099      Y:    -0.2931      Z:    -0.0903

  Electronic Dipole Moment: [e a0]
     X:    -0.8092      Y:     0.2847      Z:     0.0838

  Dipole Moment: [e a0]
     X:     0.0007      Y:    -0.0084      Z:    -0.0064     Total:     0.0106

  Dipole Moment: [D]
     X:     0.0019      Y:    -0.0213      Z:    -0.0163     Total:     0.0269

*** tstop() called on ds3 at Sun Apr 26 23:58:08 2020
Module time:
	user time   =      14.92 seconds =       0.25 minutes
	system time =       5.39 seconds =       0.09 minutes
	total time  =         29 seconds =       0.48 minutes
Total time:
	user time   =      14.92 seconds =       0.25 minutes
	system time =       5.39 seconds =       0.09 minutes
	total time  =         29 seconds =       0.48 minutes
                                     G D M A

                                 by Anthony Stone

                           version 2.2.06, 22 June 2011

               Distributed Multipoles from Gaussian wavefunctions

Starting at 23:58:8 on 26 Apr 2020

Using SCF density matrix from file ./SSI/SSI-094LEU-132VAL-1-dimer.test.5908.fchk

                         Distributed Multipole Analysis

Standard DMA

Positions and radii in angstrom
Multipole moments in atomic units, ea_0^k for rank k

C          x = -1.125712  y =  0.339652  z =  0.128617 angstrom
           Maximum rank =  0   Radius =  0.650 angstrom
                   Q00  =  -0.092244

C          x = -1.684712  y =  0.013652  z =  1.512617 angstrom
           Maximum rank =  0   Radius =  0.650 angstrom
                   Q00  =  -0.237038

C          x = -2.006712  y =  1.266652  z = -0.707383 angstrom
           Maximum rank =  0   Radius =  0.650 angstrom
                   Q00  =  -0.232601

H          x = -0.164712  y =  0.831652  z =  0.260617 angstrom
           Maximum rank =  0   Radius =  0.325 angstrom
                   Q00  =   0.040372

H          x = -0.961712  y = -0.588348  z = -0.424383 angstrom
           Maximum rank =  0   Radius =  0.325 angstrom
                   Q00  =   0.047550

H          x = -2.671712  y = -0.426348  z =  1.374617 angstrom
           Maximum rank =  0   Radius =  0.325 angstrom
                   Q00  =   0.074220

H          x = -2.211712  y =  2.156652  z = -0.124383 angstrom
           Maximum rank =  0   Radius =  0.325 angstrom
                   Q00  =   0.076117

H          x = -1.764042  y =  0.924782  z =  2.123811 angstrom
           Maximum rank =  0   Radius =  0.325 angstrom
                   Q00  =   0.079115

H          x = -1.071742  y = -0.756008  z =  2.004444 angstrom
           Maximum rank =  0   Radius =  0.325 angstrom
                   Q00  =   0.084771

H          x = -1.467532  y =  1.564182  z = -1.618842 angstrom
           Maximum rank =  0   Radius =  0.325 angstrom
                   Q00  =   0.083836

H          x = -2.961382  y =  0.786072  z = -0.967485 angstrom
           Maximum rank =  0   Radius =  0.325 angstrom
                   Q00  =   0.077305

C          x =  2.144288  y = -1.079348  z = -1.135383 angstrom
           Maximum rank =  0   Radius =  0.650 angstrom
                   Q00  =  -0.247176

C          x =  2.600288  y = -0.514348  z =  0.209617 angstrom
           Maximum rank =  0   Radius =  0.650 angstrom
                   Q00  =  -0.231213

H          x =  2.995288  y = -1.480348  z = -1.686383 angstrom
           Maximum rank =  0   Radius =  0.325 angstrom
                   Q00  =   0.079785

H          x =  1.428288  y = -1.879348  z = -0.954383 angstrom
           Maximum rank =  0   Radius =  0.325 angstrom
                   Q00  =   0.078309

H          x =  1.642288  y = -0.317348  z = -1.732383 angstrom
           Maximum rank =  0   Radius =  0.325 angstrom
                   Q00  =   0.080057

H          x =  1.744288  y = -0.059348  z =  0.700617 angstrom
           Maximum rank =  0   Radius =  0.325 angstrom
                   Q00  =   0.081590

H          x =  3.374548  y =  0.257062  z =  0.085335 angstrom
           Maximum rank =  0   Radius =  0.325 angstrom
                   Q00  =   0.079147

H          x =  2.953798  y = -1.325978  z =  0.862527 angstrom
           Maximum rank =  0   Radius =  0.325 angstrom
                   Q00  =   0.078097

Total multipoles referred to origin at
           x =   0.000000,  y =    0.000000,  z =    0.000000 angstrom
                   Q00  =  -0.000000

Finished at 23:58:8 on 26 Apr 2020

  DMA results are available in the Python driver through the
	  variable('DMA DISTRIBUTED MULTIPOLES')
  and
	  variable('DMA TOTAL MULTIPOLES')
  commands.

    Psi4 stopped on: Sunday, 26 April 2020 11:58PM
    Psi4 wall time for execution: 0:00:29.05

*** Psi4 exiting successfully. Buy a developer a beer!
