                               Psi4 1.3.2 release

  ==> Input File <==

--------------------------------------------------------------------------
import numpy as np
set {scf_type pk
basis cc-pvdz
d_convergence 10
gdma_switch   0
gdma_limit    0
gdma_origin   [ 0.0,  0.0,  0.0 ]
}
molecule test {
    units Angstrom
    0 1
    --
    0 1
    C               -2.123593341646928    -1.106295591864183    -2.114199221841644
    C               -1.769593341646928    -2.250295591864183    -3.071199221841645
    H               -2.271593341646928    -1.477295591864183    -1.101199221841644
    H               -1.320593341646928    -0.372295591864183    -2.100199221841645
    H               -3.008593341646928    -0.559295591864183    -2.441199221841644
    H               -1.650593341646928    -1.828295591864183    -4.070199221841644
    H               -2.569463341646928    -3.005205591864183    -3.089037221841644
    H               -0.826353341646928    -2.729085591864183    -2.769447221841645
    C                0.801406658353072    -1.363295591864183     2.999800778158356
    C               -0.707593341646928     0.933704408135817     0.357800778158355
    C               -0.587593341646928     0.052704408135817     1.439800778158355
    C                0.432406658353072     1.326704408135817    -0.343199221841645
    C                0.665406658353072    -0.435295591864183     1.821800778158355
    C                1.684406658353072     0.848704408135817     0.033800778158356
    C                1.796406658353072    -0.028295591864183     1.109800778158355
    O                0.332406658353072     2.180704408135817    -1.403199221841644
    H               -1.676593341646928     1.311704408135817     0.069800778158356
    H               -1.472593341646928    -0.246295591864183     1.986800778158355
    H               -0.582593341646928     2.431704408135817    -1.572199221841645
    H                2.562406658353072     1.173704408135817    -0.497199221841645
    H                1.688406658353072    -1.982295591864183     2.875800778158356
    H               -0.065593341646928    -2.026295591864183     3.017800778158356
    H                2.771406658353072    -0.394295591864183     1.395800778158355
    H                0.864746658353072    -0.834255591864183     3.962145778158356

}
e, wfn = energy('scf', return_wfn=True)
gdma(wfn)
dmavals = variable('DMA DISTRIBUTED MULTIPOLES')
charges = np.array(dmavals)
print(charges)
np.save('SSI-039ILE-055TYR-1-dimer.npy', np.array(charges))--------------------------------------------------------------------------

*** tstart() called on ds3
*** at Mon Apr 27 13:24:13 2020

   => Loading Basis Set <=

    Name: CC-PVDZ
    Role: ORBITAL
    Keyword: BASIS
    atoms 1-2, 9-15  entry C          line   138 file /theoryfs2/ds/metcalf/miniconda2/envs/tf2gpu/share/psi4/basis/cc-pvdz.gbs
    atoms 3-8, 17-24 entry H          line    22 file /theoryfs2/ds/metcalf/miniconda2/envs/tf2gpu/share/psi4/basis/cc-pvdz.gbs
    atoms 16         entry O          line   198 file /theoryfs2/ds/metcalf/miniconda2/envs/tf2gpu/share/psi4/basis/cc-pvdz.gbs

         ---------------------------------------------------------
                                   SCF
               by Justin Turney, Rob Parrish, Andy Simmonett
                          and Daniel G. A. Smith
                              RHF Reference
                        1 Threads,    500 MiB Core
         ---------------------------------------------------------

  ==> Geometry <==

    Molecular point group: c1
    Full point group: C1

    Geometry (in Angstrom), charge = 0, multiplicity = 1:

       Center              X                  Y                   Z               Mass
    ------------   -----------------  -----------------  -----------------  -----------------
         C           -2.123593341647    -1.106295591864    -2.114199221842    12.000000000000
         C           -1.769593341647    -2.250295591864    -3.071199221842    12.000000000000
         H           -2.271593341647    -1.477295591864    -1.101199221842     1.007825032230
         H           -1.320593341647    -0.372295591864    -2.100199221842     1.007825032230
         H           -3.008593341647    -0.559295591864    -2.441199221842     1.007825032230
         H           -1.650593341647    -1.828295591864    -4.070199221842     1.007825032230
         H           -2.569463341647    -3.005205591864    -3.089037221842     1.007825032230
         H           -0.826353341647    -2.729085591864    -2.769447221842     1.007825032230
         C            0.801406658353    -1.363295591864     2.999800778158    12.000000000000
         C           -0.707593341647     0.933704408136     0.357800778158    12.000000000000
         C           -0.587593341647     0.052704408136     1.439800778158    12.000000000000
         C            0.432406658353     1.326704408136    -0.343199221842    12.000000000000
         C            0.665406658353    -0.435295591864     1.821800778158    12.000000000000
         C            1.684406658353     0.848704408136     0.033800778158    12.000000000000
         C            1.796406658353    -0.028295591864     1.109800778158    12.000000000000
         O            0.332406658353     2.180704408136    -1.403199221842    15.994914619570
         H           -1.676593341647     1.311704408136     0.069800778158     1.007825032230
         H           -1.472593341647    -0.246295591864     1.986800778158     1.007825032230
         H           -0.582593341647     2.431704408136    -1.572199221842     1.007825032230
         H            2.562406658353     1.173704408136    -0.497199221842     1.007825032230
         H            1.688406658353    -1.982295591864     2.875800778158     1.007825032230
         H           -0.065593341647    -2.026295591864     3.017800778158     1.007825032230
         H            2.771406658353    -0.394295591864     1.395800778158     1.007825032230
         H            0.864746658353    -0.834255591864     3.962145778158     1.007825032230

  Running in c1 symmetry.

  Rotational constants: A =      0.04546  B =      0.02448  C =      0.01894 [cm^-1]
  Rotational constants: A =   1362.77680  B =    734.02051  C =    567.74962 [MHz]
  Nuclear repulsion =  496.719226930309389

  Charge       = 0
  Multiplicity = 1
  Electrons    = 76
  Nalpha       = 38
  Nbeta        = 38

  ==> Algorithm <==

  SCF Algorithm Type is PK.
  DIIS enabled.
  MOM disabled.
  Fractional occupation disabled.
  Guess Type is SAD.
  Energy threshold   = 1.00e-06
  Density threshold  = 1.00e-10
  Integral threshold = 0.00e+00

  ==> Primary Basis <==

  Basis Set: CC-PVDZ
    Blend: CC-PVDZ
    Number of shells: 102
    Number of basis function: 210
    Number of Cartesian functions: 220
    Spherical Harmonics?: true
    Max angular momentum: 2

  ==> Pre-Iterations <==

   -------------------------------------------------------
    Irrep   Nso     Nmo     Nalpha   Nbeta   Ndocc  Nsocc
   -------------------------------------------------------
     A        210     210       0       0       0       0
   -------------------------------------------------------
    Total     210     210      38      38      38       0
   -------------------------------------------------------

  ==> Integral Setup <==

  Using integral reordering PK algorithm.
  Sizing the integral batches needed.
  Building batch lookup table.
   Calculation information:
      Number of atoms:                  24
      Number of AO shells:             102
      Number of primitives:            290
      Number of atomic orbitals:       220
      Number of basis functions:       210

      Integral cutoff                 1.00e-12
      Number of threads:                 1

	Batch   1 pq = [       0,    9405] index = [             0,44231715] size =     44231715
	Batch   2 pq = [    9405,   13301] index = [      44231715,88464951] size =     44233236
	Batch   3 pq = [   13301,   16290] index = [      88464951,132690195] size =     44225244
	Batch   4 pq = [   16290,   18810] index = [     132690195,176917455] size =     44227260
	Batch   5 pq = [   18810,   21030] index = [     176917455,221140965] size =     44223510
	Batch   6 pq = [   21030,   22155] index = [     221140965,245433090] size =     24292125
  Task number: 23
  Buffer size: 11059200
  Buffer per thread: 2
  We computed 11802437 shell quartets total.
  Whereas there are 13799631 unique shell quartets.

  ==> DiskJK: Disk-Based J/K Matrices <==

    J tasked:                  Yes
    K tasked:                  Yes
    wK tasked:                  No
    Memory [MiB]:              375
    Schwarz Cutoff:          1E-12

    OpenMP threads:              1

  Minimum eigenvalue in the overlap matrix is 3.2840008293E-04.
  Using Symmetric Orthogonalization.

  SCF Guess: Superposition of Atomic Densities via on-the-fly atomic UHF.

  ==> Iterations <==

                        Total Energy        Delta E     RMS |[F,P]|

   @RHF iter SAD:  -422.64525994717172   -4.22645e+02   0.00000e+00
   @RHF iter   1:  -423.60257835092159   -9.57318e-01   2.97666e-03 DIIS
   @RHF iter   2:  -423.81817114479264   -2.15593e-01   1.26383e-03 DIIS
   @RHF iter   3:  -423.85336633429040   -3.51952e-02   2.87007e-04 DIIS
   @RHF iter   4:  -423.85625633216182   -2.89000e-03   1.20612e-04 DIIS
   @RHF iter   5:  -423.85663132928460   -3.74997e-04   2.05616e-05 DIIS
   @RHF iter   6:  -423.85664854675832   -1.72175e-05   6.33802e-06 DIIS
   @RHF iter   7:  -423.85665010450305   -1.55774e-06   2.02002e-06 DIIS
   @RHF iter   8:  -423.85665030328778   -1.98785e-07   7.42509e-07 DIIS
   @RHF iter   9:  -423.85665033024679   -2.69590e-08   2.57166e-07 DIIS
   @RHF iter  10:  -423.85665033400329   -3.75650e-09   9.04446e-08 DIIS
   @RHF iter  11:  -423.85665033479677   -7.93477e-10   4.34274e-08 DIIS
   @RHF iter  12:  -423.85665033500050   -2.03727e-10   2.39353e-08 DIIS
   @RHF iter  13:  -423.85665033506439   -6.38920e-11   8.22392e-09 DIIS
   @RHF iter  14:  -423.85665033507604   -1.16529e-11   2.15606e-09 DIIS
   @RHF iter  15:  -423.85665033507337    2.67164e-12   7.15436e-10 DIIS
   @RHF iter  16:  -423.85665033507428   -9.09495e-13   2.33264e-10 DIIS
   @RHF iter  17:  -423.85665033507280    1.47793e-12   9.64749e-11 DIIS
  Energy and wave function converged.

  ==> Post-Iterations <==

    Orbital Energies [Eh]
    ---------------------

    Doubly Occupied:

       1A    -20.584016     2A    -11.298923     3A    -11.239955
       4A    -11.237521     5A    -11.234365     6A    -11.233720
       7A    -11.229752     8A    -11.227716     9A    -11.217400
      10A    -11.213401    11A     -1.399251    12A     -1.148779
      13A     -1.036834    14A     -1.017070    15A     -1.013240
      16A     -0.925481    17A     -0.844769    18A     -0.835515
      19A     -0.801151    20A     -0.730738    21A     -0.667126
      22A     -0.641535    23A     -0.606480    24A     -0.596597
      25A     -0.592830    26A     -0.586829    27A     -0.583363
      28A     -0.570556    29A     -0.567393    30A     -0.526163
      31A     -0.501135    32A     -0.497008    33A     -0.485270
      34A     -0.484949    35A     -0.480462    36A     -0.464742
      37A     -0.337039    38A     -0.300943

    Virtual:

      39A      0.128929    40A      0.154420    41A      0.170013
      42A      0.185180    43A      0.197521    44A      0.216124
      45A      0.216757    46A      0.246752    47A      0.258105
      48A      0.264227    49A      0.265499    50A      0.270007
      51A      0.279724    52A      0.288722    53A      0.298188
      54A      0.310342    55A      0.368024    56A      0.371856
      57A      0.407277    58A      0.430731    59A      0.454800
      60A      0.483231    61A      0.495252    62A      0.506958
      63A      0.586537    64A      0.594799    65A      0.605947
      66A      0.611912    67A      0.638570    68A      0.652279
      69A      0.659819    70A      0.666544    71A      0.680887
      72A      0.689005    73A      0.702882    74A      0.722569
      75A      0.730101    76A      0.738119    77A      0.766894
      78A      0.770284    79A      0.788153    80A      0.795196
      81A      0.824302    82A      0.832386    83A      0.844060
      84A      0.859197    85A      0.876382    86A      0.880365
      87A      0.890756    88A      0.892584    89A      0.894655
      90A      0.898253    91A      0.909939    92A      0.919028
      93A      0.920885    94A      0.927206    95A      0.936574
      96A      0.943640    97A      0.959248    98A      0.964055
      99A      0.999638   100A      1.011981   101A      1.023794
     102A      1.070572   103A      1.116602   104A      1.128170
     105A      1.138213   106A      1.143351   107A      1.149577
     108A      1.181492   109A      1.207167   110A      1.232462
     111A      1.245340   112A      1.252507   113A      1.271290
     114A      1.295974   115A      1.300253   116A      1.308211
     117A      1.345388   118A      1.358777   119A      1.363700
     120A      1.383586   121A      1.464138   122A      1.477132
     123A      1.489724   124A      1.501203   125A      1.528767
     126A      1.556512   127A      1.579962   128A      1.615032
     129A      1.625577   130A      1.683715   131A      1.685122
     132A      1.697821   133A      1.706419   134A      1.733110
     135A      1.754569   136A      1.782571   137A      1.803904
     138A      1.813233   139A      1.865212   140A      1.871285
     141A      1.881347   142A      1.884246   143A      1.894945
     144A      1.903946   145A      1.908868   146A      1.915449
     147A      1.920200   148A      1.935496   149A      1.948676
     150A      1.955084   151A      1.957321   152A      1.960890
     153A      1.967742   154A      1.975030   155A      1.998906
     156A      2.012778   157A      2.037819   158A      2.051188
     159A      2.055070   160A      2.066909   161A      2.074417
     162A      2.097595   163A      2.111150   164A      2.138759
     165A      2.144263   166A      2.158956   167A      2.203845
     168A      2.226989   169A      2.259878   170A      2.276770
     171A      2.295918   172A      2.307413   173A      2.325918
     174A      2.340365   175A      2.388705   176A      2.422133
     177A      2.451731   178A      2.462961   179A      2.467249
     180A      2.474066   181A      2.485316   182A      2.535667
     183A      2.544901   184A      2.561805   185A      2.575719
     186A      2.601216   187A      2.642027   188A      2.751158
     189A      2.764484   190A      2.769300   191A      2.785190
     192A      2.796862   193A      2.808197   194A      2.840881
     195A      2.858090   196A      2.871782   197A      2.899999
     198A      2.946400   199A      2.962739   200A      2.988322
     201A      3.002395   202A      3.085442   203A      3.109108
     204A      3.249449   205A      3.278720   206A      3.344380
     207A      3.575898   208A      3.676188   209A      3.962472
     210A      4.194354

    Final Occupation by Irrep:
              A
    DOCC [    38 ]

  @RHF Final Energy:  -423.85665033507280

   => Energetics <=

    Nuclear Repulsion Energy =            496.7192269303093894
    One-Electron Energy =               -1559.2317152063710637
    Two-Electron Energy =                 638.6558379409889312
    Total Energy =                       -423.8566503350727999

Computation Completed

Properties will be evaluated at   0.000000,   0.000000,   0.000000 [a0]

Properties computed using the SCF density matrix

  Nuclear Dipole Moment: [e a0]
     X:    -7.0834      Y:    -9.8684      Z:    -4.0684

  Electronic Dipole Moment: [e a0]
     X:     6.6110      Y:     9.7892      Z:     4.3101

  Dipole Moment: [e a0]
     X:    -0.4724      Y:    -0.0792      Z:     0.2418     Total:     0.5365

  Dipole Moment: [D]
     X:    -1.2007      Y:    -0.2012      Z:     0.6145     Total:     1.3637

*** tstop() called on ds3 at Mon Apr 27 13:26:38 2020
Module time:
	user time   =      91.35 seconds =       1.52 minutes
	system time =      42.85 seconds =       0.71 minutes
	total time  =        145 seconds =       2.42 minutes
Total time:
	user time   =      91.35 seconds =       1.52 minutes
	system time =      42.85 seconds =       0.71 minutes
	total time  =        145 seconds =       2.42 minutes
                                     G D M A

                                 by Anthony Stone

                           version 2.2.06, 22 June 2011

               Distributed Multipoles from Gaussian wavefunctions

Starting at 13:26:38 on 27 Apr 2020

Using SCF density matrix from file ./SSI/SSI-039ILE-055TYR-1-dimer.test.6466.fchk

                         Distributed Multipole Analysis

Standard DMA

Positions and radii in angstrom
Multipole moments in atomic units, ea_0^k for rank k

C          x = -2.123593  y = -1.106296  z = -2.114199 angstrom
           Maximum rank =  0   Radius =  0.650 angstrom
                   Q00  =  -0.242595

C          x = -1.769593  y = -2.250296  z = -3.071199 angstrom
           Maximum rank =  0   Radius =  0.650 angstrom
                   Q00  =  -0.230270

H          x = -2.271593  y = -1.477296  z = -1.101199 angstrom
           Maximum rank =  0   Radius =  0.325 angstrom
                   Q00  =   0.081983

H          x = -1.320593  y = -0.372296  z = -2.100199 angstrom
           Maximum rank =  0   Radius =  0.325 angstrom
                   Q00  =   0.074964

H          x = -3.008593  y = -0.559296  z = -2.441199 angstrom
           Maximum rank =  0   Radius =  0.325 angstrom
                   Q00  =   0.070059

H          x = -1.650593  y = -1.828296  z = -4.070199 angstrom
           Maximum rank =  0   Radius =  0.325 angstrom
                   Q00  =   0.078155

H          x = -2.569463  y = -3.005206  z = -3.089037 angstrom
           Maximum rank =  0   Radius =  0.325 angstrom
                   Q00  =   0.077183

H          x = -0.826353  y = -2.729086  z = -2.769447 angstrom
           Maximum rank =  0   Radius =  0.325 angstrom
                   Q00  =   0.083806

C          x =  0.801407  y = -1.363296  z =  2.999801 angstrom
           Maximum rank =  0   Radius =  0.650 angstrom
                   Q00  =  -0.191465

C          x = -0.707593  y =  0.933704  z =  0.357801 angstrom
           Maximum rank =  0   Radius =  0.650 angstrom
                   Q00  =  -0.187397

C          x = -0.587593  y =  0.052704  z =  1.439801 angstrom
           Maximum rank =  0   Radius =  0.650 angstrom
                   Q00  =  -0.070176

C          x =  0.432407  y =  1.326704  z = -0.343199 angstrom
           Maximum rank =  0   Radius =  0.650 angstrom
                   Q00  =   0.361365

C          x =  0.665407  y = -0.435296  z =  1.821801 angstrom
           Maximum rank =  0   Radius =  0.650 angstrom
                   Q00  =  -0.134303

C          x =  1.684407  y =  0.848704  z =  0.033801 angstrom
           Maximum rank =  0   Radius =  0.650 angstrom
                   Q00  =  -0.108677

C          x =  1.796407  y = -0.028296  z =  1.109801 angstrom
           Maximum rank =  0   Radius =  0.650 angstrom
                   Q00  =   0.029983

O          x =  0.332407  y =  2.180704  z = -1.403199 angstrom
           Maximum rank =  0   Radius =  0.650 angstrom
                   Q00  =  -0.677973

H          x = -1.676593  y =  1.311704  z =  0.069801 angstrom
           Maximum rank =  0   Radius =  0.325 angstrom
                   Q00  =   0.073985

H          x = -1.472593  y = -0.246296  z =  1.986801 angstrom
           Maximum rank =  0   Radius =  0.325 angstrom
                   Q00  =   0.068971

H          x = -0.582593  y =  2.431704  z = -1.572199 angstrom
           Maximum rank =  0   Radius =  0.325 angstrom
                   Q00  =   0.407328

H          x =  2.562407  y =  1.173704  z = -0.497199 angstrom
           Maximum rank =  0   Radius =  0.325 angstrom
                   Q00  =   0.080752

H          x =  1.688407  y = -1.982296  z =  2.875801 angstrom
           Maximum rank =  0   Radius =  0.325 angstrom
                   Q00  =   0.096792

H          x = -0.065593  y = -2.026296  z =  3.017801 angstrom
           Maximum rank =  0   Radius =  0.325 angstrom
                   Q00  =   0.094270

H          x =  2.771407  y = -0.394296  z =  1.395801 angstrom
           Maximum rank =  0   Radius =  0.325 angstrom
                   Q00  =   0.063370

H          x =  0.864747  y = -0.834256  z =  3.962146 angstrom
           Maximum rank =  0   Radius =  0.325 angstrom
                   Q00  =   0.099886

Total multipoles referred to origin at
           x =   0.000000,  y =    0.000000,  z =    0.000000 angstrom
                   Q00  =  -0.000000

Finished at 13:26:39 on 27 Apr 2020

  DMA results are available in the Python driver through the
	  variable('DMA DISTRIBUTED MULTIPOLES')
  and
	  variable('DMA TOTAL MULTIPOLES')
  commands.

    Psi4 stopped on: Monday, 27 April 2020 01:26PM
    Psi4 wall time for execution: 0:02:25.39

*** Psi4 exiting successfully. Buy a developer a beer!
