                               Psi4 1.3.2 release

  ==> Input File <==

--------------------------------------------------------------------------
import numpy as np
set {scf_type pk
basis cc-pvdz
d_convergence 10
gdma_switch   0
gdma_limit    0
gdma_origin   [ 0.0,  0.0,  0.0 ]
}
molecule test {
    units Angstrom
    0 1
    --
    0 1
    C                0.303316385557214    -2.998127147376064    -1.614032320208272
    C                1.575316385557214     0.223872852623935    -0.493032320208272
    C                0.582316385557214    -1.545127147376065    -1.340032320208272
    C               -0.083683614442786    -0.443127147376065    -1.771032320208272
    N                1.611316385557214    -1.099127147376065    -0.538032320208272
    N                0.554316385557214     0.650872852623935    -1.227032320208272
    H                2.223316385557214     0.837872852623935     0.116967679791728
    H                0.178316385557214     1.588872852623935    -1.168032320208272
    H               -0.970683614442786    -0.445127147376065    -2.393032320208271
    H               -0.643683614442786    -3.050127147376064    -2.147032320208272
    H                0.194316385557214    -3.527127147376065    -0.670032320208272
    H                1.070666385557214    -3.497017147376065    -2.224182320208272
    C               -0.998683614442786     1.400872852623935     1.822967679791728
    C               -2.192683614442786     0.617872852623935     2.369967679791729
    C               -0.930683614442786     2.843872852623935     2.316967679791729
    H               -0.076683614442786     0.881872852623935     2.095967679791728
    H               -1.072683614442786     1.414872852623935     0.736967679791728
    H               -3.118683614442786     1.133872852623935     2.110967679791728
    H               -0.923683614442786     2.856872852623936     3.404967679791729
    H               -2.131673614442786     0.501872852623935     3.462127679791728
    H               -2.239833614442786    -0.367117147376065     1.882547679791728
    H                0.006336385557214     3.304732852623935     1.971137679791728
    H               -1.810543614442786     3.401882852623936     1.964157679791728

}
e, wfn = energy('scf', return_wfn=True)
gdma(wfn)
dmavals = variable('DMA DISTRIBUTED MULTIPOLES')
charges = np.array(dmavals)
print(charges)
np.save('SSI-062HIE-072LEU-1-dimer.npy', np.array(charges))--------------------------------------------------------------------------

*** tstart() called on ds3
*** at Sun Apr 26 21:38:36 2020

   => Loading Basis Set <=

    Name: CC-PVDZ
    Role: ORBITAL
    Keyword: BASIS
    atoms 1-4, 13-15  entry C          line   138 file /theoryfs2/ds/metcalf/miniconda2/envs/tf2gpu/share/psi4/basis/cc-pvdz.gbs
    atoms 5-6         entry N          line   168 file /theoryfs2/ds/metcalf/miniconda2/envs/tf2gpu/share/psi4/basis/cc-pvdz.gbs
    atoms 7-12, 16-23 entry H          line    22 file /theoryfs2/ds/metcalf/miniconda2/envs/tf2gpu/share/psi4/basis/cc-pvdz.gbs

         ---------------------------------------------------------
                                   SCF
               by Justin Turney, Rob Parrish, Andy Simmonett
                          and Daniel G. A. Smith
                              RHF Reference
                        1 Threads,    500 MiB Core
         ---------------------------------------------------------

  ==> Geometry <==

    Molecular point group: c1
    Full point group: C1

    Geometry (in Angstrom), charge = 0, multiplicity = 1:

       Center              X                  Y                   Z               Mass
    ------------   -----------------  -----------------  -----------------  -----------------
         C            0.303316385557    -2.998127147376    -1.614032320208    12.000000000000
         C            1.575316385557     0.223872852624    -0.493032320208    12.000000000000
         C            0.582316385557    -1.545127147376    -1.340032320208    12.000000000000
         C           -0.083683614443    -0.443127147376    -1.771032320208    12.000000000000
         N            1.611316385557    -1.099127147376    -0.538032320208    14.003074004430
         N            0.554316385557     0.650872852624    -1.227032320208    14.003074004430
         H            2.223316385557     0.837872852624     0.116967679792     1.007825032230
         H            0.178316385557     1.588872852624    -1.168032320208     1.007825032230
         H           -0.970683614443    -0.445127147376    -2.393032320208     1.007825032230
         H           -0.643683614443    -3.050127147376    -2.147032320208     1.007825032230
         H            0.194316385557    -3.527127147376    -0.670032320208     1.007825032230
         H            1.070666385557    -3.497017147376    -2.224182320208     1.007825032230
         C           -0.998683614443     1.400872852624     1.822967679792    12.000000000000
         C           -2.192683614443     0.617872852624     2.369967679792    12.000000000000
         C           -0.930683614443     2.843872852624     2.316967679792    12.000000000000
         H           -0.076683614443     0.881872852624     2.095967679792     1.007825032230
         H           -1.072683614443     1.414872852624     0.736967679792     1.007825032230
         H           -3.118683614443     1.133872852624     2.110967679792     1.007825032230
         H           -0.923683614443     2.856872852624     3.404967679792     1.007825032230
         H           -2.131673614443     0.501872852624     3.462127679792     1.007825032230
         H           -2.239833614443    -0.367117147376     1.882547679792     1.007825032230
         H            0.006336385557     3.304732852624     1.971137679792     1.007825032230
         H           -1.810543614443     3.401882852624     1.964157679792     1.007825032230

  Running in c1 symmetry.

  Rotational constants: A =      0.08495  B =      0.02224  C =      0.01995 [cm^-1]
  Rotational constants: A =   2546.68015  B =    666.67567  C =    598.12478 [MHz]
  Nuclear repulsion =  431.933966510834409

  Charge       = 0
  Multiplicity = 1
  Electrons    = 70
  Nalpha       = 35
  Nbeta        = 35

  ==> Algorithm <==

  SCF Algorithm Type is PK.
  DIIS enabled.
  MOM disabled.
  Fractional occupation disabled.
  Guess Type is SAD.
  Energy threshold   = 1.00e-06
  Density threshold  = 1.00e-10
  Integral threshold = 0.00e+00

  ==> Primary Basis <==

  Basis Set: CC-PVDZ
    Blend: CC-PVDZ
    Number of shells: 96
    Number of basis function: 196
    Number of Cartesian functions: 205
    Spherical Harmonics?: true
    Max angular momentum: 2

  ==> Pre-Iterations <==

   -------------------------------------------------------
    Irrep   Nso     Nmo     Nalpha   Nbeta   Ndocc  Nsocc
   -------------------------------------------------------
     A        196     196       0       0       0       0
   -------------------------------------------------------
    Total     196     196      35      35      35       0
   -------------------------------------------------------

  ==> Integral Setup <==

  Using integral reordering PK algorithm.
  Sizing the integral batches needed.
  Building batch lookup table.
   Calculation information:
      Number of atoms:                  23
      Number of AO shells:              96
      Number of primitives:            268
      Number of atomic orbitals:       205
      Number of basis functions:       196

      Integral cutoff                 1.00e-12
      Number of threads:                 1

	Batch   1 pq = [       0,    9405] index = [             0,44231715] size =     44231715
	Batch   2 pq = [    9405,   13301] index = [      44231715,88464951] size =     44233236
	Batch   3 pq = [   13301,   16290] index = [      88464951,132690195] size =     44225244
	Batch   4 pq = [   16290,   18810] index = [     132690195,176917455] size =     44227260
	Batch   5 pq = [   18810,   19306] index = [     176917455,186370471] size =      9453016
  Task number: 17
  Buffer size: 11059200
  Buffer per thread: 2
  We computed 9087801 shell quartets total.
  Whereas there are 10841496 unique shell quartets.

  ==> DiskJK: Disk-Based J/K Matrices <==

    J tasked:                  Yes
    K tasked:                  Yes
    wK tasked:                  No
    Memory [MiB]:              375
    Schwarz Cutoff:          1E-12

    OpenMP threads:              1

  Minimum eigenvalue in the overlap matrix is 1.2030058299E-03.
  Using Symmetric Orthogonalization.

  SCF Guess: Superposition of Atomic Densities via on-the-fly atomic UHF.

  ==> Iterations <==

                        Total Energy        Delta E     RMS |[F,P]|

   @RHF iter SAD:  -381.22587411402310   -3.81226e+02   0.00000e+00
   @RHF iter   1:  -381.89094703025796   -6.65073e-01   3.14536e-03 DIIS
   @RHF iter   2:  -382.08968418733161   -1.98737e-01   1.58535e-03 DIIS
   @RHF iter   3:  -382.13581242917445   -4.61282e-02   4.00760e-04 DIIS
   @RHF iter   4:  -382.13971746911341   -3.90504e-03   1.72200e-04 DIIS
   @RHF iter   5:  -382.14035729173571   -6.39823e-04   2.52577e-05 DIIS
   @RHF iter   6:  -382.14038157552659   -2.42838e-05   1.06194e-05 DIIS
   @RHF iter   7:  -382.14038561473654   -4.03921e-06   3.77856e-06 DIIS
   @RHF iter   8:  -382.14038645905418   -8.44318e-07   1.54282e-06 DIIS
   @RHF iter   9:  -382.14038664250393   -1.83450e-07   5.55389e-07 DIIS
   @RHF iter  10:  -382.14038666144381   -1.89399e-08   1.64047e-07 DIIS
   @RHF iter  11:  -382.14038666350172   -2.05790e-09   7.07113e-08 DIIS
   @RHF iter  12:  -382.14038666376018   -2.58467e-10   2.97282e-08 DIIS
   @RHF iter  13:  -382.14038666380941   -4.92264e-11   9.20007e-09 DIIS
   @RHF iter  14:  -382.14038666381430   -4.88853e-12   3.03529e-09 DIIS
   @RHF iter  15:  -382.14038666381589   -1.59162e-12   1.15399e-09 DIIS
   @RHF iter  16:  -382.14038666381816   -2.27374e-12   4.11688e-10 DIIS
   @RHF iter  17:  -382.14038666381498    3.18323e-12   1.38100e-10 DIIS
   @RHF iter  18:  -382.14038666381640   -1.42109e-12   4.26269e-11 DIIS
  Energy and wave function converged.

  ==> Post-Iterations <==

    Orbital Energies [Eh]
    ---------------------

    Doubly Occupied:

       1A    -15.618449     2A    -15.527211     3A    -11.291427
       4A    -11.250804     5A    -11.242142     6A    -11.224828
       7A    -11.223577     8A    -11.222979     9A    -11.219092
      10A     -1.342006    11A     -1.153410    12A     -1.057415
      13A     -1.031488    14A     -0.940736    15A     -0.928185
      16A     -0.816702    17A     -0.799840    18A     -0.761906
      19A     -0.741433    20A     -0.631578    21A     -0.612318
      22A     -0.604826    23A     -0.595638    24A     -0.592965
      25A     -0.554108    26A     -0.553050    27A     -0.540253
      28A     -0.536626    29A     -0.521765    30A     -0.474721
      31A     -0.473402    32A     -0.471547    33A     -0.409368
      34A     -0.377907    35A     -0.310604

    Virtual:

      36A      0.156745    37A      0.180763    38A      0.193705
      39A      0.198218    40A      0.211507    41A      0.228253
      42A      0.232724    43A      0.235300    44A      0.244313
      45A      0.260288    46A      0.269993    47A      0.281405
      48A      0.292730    49A      0.297660    50A      0.301944
      51A      0.324962    52A      0.356863    53A      0.379566
      54A      0.395441    55A      0.410403    56A      0.427068
      57A      0.476411    58A      0.493122    59A      0.570473
      60A      0.600616    61A      0.601734    62A      0.604818
      63A      0.615422    64A      0.618129    65A      0.623197
      66A      0.648308    67A      0.675306    68A      0.707409
      69A      0.746231    70A      0.763911    71A      0.774320
      72A      0.777637    73A      0.795069    74A      0.811289
      75A      0.813713    76A      0.836316    77A      0.846220
      78A      0.873646    79A      0.879001    80A      0.888220
      81A      0.893153    82A      0.895401    83A      0.897517
      84A      0.900035    85A      0.907563    86A      0.914691
      87A      0.920597    88A      0.934710    89A      0.953223
      90A      0.964617    91A      0.966530    92A      0.970057
      93A      0.991716    94A      1.027971    95A      1.086905
      96A      1.095875    97A      1.110304    98A      1.118511
      99A      1.129562   100A      1.142936   101A      1.173354
     102A      1.184367   103A      1.224517   104A      1.241300
     105A      1.275382   106A      1.313711   107A      1.329192
     108A      1.333376   109A      1.379595   110A      1.418653
     111A      1.442651   112A      1.466577   113A      1.490649
     114A      1.502617   115A      1.512807   116A      1.522457
     117A      1.567755   118A      1.597866   119A      1.626062
     120A      1.645964   121A      1.673487   122A      1.680788
     123A      1.689711   124A      1.699145   125A      1.722384
     126A      1.791470   127A      1.797623   128A      1.809204
     129A      1.860242   130A      1.867313   131A      1.876286
     132A      1.887116   133A      1.897706   134A      1.908660
     135A      1.916804   136A      1.932110   137A      1.947844
     138A      1.955437   139A      1.962941   140A      1.969183
     141A      1.972771   142A      1.981347   143A      1.984012
     144A      1.992891   145A      1.995910   146A      2.007780
     147A      2.029606   148A      2.055241   149A      2.100887
     150A      2.114190   151A      2.129828   152A      2.135516
     153A      2.145932   154A      2.180573   155A      2.211761
     156A      2.222361   157A      2.282508   158A      2.290921
     159A      2.299073   160A      2.325034   161A      2.342521
     162A      2.344862   163A      2.391712   164A      2.447737
     165A      2.467951   166A      2.484556   167A      2.497341
     168A      2.523595   169A      2.548774   170A      2.582359
     171A      2.606660   172A      2.608484   173A      2.620276
     174A      2.686115   175A      2.728485   176A      2.749180
     177A      2.750635   178A      2.757377   179A      2.770235
     180A      2.777666   181A      2.787269   182A      2.805573
     183A      2.834668   184A      2.882845   185A      2.903586
     186A      2.909015   187A      2.934050   188A      2.965844
     189A      2.971643   190A      2.979204   191A      3.053922
     192A      3.079215   193A      3.169523   194A      3.240257
     195A      3.468168   196A      3.775927

    Final Occupation by Irrep:
              A
    DOCC [    35 ]

  @RHF Final Energy:  -382.14038666381640

   => Energetics <=

    Nuclear Repulsion Energy =            431.9339665108344093
    One-Electron Energy =               -1372.8400959166278881
    Two-Electron Energy =                 558.7657427419771921
    Total Energy =                       -382.1403866638163436

Computation Completed

Properties will be evaluated at   0.000000,   0.000000,   0.000000 [a0]

Properties computed using the SCF density matrix

  Nuclear Dipole Moment: [e a0]
     X:    -8.7390      Y:     4.7226      Z:     8.5769

  Electronic Dipole Moment: [e a0]
     X:     8.0345      Y:    -3.7262      Z:    -8.8346

  Dipole Moment: [e a0]
     X:    -0.7045      Y:     0.9964      Z:    -0.2577     Total:     1.2472

  Dipole Moment: [D]
     X:    -1.7905      Y:     2.5327      Z:    -0.6551     Total:     3.1701

*** tstop() called on ds3 at Sun Apr 26 21:41:02 2020
Module time:
	user time   =      60.27 seconds =       1.00 minutes
	system time =      27.12 seconds =       0.45 minutes
	total time  =        146 seconds =       2.43 minutes
Total time:
	user time   =      60.27 seconds =       1.00 minutes
	system time =      27.12 seconds =       0.45 minutes
	total time  =        146 seconds =       2.43 minutes
                                     G D M A

                                 by Anthony Stone

                           version 2.2.06, 22 June 2011

               Distributed Multipoles from Gaussian wavefunctions

Starting at 21:41:2 on 26 Apr 2020

Using SCF density matrix from file ./SSI/SSI-062HIE-072LEU-1-dimer.test.4877.fchk

                         Distributed Multipole Analysis

Standard DMA

Positions and radii in angstrom
Multipole moments in atomic units, ea_0^k for rank k

C          x =  0.303316  y = -2.998127  z = -1.614032 angstrom
           Maximum rank =  0   Radius =  0.650 angstrom
                   Q00  =  -0.191735

C          x =  1.575316  y =  0.223873  z = -0.493032 angstrom
           Maximum rank =  0   Radius =  0.650 angstrom
                   Q00  =   0.466552

C          x =  0.582316  y = -1.545127  z = -1.340032 angstrom
           Maximum rank =  0   Radius =  0.650 angstrom
                   Q00  =   0.222234

C          x = -0.083684  y = -0.443127  z = -1.771032 angstrom
           Maximum rank =  0   Radius =  0.650 angstrom
                   Q00  =  -0.005078

N          x =  1.611316  y = -1.099127  z = -0.538032 angstrom
           Maximum rank =  0   Radius =  0.650 angstrom
                   Q00  =  -0.768259

N          x =  0.554316  y =  0.650873  z = -1.227032 angstrom
           Maximum rank =  0   Radius =  0.650 angstrom
                   Q00  =  -0.473808

H          x =  2.223316  y =  0.837873  z =  0.116968 angstrom
           Maximum rank =  0   Radius =  0.325 angstrom
                   Q00  =   0.123695

H          x =  0.178316  y =  1.588873  z = -1.168032 angstrom
           Maximum rank =  0   Radius =  0.325 angstrom
                   Q00  =   0.219800

H          x = -0.970684  y = -0.445127  z = -2.393032 angstrom
           Maximum rank =  0   Radius =  0.325 angstrom
                   Q00  =   0.101032

H          x = -0.643684  y = -3.050127  z = -2.147032 angstrom
           Maximum rank =  0   Radius =  0.325 angstrom
                   Q00  =   0.089986

H          x =  0.194316  y = -3.527127  z = -0.670032 angstrom
           Maximum rank =  0   Radius =  0.325 angstrom
                   Q00  =   0.112202

H          x =  1.070666  y = -3.497017  z = -2.224182 angstrom
           Maximum rank =  0   Radius =  0.325 angstrom
                   Q00  =   0.109140

C          x = -0.998684  y =  1.400873  z =  1.822968 angstrom
           Maximum rank =  0   Radius =  0.650 angstrom
                   Q00  =  -0.065465

C          x = -2.192684  y =  0.617873  z =  2.369968 angstrom
           Maximum rank =  0   Radius =  0.650 angstrom
                   Q00  =  -0.242505

C          x = -0.930684  y =  2.843873  z =  2.316968 angstrom
           Maximum rank =  0   Radius =  0.650 angstrom
                   Q00  =  -0.250306

H          x = -0.076684  y =  0.881873  z =  2.095968 angstrom
           Maximum rank =  0   Radius =  0.325 angstrom
                   Q00  =   0.054870

H          x = -1.072684  y =  1.414873  z =  0.736968 angstrom
           Maximum rank =  0   Radius =  0.325 angstrom
                   Q00  =   0.024374

H          x = -3.118684  y =  1.133873  z =  2.110968 angstrom
           Maximum rank =  0   Radius =  0.325 angstrom
                   Q00  =   0.071513

H          x = -0.923684  y =  2.856873  z =  3.404968 angstrom
           Maximum rank =  0   Radius =  0.325 angstrom
                   Q00  =   0.082052

H          x = -2.131674  y =  0.501873  z =  3.462128 angstrom
           Maximum rank =  0   Radius =  0.325 angstrom
                   Q00  =   0.080453

H          x = -2.239834  y = -0.367117  z =  1.882548 angstrom
           Maximum rank =  0   Radius =  0.325 angstrom
                   Q00  =   0.089212

H          x =  0.006336  y =  3.304733  z =  1.971138 angstrom
           Maximum rank =  0   Radius =  0.325 angstrom
                   Q00  =   0.074577

H          x = -1.810544  y =  3.401883  z =  1.964158 angstrom
           Maximum rank =  0   Radius =  0.325 angstrom
                   Q00  =   0.075464

Total multipoles referred to origin at
           x =   0.000000,  y =    0.000000,  z =    0.000000 angstrom
                   Q00  =  -0.000000

Finished at 21:41:2 on 26 Apr 2020

  DMA results are available in the Python driver through the
	  variable('DMA DISTRIBUTED MULTIPOLES')
  and
	  variable('DMA TOTAL MULTIPOLES')
  commands.

    Psi4 stopped on: Sunday, 26 April 2020 09:41PM
    Psi4 wall time for execution: 0:02:26.20

*** Psi4 exiting successfully. Buy a developer a beer!
