                               Psi4 1.3.2 release

  ==> Input File <==

--------------------------------------------------------------------------
import numpy as np
set {scf_type pk
basis cc-pvdz
d_convergence 10
gdma_switch   0
gdma_limit    0
gdma_origin   [ 0.0,  0.0,  0.0 ]
}
molecule test {
    units Angstrom
    1 1
    --
    1 1
    C                1.965171985451441    -0.768419306981375    -3.066860232409309
    O                1.144171985451441     0.105580693018626    -2.319860232409308
    H                0.884171985451441     0.814580693018625    -2.940860232409309
    H                2.751171985451441    -1.159419306981375    -2.419860232409309
    H                2.430171985451441    -0.225419306981374    -3.890860232409308
    H                1.365635985451441    -1.602306306981375    -3.460800232409309
    C                0.749171985451441    -0.787419306981374     0.842139767590692
    C                1.883171985451441     0.242580693018626     0.838139767590692
    C               -1.476828014548559     0.283580693018626     1.045139767590692
    N               -0.498828014548559    -0.223419306981374     0.308139767590692
    N               -1.378828014548559     0.321580693018626     2.366139767590691
    N               -2.555828014548559     0.752580693018626     0.456139767590692
    H                1.056171985451441    -1.622419306981374     0.212139767590692
    H                0.608171985451441    -1.184419306981374     1.849139767590692
    H                1.532171985451441     1.117580693018626     1.386139767590692
    H                2.141171985451441     0.547580693018625    -0.169860232409308
    H               -0.575828014548559    -0.146419306981374    -0.700860232409308
    H               -0.589828014548559    -0.097419306981374     2.827139767590691
    H               -2.130828014548559     0.702580693018626     2.920139767590692
    H               -2.651828014548559     0.659580693018626    -0.549860232409308
    H               -3.312828014548559     1.135580693018626     1.001139767590692
    H                2.776343985451441    -0.175622306981374     1.325324767590692

}
e, wfn = energy('scf', return_wfn=True)
gdma(wfn)
dmavals = variable('DMA DISTRIBUTED MULTIPOLES')
charges = np.array(dmavals)
print(charges)
np.save('SSI-044SER-118ARG-2-dimer.npy', np.array(charges))--------------------------------------------------------------------------

*** tstart() called on ds3
*** at Tue Apr 28 14:54:29 2020

   => Loading Basis Set <=

    Name: CC-PVDZ
    Role: ORBITAL
    Keyword: BASIS
    atoms 1, 7-9     entry C          line   138 file /theoryfs2/ds/metcalf/miniconda2/envs/tf2gpu/share/psi4/basis/cc-pvdz.gbs
    atoms 2          entry O          line   198 file /theoryfs2/ds/metcalf/miniconda2/envs/tf2gpu/share/psi4/basis/cc-pvdz.gbs
    atoms 3-6, 13-22 entry H          line    22 file /theoryfs2/ds/metcalf/miniconda2/envs/tf2gpu/share/psi4/basis/cc-pvdz.gbs
    atoms 10-12      entry N          line   168 file /theoryfs2/ds/metcalf/miniconda2/envs/tf2gpu/share/psi4/basis/cc-pvdz.gbs

         ---------------------------------------------------------
                                   SCF
               by Justin Turney, Rob Parrish, Andy Simmonett
                          and Daniel G. A. Smith
                              RHF Reference
                        1 Threads,    500 MiB Core
         ---------------------------------------------------------

  ==> Geometry <==

    Molecular point group: c1
    Full point group: C1

    Geometry (in Angstrom), charge = 1, multiplicity = 1:

       Center              X                  Y                   Z               Mass
    ------------   -----------------  -----------------  -----------------  -----------------
         C            1.965171985451    -0.768419306981    -3.066860232409    12.000000000000
         O            1.144171985451     0.105580693019    -2.319860232409    15.994914619570
         H            0.884171985451     0.814580693019    -2.940860232409     1.007825032230
         H            2.751171985451    -1.159419306981    -2.419860232409     1.007825032230
         H            2.430171985451    -0.225419306981    -3.890860232409     1.007825032230
         H            1.365635985451    -1.602306306981    -3.460800232409     1.007825032230
         C            0.749171985451    -0.787419306981     0.842139767591    12.000000000000
         C            1.883171985451     0.242580693019     0.838139767591    12.000000000000
         C           -1.476828014549     0.283580693019     1.045139767591    12.000000000000
         N           -0.498828014549    -0.223419306981     0.308139767591    14.003074004430
         N           -1.378828014549     0.321580693019     2.366139767591    14.003074004430
         N           -2.555828014549     0.752580693019     0.456139767591    14.003074004430
         H            1.056171985451    -1.622419306981     0.212139767591     1.007825032230
         H            0.608171985451    -1.184419306981     1.849139767591     1.007825032230
         H            1.532171985451     1.117580693019     1.386139767591     1.007825032230
         H            2.141171985451     0.547580693019    -0.169860232409     1.007825032230
         H           -0.575828014549    -0.146419306981    -0.700860232409     1.007825032230
         H           -0.589828014549    -0.097419306981     2.827139767591     1.007825032230
         H           -2.130828014549     0.702580693019     2.920139767591     1.007825032230
         H           -2.651828014549     0.659580693019    -0.549860232409     1.007825032230
         H           -3.312828014549     1.135580693019     1.001139767591     1.007825032230
         H            2.776343985451    -0.175622306981     1.325324767591     1.007825032230

  Running in c1 symmetry.

  Rotational constants: A =      0.09478  B =      0.02883  C =      0.02359 [cm^-1]
  Rotational constants: A =   2841.49422  B =    864.26711  C =    707.33868 [MHz]
  Nuclear repulsion =  406.342311749566647

  Charge       = 1
  Multiplicity = 1
  Electrons    = 66
  Nalpha       = 33
  Nbeta        = 33

  ==> Algorithm <==

  SCF Algorithm Type is PK.
  DIIS enabled.
  MOM disabled.
  Fractional occupation disabled.
  Guess Type is SAD.
  Energy threshold   = 1.00e-06
  Density threshold  = 1.00e-10
  Integral threshold = 0.00e+00

  ==> Primary Basis <==

  Basis Set: CC-PVDZ
    Blend: CC-PVDZ
    Number of shells: 90
    Number of basis function: 182
    Number of Cartesian functions: 190
    Spherical Harmonics?: true
    Max angular momentum: 2

  ==> Pre-Iterations <==

   -------------------------------------------------------
    Irrep   Nso     Nmo     Nalpha   Nbeta   Ndocc  Nsocc
   -------------------------------------------------------
     A        182     182       0       0       0       0
   -------------------------------------------------------
    Total     182     182      33      33      33       0
   -------------------------------------------------------

  ==> Integral Setup <==

  Using integral reordering PK algorithm.
  Sizing the integral batches needed.
  Building batch lookup table.
   Calculation information:
      Number of atoms:                  22
      Number of AO shells:              90
      Number of primitives:            246
      Number of atomic orbitals:       190
      Number of basis functions:       182

      Integral cutoff                 1.00e-12
      Number of threads:                 1

	Batch   1 pq = [       0,    9405] index = [             0,44231715] size =     44231715
	Batch   2 pq = [    9405,   13301] index = [      44231715,88464951] size =     44233236
	Batch   3 pq = [   13301,   16290] index = [      88464951,132690195] size =     44225244
	Batch   4 pq = [   16290,   16653] index = [     132690195,138669531] size =      5979336
  Task number: 13
  Buffer size: 11059200
  Buffer per thread: 2
  We computed 7396511 shell quartets total.
  Whereas there are 8386560 unique shell quartets.

  ==> DiskJK: Disk-Based J/K Matrices <==

    J tasked:                  Yes
    K tasked:                  Yes
    wK tasked:                  No
    Memory [MiB]:              375
    Schwarz Cutoff:          1E-12

    OpenMP threads:              1

  Minimum eigenvalue in the overlap matrix is 3.8787176501E-03.
  Using Symmetric Orthogonalization.

  SCF Guess: Superposition of Atomic Densities via on-the-fly atomic UHF.

  ==> Iterations <==

                        Total Energy        Delta E     RMS |[F,P]|

   @RHF iter SAD:  -396.87021851555033   -3.96870e+02   0.00000e+00
   @RHF iter   1:  -397.46997110267267   -5.99753e-01   3.38815e-03 DIIS
   @RHF iter   2:  -397.65219131344713   -1.82220e-01   1.45874e-03 DIIS
   @RHF iter   3:  -397.68236018911358   -3.01689e-02   3.52727e-04 DIIS
   @RHF iter   4:  -397.68514304859752   -2.78286e-03   9.42807e-05 DIIS
   @RHF iter   5:  -397.68530775735991   -1.64709e-04   2.28879e-05 DIIS
   @RHF iter   6:  -397.68532319161784   -1.54343e-05   6.35661e-06 DIIS
   @RHF iter   7:  -397.68532441830263   -1.22668e-06   1.84360e-06 DIIS
   @RHF iter   8:  -397.68532453946432   -1.21162e-07   5.78716e-07 DIIS
   @RHF iter   9:  -397.68532454931619   -9.85187e-09   1.11777e-07 DIIS
   @RHF iter  10:  -397.68532454983369   -5.17502e-10   5.16560e-08 DIIS
   @RHF iter  11:  -397.68532454990611   -7.24185e-11   1.35735e-08 DIIS
   @RHF iter  12:  -397.68532454991515   -9.03810e-12   5.71703e-09 DIIS
   @RHF iter  13:  -397.68532454991748   -2.33058e-12   1.53029e-09 DIIS
   @RHF iter  14:  -397.68532454991896   -1.47793e-12   4.67520e-10 DIIS
   @RHF iter  15:  -397.68532454991691    2.04636e-12   1.22757e-10 DIIS
   @RHF iter  16:  -397.68532454991936   -2.44427e-12   4.06567e-11 DIIS
  Energy and wave function converged.

  ==> Post-Iterations <==

    Orbital Energies [Eh]
    ---------------------

    Doubly Occupied:

       1A    -20.684754     2A    -15.776952     3A    -15.774853
       4A    -15.763190     5A    -11.574732     6A    -11.421215
       7A    -11.386110     8A    -11.346061     9A     -1.530256
      10A     -1.482072    11A     -1.384858    12A     -1.379091
      13A     -1.167374    14A     -1.044167    15A     -1.033001
      16A     -0.992865    17A     -0.963203    18A     -0.922673
      19A     -0.847031    20A     -0.843273    21A     -0.808313
      22A     -0.802854    23A     -0.780910    24A     -0.744812
      25A     -0.731989    26A     -0.713013    27A     -0.687367
      28A     -0.652824    29A     -0.634928    30A     -0.615146
      31A     -0.606095    32A     -0.565338    33A     -0.557816

    Virtual:

      34A      0.002603    35A      0.034387    36A      0.039676
      37A      0.047950    38A      0.066790    39A      0.087666
      40A      0.097314    41A      0.112031    42A      0.122964
      43A      0.143754    44A      0.149994    45A      0.167631
      46A      0.180091    47A      0.187597    48A      0.210818
      49A      0.239669    50A      0.243969    51A      0.264788
      52A      0.298068    53A      0.347287    54A      0.362487
      55A      0.457967    56A      0.465978    57A      0.496375
      58A      0.506179    59A      0.527606    60A      0.538703
      61A      0.544573    62A      0.558258    63A      0.562436
      64A      0.569926    65A      0.583239    66A      0.598250
      67A      0.632016    68A      0.690293    69A      0.702325
      70A      0.709601    71A      0.728766    72A      0.746500
      73A      0.752010    74A      0.764971    75A      0.777645
      76A      0.780188    77A      0.792844    78A      0.799178
      79A      0.815354    80A      0.819367    81A      0.837786
      82A      0.857584    83A      0.865971    84A      0.875721
      85A      0.936152    86A      0.939147    87A      0.971986
      88A      1.005327    89A      1.025523    90A      1.057793
      91A      1.066882    92A      1.075942    93A      1.120349
      94A      1.135878    95A      1.158277    96A      1.173833
      97A      1.204864    98A      1.222891    99A      1.232864
     100A      1.257566   101A      1.299100   102A      1.337687
     103A      1.347640   104A      1.371182   105A      1.404017
     106A      1.462874   107A      1.511677   108A      1.519454
     109A      1.527187   110A      1.561703   111A      1.569379
     112A      1.577650   113A      1.613707   114A      1.646088
     115A      1.680746   116A      1.692105   117A      1.715626
     118A      1.731388   119A      1.737392   120A      1.748256
     121A      1.758528   122A      1.761902   123A      1.792323
     124A      1.809338   125A      1.816213   126A      1.822771
     127A      1.825106   128A      1.834853   129A      1.837877
     130A      1.865011   131A      1.881136   132A      1.905100
     133A      1.919161   134A      1.953599   135A      1.959340
     136A      1.992768   137A      2.015339   138A      2.044716
     139A      2.054080   140A      2.119651   141A      2.150800
     142A      2.190351   143A      2.205707   144A      2.246939
     145A      2.255437   146A      2.266189   147A      2.269579
     148A      2.284713   149A      2.292821   150A      2.334210
     151A      2.350296   152A      2.360086   153A      2.368794
     154A      2.412018   155A      2.438525   156A      2.452581
     157A      2.495282   158A      2.585160   159A      2.631836
     160A      2.637060   161A      2.642250   162A      2.661113
     163A      2.668779   164A      2.679341   165A      2.721773
     166A      2.745097   167A      2.776452   168A      2.796708
     169A      2.831148   170A      2.862365   171A      2.879147
     172A      2.988091   173A      3.083119   174A      3.108088
     175A      3.137871   176A      3.187884   177A      3.249153
     178A      3.361092   179A      3.452413   180A      3.598782
     181A      3.665110   182A      3.959751

    Final Occupation by Irrep:
              A
    DOCC [    33 ]

  @RHF Final Energy:  -397.68532454991936

   => Energetics <=

    Nuclear Repulsion Energy =            406.3423117495666474
    One-Electron Energy =               -1335.6170035155760161
    Two-Electron Energy =                 531.5893672160900678
    Total Energy =                       -397.6853245499193008

Computation Completed

Properties will be evaluated at   0.000000,   0.000000,   0.000000 [a0]

Properties computed using the SCF density matrix

  Nuclear Dipole Moment: [e a0]
     X:     5.9095      Y:    -1.1606      Z:    -2.4687

  Electronic Dipole Moment: [e a0]
     X:    -7.8204      Y:     1.6163      Z:     3.2377

  Dipole Moment: [e a0]
     X:    -1.9109      Y:     0.4557      Z:     0.7690     Total:     2.1096

  Dipole Moment: [D]
     X:    -4.8570      Y:     1.1582      Z:     1.9545     Total:     5.3621

*** tstop() called on ds3 at Tue Apr 28 14:56:20 2020
Module time:
	user time   =      48.67 seconds =       0.81 minutes
	system time =      19.07 seconds =       0.32 minutes
	total time  =        111 seconds =       1.85 minutes
Total time:
	user time   =      48.67 seconds =       0.81 minutes
	system time =      19.07 seconds =       0.32 minutes
	total time  =        111 seconds =       1.85 minutes
                                     G D M A

                                 by Anthony Stone

                           version 2.2.06, 22 June 2011

               Distributed Multipoles from Gaussian wavefunctions

Starting at 14:56:20 on 28 Apr 2020

Using SCF density matrix from file ./SSI/SSI-044SER-118ARG-2-dimer.test.19851.fchk

                         Distributed Multipole Analysis

Standard DMA

Positions and radii in angstrom
Multipole moments in atomic units, ea_0^k for rank k

C          x =  1.965172  y = -0.768419  z = -3.066860 angstrom
           Maximum rank =  0   Radius =  0.650 angstrom
                   Q00  =  -0.067936

O          x =  1.144172  y =  0.105581  z = -2.319860 angstrom
           Maximum rank =  0   Radius =  0.650 angstrom
                   Q00  =  -0.624268

H          x =  0.884172  y =  0.814581  z = -2.940860 angstrom
           Maximum rank =  0   Radius =  0.325 angstrom
                   Q00  =   0.412957

H          x =  2.751172  y = -1.159419  z = -2.419860 angstrom
           Maximum rank =  0   Radius =  0.325 angstrom
                   Q00  =   0.108790

H          x =  2.430172  y = -0.225419  z = -3.890860 angstrom
           Maximum rank =  0   Radius =  0.325 angstrom
                   Q00  =   0.099459

H          x =  1.365636  y = -1.602306  z = -3.460800 angstrom
           Maximum rank =  0   Radius =  0.325 angstrom
                   Q00  =   0.092531

C          x =  0.749172  y = -0.787419  z =  0.842140 angstrom
           Maximum rank =  0   Radius =  0.650 angstrom
                   Q00  =   0.017131

C          x =  1.883172  y =  0.242581  z =  0.838140 angstrom
           Maximum rank =  0   Radius =  0.650 angstrom
                   Q00  =  -0.236874

C          x = -1.476828  y =  0.283581  z =  1.045140 angstrom
           Maximum rank =  0   Radius =  0.650 angstrom
                   Q00  =   1.078407

N          x = -0.498828  y = -0.223419  z =  0.308140 angstrom
           Maximum rank =  0   Radius =  0.650 angstrom
                   Q00  =  -0.512595

N          x = -1.378828  y =  0.321581  z =  2.366140 angstrom
           Maximum rank =  0   Radius =  0.650 angstrom
                   Q00  =  -0.583969

N          x = -2.555828  y =  0.752581  z =  0.456140 angstrom
           Maximum rank =  0   Radius =  0.650 angstrom
                   Q00  =  -0.595255

H          x =  1.056172  y = -1.622419  z =  0.212140 angstrom
           Maximum rank =  0   Radius =  0.325 angstrom
                   Q00  =   0.127921

H          x =  0.608172  y = -1.184419  z =  1.849140 angstrom
           Maximum rank =  0   Radius =  0.325 angstrom
                   Q00  =   0.065182

H          x =  1.532172  y =  1.117581  z =  1.386140 angstrom
           Maximum rank =  0   Radius =  0.325 angstrom
                   Q00  =   0.079927

H          x =  2.141172  y =  0.547581  z = -0.169860 angstrom
           Maximum rank =  0   Radius =  0.325 angstrom
                   Q00  =   0.124215

H          x = -0.575828  y = -0.146419  z = -0.700860 angstrom
           Maximum rank =  0   Radius =  0.325 angstrom
                   Q00  =   0.244605

H          x = -0.589828  y = -0.097419  z =  2.827140 angstrom
           Maximum rank =  0   Radius =  0.325 angstrom
                   Q00  =   0.269704

H          x = -2.130828  y =  0.702581  z =  2.920140 angstrom
           Maximum rank =  0   Radius =  0.325 angstrom
                   Q00  =   0.261281

H          x = -2.651828  y =  0.659581  z = -0.549860 angstrom
           Maximum rank =  0   Radius =  0.325 angstrom
                   Q00  =   0.265227

H          x = -3.312828  y =  1.135581  z =  1.001140 angstrom
           Maximum rank =  0   Radius =  0.325 angstrom
                   Q00  =   0.263399

H          x =  2.776344  y = -0.175622  z =  1.325325 angstrom
           Maximum rank =  0   Radius =  0.325 angstrom
                   Q00  =   0.110165

Total multipoles referred to origin at
           x =   0.000000,  y =    0.000000,  z =    0.000000 angstrom
                   Q00  =   1.000000

Finished at 14:56:20 on 28 Apr 2020

  DMA results are available in the Python driver through the
	  variable('DMA DISTRIBUTED MULTIPOLES')
  and
	  variable('DMA TOTAL MULTIPOLES')
  commands.

    Psi4 stopped on: Tuesday, 28 April 2020 02:56PM
    Psi4 wall time for execution: 0:01:50.34

*** Psi4 exiting successfully. Buy a developer a beer!
