                               Psi4 1.3.2 release

  ==> Input File <==

--------------------------------------------------------------------------
import numpy as np
set {scf_type pk
basis cc-pvdz
d_convergence 10
gdma_switch   0
gdma_limit    0
gdma_origin   [ 0.0,  0.0,  0.0 ]
}
molecule test {
    units Angstrom
    0 1
    --
    0 1
    C               -0.208518185241184     3.279878186331727    -1.126120860303381
    C                0.732481814758816     4.115878186331727    -1.960120860303382
    H               -0.287518185241184     2.272878186331727    -1.535120860303381
    H                0.159481814758816     3.226878186331727    -0.102120860303381
    H               -1.201518185241184     3.725878186331727    -1.088120860303382
    H                0.796481814758816     5.116878186331726    -1.535120860303381
    H                0.397981814758816     4.193648186331727    -3.005140860303381
    H                1.736291814758816     3.666038186331727    -1.963010860303382
    C               -1.234518185241184     1.097878186331727     1.817879139696618
    C               -0.173518185241184     1.366878186331727     2.882879139696619
    C               -1.062518185241184    -0.179121813668273     1.056879139696619
    C               -1.955518185241184    -1.191121813668273     1.015879139696619
    C                0.039481814758816    -0.565121813668273     0.198879139696619
    C               -0.263518185241184    -1.849121813668273    -0.307120860303381
    C                1.264481814758816     0.012878186331727    -0.174120860303381
    C                0.605481814758816    -2.551121813668273    -1.133120860303381
    C                2.121481814758816    -0.689121813668273    -1.035120860303381
    C                1.793481814758816    -1.964121813668273    -1.503120860303381
    N               -1.483518185241184    -2.198121813668273     0.211879139696619
    H               -2.223518185241184     1.102878186331727     2.274879139696619
    H               -1.218518185241184     1.905878186331727     1.091879139696619
    H                0.804481814758816     1.420878186331727     2.405879139696619
    H               -2.895518185241184    -1.208121813668273     1.556879139696619
    H               -1.987518185241184    -3.057121813668273     0.023879139696619
    H                1.528481814758816     0.990878186331727     0.191879139696619
    H                0.335481814758816    -3.529121813668273    -1.500120860303382
    H                3.045481814758816    -0.234121813668273    -1.343120860303381
    H                2.466481814758816    -2.484121813668273    -2.170120860303381
    H               -0.189368185241184     0.545898186331727     3.614819139696618
    H               -0.405478185241184     2.353428186331727     3.310559139696619

}
e, wfn = energy('scf', return_wfn=True)
gdma(wfn)
dmavals = variable('DMA DISTRIBUTED MULTIPOLES')
charges = np.array(dmavals)
print(charges)
np.save('SSI-218ALA-258TRP-1-dimer.npy', np.array(charges))--------------------------------------------------------------------------

*** tstart() called on ds3
*** at Mon Apr 27 17:27:13 2020

   => Loading Basis Set <=

    Name: CC-PVDZ
    Role: ORBITAL
    Keyword: BASIS
    atoms 1-2, 9-18  entry C          line   138 file /theoryfs2/ds/metcalf/miniconda2/envs/tf2gpu/share/psi4/basis/cc-pvdz.gbs
    atoms 3-8, 20-30 entry H          line    22 file /theoryfs2/ds/metcalf/miniconda2/envs/tf2gpu/share/psi4/basis/cc-pvdz.gbs
    atoms 19         entry N          line   168 file /theoryfs2/ds/metcalf/miniconda2/envs/tf2gpu/share/psi4/basis/cc-pvdz.gbs

         ---------------------------------------------------------
                                   SCF
               by Justin Turney, Rob Parrish, Andy Simmonett
                          and Daniel G. A. Smith
                              RHF Reference
                        1 Threads,    500 MiB Core
         ---------------------------------------------------------

  ==> Geometry <==

    Molecular point group: c1
    Full point group: C1

    Geometry (in Angstrom), charge = 0, multiplicity = 1:

       Center              X                  Y                   Z               Mass
    ------------   -----------------  -----------------  -----------------  -----------------
         C           -0.208518185241     3.279878186332    -1.126120860303    12.000000000000
         C            0.732481814759     4.115878186332    -1.960120860303    12.000000000000
         H           -0.287518185241     2.272878186332    -1.535120860303     1.007825032230
         H            0.159481814759     3.226878186332    -0.102120860303     1.007825032230
         H           -1.201518185241     3.725878186332    -1.088120860303     1.007825032230
         H            0.796481814759     5.116878186332    -1.535120860303     1.007825032230
         H            0.397981814759     4.193648186332    -3.005140860303     1.007825032230
         H            1.736291814759     3.666038186332    -1.963010860303     1.007825032230
         C           -1.234518185241     1.097878186332     1.817879139697    12.000000000000
         C           -0.173518185241     1.366878186332     2.882879139697    12.000000000000
         C           -1.062518185241    -0.179121813668     1.056879139697    12.000000000000
         C           -1.955518185241    -1.191121813668     1.015879139697    12.000000000000
         C            0.039481814759    -0.565121813668     0.198879139697    12.000000000000
         C           -0.263518185241    -1.849121813668    -0.307120860303    12.000000000000
         C            1.264481814759     0.012878186332    -0.174120860303    12.000000000000
         C            0.605481814759    -2.551121813668    -1.133120860303    12.000000000000
         C            2.121481814759    -0.689121813668    -1.035120860303    12.000000000000
         C            1.793481814759    -1.964121813668    -1.503120860303    12.000000000000
         N           -1.483518185241    -2.198121813668     0.211879139697    14.003074004430
         H           -2.223518185241     1.102878186332     2.274879139697     1.007825032230
         H           -1.218518185241     1.905878186332     1.091879139697     1.007825032230
         H            0.804481814759     1.420878186332     2.405879139697     1.007825032230
         H           -2.895518185241    -1.208121813668     1.556879139697     1.007825032230
         H           -1.987518185241    -3.057121813668     0.023879139697     1.007825032230
         H            1.528481814759     0.990878186332     0.191879139697     1.007825032230
         H            0.335481814759    -3.529121813668    -1.500120860303     1.007825032230
         H            3.045481814759    -0.234121813668    -1.343120860303     1.007825032230
         H            2.466481814759    -2.484121813668    -2.170120860303     1.007825032230
         H           -0.189368185241     0.545898186332     3.614819139697     1.007825032230
         H           -0.405478185241     2.353428186332     3.310559139697     1.007825032230

  Running in c1 symmetry.

  Rotational constants: A =      0.02698  B =      0.01895  C =      0.01338 [cm^-1]
  Rotational constants: A =    808.87265  B =    567.98181  C =    401.04920 [MHz]
  Nuclear repulsion =  759.412646307997193

  Charge       = 0
  Multiplicity = 1
  Electrons    = 96
  Nalpha       = 48
  Nbeta        = 48

  ==> Algorithm <==

  SCF Algorithm Type is PK.
  DIIS enabled.
  MOM disabled.
  Fractional occupation disabled.
  Guess Type is SAD.
  Energy threshold   = 1.00e-06
  Density threshold  = 1.00e-10
  Integral threshold = 0.00e+00

  ==> Primary Basis <==

  Basis Set: CC-PVDZ
    Blend: CC-PVDZ
    Number of shells: 129
    Number of basis function: 267
    Number of Cartesian functions: 280
    Spherical Harmonics?: true
    Max angular momentum: 2

  ==> Pre-Iterations <==

   -------------------------------------------------------
    Irrep   Nso     Nmo     Nalpha   Nbeta   Ndocc  Nsocc
   -------------------------------------------------------
     A        267     267       0       0       0       0
   -------------------------------------------------------
    Total     267     267      48      48      48       0
   -------------------------------------------------------

  ==> Integral Setup <==

  Using integral reordering PK algorithm.
  Sizing the integral batches needed.
  Building batch lookup table.
   Calculation information:
      Number of atoms:                  30
      Number of AO shells:             129
      Number of primitives:            371
      Number of atomic orbitals:       280
      Number of basis functions:       267

      Integral cutoff                 1.00e-12
      Number of threads:                 1

	Batch   1 pq = [       0,    9405] index = [             0,44231715] size =     44231715
	Batch   2 pq = [    9405,   13301] index = [      44231715,88464951] size =     44233236
	Batch   3 pq = [   13301,   16290] index = [      88464951,132690195] size =     44225244
	Batch   4 pq = [   16290,   18810] index = [     132690195,176917455] size =     44227260
	Batch   5 pq = [   18810,   21030] index = [     176917455,221140965] size =     44223510
	Batch   6 pq = [   21030,   23037] index = [     221140965,265363203] size =     44222238
	Batch   7 pq = [   23037,   24883] index = [     265363203,309594286] size =     44231083
	Batch   8 pq = [   24883,   26601] index = [     309594286,353819901] size =     44225615
	Batch   9 pq = [   26601,   28214] index = [     353819901,398029005] size =     44209104
	Batch  10 pq = [   28214,   29740] index = [     398029005,442248670] size =     44219665
	Batch  11 pq = [   29740,   31191] index = [     442248670,486454836] size =     44206166
	Batch  12 pq = [   31191,   32578] index = [     486454836,530679331] size =     44224495
	Batch  13 pq = [   32578,   33908] index = [     530679331,574893186] size =     44213855
	Batch  14 pq = [   33908,   35188] index = [     574893186,619115266] size =     44222080
	Batch  15 pq = [   35188,   35778] index = [     619115266,640050531] size =     20935265
  Task number: 58
  Buffer size: 11059200
  Buffer per thread: 2
  We computed 37016881 shell quartets total.
  Whereas there are 35158305 unique shell quartets.
     5.29 percent of shell quartets recomputed by reordering.

  ==> DiskJK: Disk-Based J/K Matrices <==

    J tasked:                  Yes
    K tasked:                  Yes
    wK tasked:                  No
    Memory [MiB]:              375
    Schwarz Cutoff:          1E-12

    OpenMP threads:              1

  Minimum eigenvalue in the overlap matrix is 2.2922462592E-04.
  Using Symmetric Orthogonalization.

  SCF Guess: Superposition of Atomic Densities via on-the-fly atomic UHF.

  ==> Iterations <==

                        Total Energy        Delta E     RMS |[F,P]|

   @RHF iter SAD:  -518.12619536733087   -5.18126e+02   0.00000e+00
   @RHF iter   1:  -518.49273454530737   -3.66539e-01   2.50218e-03 DIIS
   @RHF iter   2:  -518.75061801689560   -2.57883e-01   1.11650e-03 DIIS
   @RHF iter   3:  -518.79749558265155   -4.68776e-02   2.91939e-04 DIIS
   @RHF iter   4:  -518.80174574267187   -4.25016e-03   1.36040e-04 DIIS
   @RHF iter   5:  -518.80248372778203   -7.37985e-04   1.90558e-05 DIIS
   @RHF iter   6:  -518.80251479872686   -3.10709e-05   8.47444e-06 DIIS
   @RHF iter   7:  -518.80252065490322   -5.85618e-06   3.50363e-06 DIIS
   @RHF iter   8:  -518.80252228359063   -1.62869e-06   1.40175e-06 DIIS
   @RHF iter   9:  -518.80252263288196   -3.49291e-07   6.27980e-07 DIIS
   @RHF iter  10:  -518.80252270506412   -7.21822e-08   2.86664e-07 DIIS
   @RHF iter  11:  -518.80252272108783   -1.60237e-08   1.10829e-07 DIIS
   @RHF iter  12:  -518.80252272355801   -2.47019e-09   4.43321e-08 DIIS
   @RHF iter  13:  -518.80252272380324   -2.45223e-10   1.39615e-08 DIIS
   @RHF iter  14:  -518.80252272382029   -1.70530e-11   4.45038e-09 DIIS
   @RHF iter  15:  -518.80252272382063   -3.41061e-13   1.77487e-09 DIIS
   @RHF iter  16:  -518.80252272381654    4.09273e-12   8.27610e-10 DIIS
   @RHF iter  17:  -518.80252272381949   -2.95586e-12   3.90594e-10 DIIS
   @RHF iter  18:  -518.80252272381972   -2.27374e-13   1.53666e-10 DIIS
   @RHF iter  19:  -518.80252272382711   -7.38964e-12   5.72179e-11 DIIS
  Energy and wave function converged.

  ==> Post-Iterations <==

    Orbital Energies [Eh]
    ---------------------

    Doubly Occupied:

       1A    -15.598710     2A    -11.263030     3A    -11.261493
       4A    -11.232236     5A    -11.228987     6A    -11.227686
       7A    -11.222163     8A    -11.221435     9A    -11.221180
      10A    -11.217563    11A    -11.214047    12A    -11.213174
      13A    -11.210221    14A     -1.295069    15A     -1.128684
      16A     -1.082535    17A     -1.018279    18A     -1.014136
      19A     -0.992543    20A     -0.970953    21A     -0.853708
      22A     -0.839283    23A     -0.832559    24A     -0.803132
      25A     -0.748178    26A     -0.716703    27A     -0.663895
      28A     -0.644075    29A     -0.617199    30A     -0.601195
      31A     -0.597255    32A     -0.592115    33A     -0.586214
      34A     -0.581150    35A     -0.576186    36A     -0.544967
      37A     -0.512771    38A     -0.508310    39A     -0.505763
      40A     -0.497560    41A     -0.481997    42A     -0.480461
      43A     -0.475826    44A     -0.461409    45A     -0.459267
      46A     -0.370035    47A     -0.295440    48A     -0.276484

    Virtual:

      49A      0.126150    50A      0.169115    51A      0.173967
      52A      0.181857    53A      0.193389    54A      0.206537
      55A      0.213642    56A      0.225108    57A      0.238882
      58A      0.241477    59A      0.254790    60A      0.261572
      61A      0.265684    62A      0.272431    63A      0.280651
      64A      0.285663    65A      0.294066    66A      0.305552
      67A      0.321279    68A      0.353050    69A      0.382764
      70A      0.387015    71A      0.398478    72A      0.420893
      73A      0.428675    74A      0.440215    75A      0.447677
      76A      0.471089    77A      0.492848    78A      0.503162
      79A      0.517920    80A      0.598066    81A      0.601868
      82A      0.609016    83A      0.615177    84A      0.618053
      85A      0.630782    86A      0.643013    87A      0.658349
      88A      0.665973    89A      0.677955    90A      0.690203
      91A      0.697346    92A      0.711455    93A      0.723752
      94A      0.730843    95A      0.738670    96A      0.743484
      97A      0.744599    98A      0.765742    99A      0.767820
     100A      0.774890   101A      0.790094   102A      0.804408
     103A      0.810127   104A      0.840510   105A      0.851133
     106A      0.872775   107A      0.877797   108A      0.882029
     109A      0.883474   110A      0.889767   111A      0.898581
     112A      0.901436   113A      0.907609   114A      0.916187
     115A      0.919252   116A      0.923279   117A      0.931253
     118A      0.935874   119A      0.940743   120A      0.953920
     121A      0.970926   122A      0.977680   123A      0.986980
     124A      0.992920   125A      1.004456   126A      1.015790
     127A      1.029595   128A      1.073810   129A      1.078416
     130A      1.086715   131A      1.091476   132A      1.117106
     133A      1.131143   134A      1.139976   135A      1.145096
     136A      1.163309   137A      1.176180   138A      1.181608
     139A      1.201247   140A      1.218011   141A      1.236513
     142A      1.241140   143A      1.256424   144A      1.272120
     145A      1.275359   146A      1.296447   147A      1.301975
     148A      1.326733   149A      1.334056   150A      1.363747
     151A      1.367227   152A      1.379898   153A      1.429701
     154A      1.458845   155A      1.461384   156A      1.489557
     157A      1.491460   158A      1.511840   159A      1.538842
     160A      1.582274   161A      1.587325   162A      1.615741
     163A      1.633791   164A      1.664251   165A      1.675196
     166A      1.678615   167A      1.690514   168A      1.700879
     169A      1.716932   170A      1.740234   171A      1.745438
     172A      1.769496   173A      1.788136   174A      1.795408
     175A      1.824030   176A      1.835118   177A      1.871974
     178A      1.879989   179A      1.883209   180A      1.883885
     181A      1.887632   182A      1.900884   183A      1.909867
     184A      1.922790   185A      1.932727   186A      1.936022
     187A      1.938540   188A      1.948300   189A      1.954571
     190A      1.955120   191A      1.961365   192A      1.969676
     193A      1.974811   194A      1.985857   195A      1.996855
     196A      1.999587   197A      2.015437   198A      2.018078
     199A      2.038389   200A      2.050276   201A      2.065726
     202A      2.074806   203A      2.080081   204A      2.097175
     205A      2.100836   206A      2.103367   207A      2.108172
     208A      2.113244   209A      2.134515   210A      2.150322
     211A      2.160260   212A      2.175459   213A      2.177937
     214A      2.195110   215A      2.225315   216A      2.247668
     217A      2.279949   218A      2.293996   219A      2.307320
     220A      2.322262   221A      2.333067   222A      2.345485
     223A      2.360329   224A      2.364846   225A      2.397243
     226A      2.405281   227A      2.458399   228A      2.471152
     229A      2.477958   230A      2.497859   231A      2.530874
     232A      2.541872   233A      2.549673   234A      2.566094
     235A      2.578643   236A      2.590909   237A      2.624059
     238A      2.659725   239A      2.673302   240A      2.690045
     241A      2.729953   242A      2.763535   243A      2.778678
     244A      2.785464   245A      2.790891   246A      2.803078
     247A      2.804331   248A      2.813228   249A      2.841628
     250A      2.868517   251A      2.883608   252A      2.889159
     253A      2.926229   254A      2.933377   255A      2.960909
     256A      2.974105   257A      2.996737   258A      3.009129
     259A      3.053788   260A      3.060279   261A      3.109305
     262A      3.137199   263A      3.218020   264A      3.310053
     265A      3.395087   266A      3.748375   267A      3.953959

    Final Occupation by Irrep:
              A
    DOCC [    48 ]

  @RHF Final Energy:  -518.80252272382711

   => Energetics <=

    Nuclear Repulsion Energy =            759.4126463079971927
    One-Electron Energy =               -2208.5158121178228612
    Two-Electron Energy =                 930.3006430859985585
    Total Energy =                       -518.8025227238271100

Computation Completed

Properties will be evaluated at   0.000000,   0.000000,   0.000000 [a0]

Properties computed using the SCF density matrix

  Nuclear Dipole Moment: [e a0]
     X:     0.8121      Y:    18.7646      Z:     0.2137

  Electronic Dipole Moment: [e a0]
     X:    -1.4879      Y:   -19.2377      Z:    -0.1330

  Dipole Moment: [e a0]
     X:    -0.6758      Y:    -0.4730      Z:     0.0808     Total:     0.8288

  Dipole Moment: [D]
     X:    -1.7176      Y:    -1.2024      Z:     0.2053     Total:     2.1067

*** tstop() called on ds3 at Mon Apr 27 17:34:44 2020
Module time:
	user time   =     292.70 seconds =       4.88 minutes
	system time =     103.44 seconds =       1.72 minutes
	total time  =        451 seconds =       7.52 minutes
Total time:
	user time   =     292.70 seconds =       4.88 minutes
	system time =     103.44 seconds =       1.72 minutes
	total time  =        451 seconds =       7.52 minutes
                                     G D M A

                                 by Anthony Stone

                           version 2.2.06, 22 June 2011

               Distributed Multipoles from Gaussian wavefunctions

Starting at 17:34:45 on 27 Apr 2020

Using SCF density matrix from file ./SSI/SSI-218ALA-258TRP-1-dimer.test.32628.fchk

                         Distributed Multipole Analysis

Standard DMA

Positions and radii in angstrom
Multipole moments in atomic units, ea_0^k for rank k

C          x = -0.208518  y =  3.279878  z = -1.126121 angstrom
           Maximum rank =  0   Radius =  0.650 angstrom
                   Q00  =  -0.244004

C          x =  0.732482  y =  4.115878  z = -1.960121 angstrom
           Maximum rank =  0   Radius =  0.650 angstrom
                   Q00  =  -0.221476

H          x = -0.287518  y =  2.272878  z = -1.535121 angstrom
           Maximum rank =  0   Radius =  0.325 angstrom
                   Q00  =   0.093527

H          x =  0.159482  y =  3.226878  z = -0.102121 angstrom
           Maximum rank =  0   Radius =  0.325 angstrom
                   Q00  =   0.067629

H          x = -1.201518  y =  3.725878  z = -1.088121 angstrom
           Maximum rank =  0   Radius =  0.325 angstrom
                   Q00  =   0.074826

H          x =  0.796482  y =  5.116878  z = -1.535121 angstrom
           Maximum rank =  0   Radius =  0.325 angstrom
                   Q00  =   0.075602

H          x =  0.397982  y =  4.193648  z = -3.005141 angstrom
           Maximum rank =  0   Radius =  0.325 angstrom
                   Q00  =   0.079650

H          x =  1.736292  y =  3.666038  z = -1.963011 angstrom
           Maximum rank =  0   Radius =  0.325 angstrom
                   Q00  =   0.076253

C          x = -1.234518  y =  1.097878  z =  1.817879 angstrom
           Maximum rank =  0   Radius =  0.650 angstrom
                   Q00  =  -0.032396

C          x = -0.173518  y =  1.366878  z =  2.882879 angstrom
           Maximum rank =  0   Radius =  0.650 angstrom
                   Q00  =  -0.243814

C          x = -1.062518  y = -0.179122  z =  1.056879 angstrom
           Maximum rank =  0   Radius =  0.650 angstrom
                   Q00  =  -0.133264

C          x = -1.955518  y = -1.191122  z =  1.015879 angstrom
           Maximum rank =  0   Radius =  0.650 angstrom
                   Q00  =   0.078170

C          x =  0.039482  y = -0.565122  z =  0.198879 angstrom
           Maximum rank =  0   Radius =  0.650 angstrom
                   Q00  =  -0.063247

C          x = -0.263518  y = -1.849122  z = -0.307121 angstrom
           Maximum rank =  0   Radius =  0.650 angstrom
                   Q00  =   0.268943

C          x =  1.264482  y =  0.012878  z = -0.174121 angstrom
           Maximum rank =  0   Radius =  0.650 angstrom
                   Q00  =  -0.101678

C          x =  0.605482  y = -2.551122  z = -1.133121 angstrom
           Maximum rank =  0   Radius =  0.650 angstrom
                   Q00  =  -0.120009

C          x =  2.121482  y = -0.689122  z = -1.035121 angstrom
           Maximum rank =  0   Radius =  0.650 angstrom
                   Q00  =  -0.047501

C          x =  1.793482  y = -1.964122  z = -1.503121 angstrom
           Maximum rank =  0   Radius =  0.650 angstrom
                   Q00  =  -0.073771

N          x = -1.483518  y = -2.198122  z =  0.211879 angstrom
           Maximum rank =  0   Radius =  0.650 angstrom
                   Q00  =  -0.500130

H          x = -2.223518  y =  1.102878  z =  2.274879 angstrom
           Maximum rank =  0   Radius =  0.325 angstrom
                   Q00  =   0.066897

H          x = -1.218518  y =  1.905878  z =  1.091879 angstrom
           Maximum rank =  0   Radius =  0.325 angstrom
                   Q00  =   0.071800

H          x =  0.804482  y =  1.420878  z =  2.405879 angstrom
           Maximum rank =  0   Radius =  0.325 angstrom
                   Q00  =   0.082233

H          x = -2.895518  y = -1.208122  z =  1.556879 angstrom
           Maximum rank =  0   Radius =  0.325 angstrom
                   Q00  =   0.102985

H          x = -1.987518  y = -3.057122  z =  0.023879 angstrom
           Maximum rank =  0   Radius =  0.325 angstrom
                   Q00  =   0.213191

H          x =  1.528482  y =  0.990878  z =  0.191879 angstrom
           Maximum rank =  0   Radius =  0.325 angstrom
                   Q00  =   0.072070

H          x =  0.335482  y = -3.529122  z = -1.500121 angstrom
           Maximum rank =  0   Radius =  0.325 angstrom
                   Q00  =   0.070866

H          x =  3.045482  y = -0.234122  z = -1.343121 angstrom
           Maximum rank =  0   Radius =  0.325 angstrom
                   Q00  =   0.059462

H          x =  2.466482  y = -2.484122  z = -2.170121 angstrom
           Maximum rank =  0   Radius =  0.325 angstrom
                   Q00  =   0.065071

H          x = -0.189368  y =  0.545898  z =  3.614819 angstrom
           Maximum rank =  0   Radius =  0.325 angstrom
                   Q00  =   0.082898

H          x = -0.405478  y =  2.353428  z =  3.310559 angstrom
           Maximum rank =  0   Radius =  0.325 angstrom
                   Q00  =   0.079216

Total multipoles referred to origin at
           x =   0.000000,  y =    0.000000,  z =    0.000000 angstrom
                   Q00  =  -0.000000

Finished at 17:34:45 on 27 Apr 2020

  DMA results are available in the Python driver through the
	  variable('DMA DISTRIBUTED MULTIPOLES')
  and
	  variable('DMA TOTAL MULTIPOLES')
  commands.

    Psi4 stopped on: Monday, 27 April 2020 05:34PM
    Psi4 wall time for execution: 0:07:31.28

*** Psi4 exiting successfully. Buy a developer a beer!
