                               Psi4 1.3.2 release

  ==> Input File <==

--------------------------------------------------------------------------
import numpy as np
set {scf_type pk
basis cc-pvdz
d_convergence 10
gdma_switch   0
gdma_limit    0
gdma_origin   [ 0.0,  0.0,  0.0 ]
}
molecule test {
    units Angstrom
    1 1
    --
    1 1
    C                1.218667797690522    -0.876381270491361    -0.066921750048538
    C                2.349667797690523    -0.834381270491361     0.956078249951462
    C                1.269667797690522     1.463618729508638    -0.873921750048538
    N                0.645667797690522     0.457618729508638    -0.276921750048538
    N                2.497667797690522     1.319618729508639    -1.335921750048538
    N                0.671667797690522     2.628618729508638    -1.000921750048538
    H                1.582667797690522    -1.287381270491361    -1.011921750048538
    H                0.440667797690522    -1.544381270491361     0.305078249951462
    H                1.976667797690522    -0.357381270491361     1.864078249951462
    H                3.181667797690523    -0.241381270491362     0.586078249951462
    H               -0.174332202309478     0.688618729508639     0.288078249951462
    H                3.003667797690523     0.453618729508639    -1.226921750048538
    H                2.969667797690522     2.117618729508639    -1.766921750048538
    H               -0.231332202309478     2.777618729508638    -0.577921750048538
    H                1.171667797690523     3.400618729508639    -1.414921750048538
    H                2.714897797690522    -1.838055270491361     1.219218249951462
    C               -2.340332202309478    -1.445381270491361     0.844078249951462
    C               -3.242332202309478    -2.425381270491362     0.094078249951462
    C               -3.110332202309477    -0.420381270491362     1.667078249951462
    H               -1.649332202309478    -1.980381270491361     1.490078249951462
    H               -1.761332202309478    -0.911381270491361     0.093078249951462
    H               -3.938332202309478    -1.868381270491362    -0.531921750048538
    H               -3.716332202309478     0.187618729508639     0.997078249951462
    H               -3.803332202309478    -0.912381270491362     2.332078249951461
    H               -3.809452202309478    -3.044602270491362     0.804668249951462
    H               -2.630092202309478    -3.059227270491362    -0.564261750048538
    H               -2.433952202309478     0.239326729508639     2.230368249951462

}
e, wfn = energy('scf', return_wfn=True)
gdma(wfn)
dmavals = variable('DMA DISTRIBUTED MULTIPOLES')
charges = np.array(dmavals)
print(charges)
np.save('SSI-061ARG-083GLU-1-dimer.npy', np.array(charges))--------------------------------------------------------------------------

*** tstart() called on ds3
*** at Sun Apr 26 18:19:06 2020

   => Loading Basis Set <=

    Name: CC-PVDZ
    Role: ORBITAL
    Keyword: BASIS
    atoms 1-3, 17-19  entry C          line   138 file /theoryfs2/ds/metcalf/miniconda2/envs/tf2gpu/share/psi4/basis/cc-pvdz.gbs
    atoms 4-6         entry N          line   168 file /theoryfs2/ds/metcalf/miniconda2/envs/tf2gpu/share/psi4/basis/cc-pvdz.gbs
    atoms 7-16, 20-27 entry H          line    22 file /theoryfs2/ds/metcalf/miniconda2/envs/tf2gpu/share/psi4/basis/cc-pvdz.gbs

         ---------------------------------------------------------
                                   SCF
               by Justin Turney, Rob Parrish, Andy Simmonett
                          and Daniel G. A. Smith
                              RHF Reference
                        1 Threads,    500 MiB Core
         ---------------------------------------------------------

  ==> Geometry <==

    Molecular point group: c1
    Full point group: C1

    Geometry (in Angstrom), charge = 1, multiplicity = 1:

       Center              X                  Y                   Z               Mass
    ------------   -----------------  -----------------  -----------------  -----------------
         C            1.218667797691    -0.876381270491    -0.066921750049    12.000000000000
         C            2.349667797691    -0.834381270491     0.956078249951    12.000000000000
         C            1.269667797691     1.463618729509    -0.873921750049    12.000000000000
         N            0.645667797691     0.457618729509    -0.276921750049    14.003074004430
         N            2.497667797691     1.319618729509    -1.335921750049    14.003074004430
         N            0.671667797691     2.628618729509    -1.000921750049    14.003074004430
         H            1.582667797691    -1.287381270491    -1.011921750049     1.007825032230
         H            0.440667797691    -1.544381270491     0.305078249951     1.007825032230
         H            1.976667797691    -0.357381270491     1.864078249951     1.007825032230
         H            3.181667797691    -0.241381270491     0.586078249951     1.007825032230
         H           -0.174332202309     0.688618729509     0.288078249951     1.007825032230
         H            3.003667797691     0.453618729509    -1.226921750049     1.007825032230
         H            2.969667797691     2.117618729509    -1.766921750049     1.007825032230
         H           -0.231332202309     2.777618729509    -0.577921750049     1.007825032230
         H            1.171667797691     3.400618729509    -1.414921750049     1.007825032230
         H            2.714897797691    -1.838055270491     1.219218249951     1.007825032230
         C           -2.340332202309    -1.445381270491     0.844078249951    12.000000000000
         C           -3.242332202309    -2.425381270491     0.094078249951    12.000000000000
         C           -3.110332202309    -0.420381270491     1.667078249951    12.000000000000
         H           -1.649332202309    -1.980381270491     1.490078249951     1.007825032230
         H           -1.761332202309    -0.911381270491     0.093078249951     1.007825032230
         H           -3.938332202309    -1.868381270491    -0.531921750049     1.007825032230
         H           -3.716332202309     0.187618729509     0.997078249951     1.007825032230
         H           -3.803332202309    -0.912381270491     2.332078249951     1.007825032230
         H           -3.809452202309    -3.044602270491     0.804668249951     1.007825032230
         H           -2.630092202309    -3.059227270491    -0.564261750049     1.007825032230
         H           -2.433952202309     0.239326729509     2.230368249951     1.007825032230

  Running in c1 symmetry.

  Rotational constants: A =      0.06494  B =      0.01891  C =      0.01643 [cm^-1]
  Rotational constants: A =   1946.94728  B =    567.01078  C =    492.50666 [MHz]
  Nuclear repulsion =  474.414971792158951

  Charge       = 1
  Multiplicity = 1
  Electrons    = 74
  Nalpha       = 37
  Nbeta        = 37

  ==> Algorithm <==

  SCF Algorithm Type is PK.
  DIIS enabled.
  MOM disabled.
  Fractional occupation disabled.
  Guess Type is SAD.
  Energy threshold   = 1.00e-06
  Density threshold  = 1.00e-10
  Integral threshold = 0.00e+00

  ==> Primary Basis <==

  Basis Set: CC-PVDZ
    Blend: CC-PVDZ
    Number of shells: 108
    Number of basis function: 216
    Number of Cartesian functions: 225
    Spherical Harmonics?: true
    Max angular momentum: 2

  ==> Pre-Iterations <==

   -------------------------------------------------------
    Irrep   Nso     Nmo     Nalpha   Nbeta   Ndocc  Nsocc
   -------------------------------------------------------
     A        216     216       0       0       0       0
   -------------------------------------------------------
    Total     216     216      37      37      37       0
   -------------------------------------------------------

  ==> Integral Setup <==

  Using integral reordering PK algorithm.
  Sizing the integral batches needed.
  Building batch lookup table.
   Calculation information:
      Number of atoms:                  27
      Number of AO shells:             108
      Number of primitives:            288
      Number of atomic orbitals:       225
      Number of basis functions:       216

      Integral cutoff                 1.00e-12
      Number of threads:                 1

	Batch   1 pq = [       0,    9405] index = [             0,44231715] size =     44231715
	Batch   2 pq = [    9405,   13301] index = [      44231715,88464951] size =     44233236
	Batch   3 pq = [   13301,   16290] index = [      88464951,132690195] size =     44225244
	Batch   4 pq = [   16290,   18810] index = [     132690195,176917455] size =     44227260
	Batch   5 pq = [   18810,   21030] index = [     176917455,221140965] size =     44223510
	Batch   6 pq = [   21030,   23037] index = [     221140965,265363203] size =     44222238
	Batch   7 pq = [   23037,   23436] index = [     265363203,274634766] size =      9271563
  Task number: 25
  Buffer size: 11059200
  Buffer per thread: 2
  We computed 14337105 shell quartets total.
  Whereas there are 17325441 unique shell quartets.

  ==> DiskJK: Disk-Based J/K Matrices <==

    J tasked:                  Yes
    K tasked:                  Yes
    wK tasked:                  No
    Memory [MiB]:              375
    Schwarz Cutoff:          1E-12

    OpenMP threads:              1

  Minimum eigenvalue in the overlap matrix is 3.7600534216E-03.
  Using Symmetric Orthogonalization.

  SCF Guess: Superposition of Atomic Densities via on-the-fly atomic UHF.

  ==> Iterations <==

                        Total Energy        Delta E     RMS |[F,P]|

   @RHF iter SAD:  -400.20264403545661   -4.00203e+02   0.00000e+00
   @RHF iter   1:  -400.62375409600378   -4.21110e-01   3.02047e-03 DIIS
   @RHF iter   2:  -400.85196673587541   -2.28213e-01   1.20651e-03 DIIS
   @RHF iter   3:  -400.88651874425329   -3.45520e-02   2.81639e-04 DIIS
   @RHF iter   4:  -400.88973369872889   -3.21495e-03   4.80804e-05 DIIS
   @RHF iter   5:  -400.88982070637593   -8.70076e-05   1.74787e-05 DIIS
   @RHF iter   6:  -400.88983203153850   -1.13252e-05   3.73081e-06 DIIS
   @RHF iter   7:  -400.88983275314183   -7.21603e-07   1.40954e-06 DIIS
   @RHF iter   8:  -400.88983282852786   -7.53860e-08   3.99586e-07 DIIS
   @RHF iter   9:  -400.88983283556945   -7.04159e-09   1.10399e-07 DIIS
   @RHF iter  10:  -400.88983283617938   -6.09930e-10   2.93304e-08 DIIS
   @RHF iter  11:  -400.88983283622673   -4.73506e-11   1.17182e-08 DIIS
   @RHF iter  12:  -400.88983283623304   -6.30962e-12   3.92566e-09 DIIS
   @RHF iter  13:  -400.88983283623315   -1.13687e-13   1.19588e-09 DIIS
   @RHF iter  14:  -400.88983283623691   -3.75167e-12   3.65062e-10 DIIS
   @RHF iter  15:  -400.88983283623492    1.98952e-12   8.32640e-11 DIIS
  Energy and wave function converged.

  ==> Post-Iterations <==

    Orbital Energies [Eh]
    ---------------------

    Doubly Occupied:

       1A    -15.788044     2A    -15.786602     3A    -15.779023
       4A    -11.586906     5A    -11.432214     6A    -11.369765
       7A    -11.327292     8A    -11.316549     9A    -11.311060
      10A     -1.543980    11A     -1.400691    12A     -1.389199
      13A     -1.185055    14A     -1.158550    15A     -1.059636
      16A     -1.023444    17A     -1.011419    18A     -0.972080
      19A     -0.931942    20A     -0.902393    21A     -0.860411
      22A     -0.853134    23A     -0.812549    24A     -0.797268
      25A     -0.760912    26A     -0.730481    27A     -0.706102
      28A     -0.696860    29A     -0.670785    30A     -0.653959
      31A     -0.649702    32A     -0.626541    33A     -0.613651
      34A     -0.577672    35A     -0.574116    36A     -0.572035
      37A     -0.570163

    Virtual:

      38A     -0.011696    39A      0.020928    40A      0.026004
      41A      0.041578    42A      0.061913    43A      0.083227
      44A      0.091805    45A      0.107062    46A      0.108929
      47A      0.124929    48A      0.140724    49A      0.145870
      50A      0.164547    51A      0.165538    52A      0.176276
      53A      0.191470    54A      0.193027    55A      0.211950
      56A      0.221110    57A      0.234244    58A      0.238788
      59A      0.274209    60A      0.293500    61A      0.318362
      62A      0.346145    63A      0.350733    64A      0.432671
      65A      0.461960    66A      0.471124    67A      0.478897
      68A      0.485973    69A      0.502561    70A      0.513829
      71A      0.519148    72A      0.529038    73A      0.538231
      74A      0.552722    75A      0.558728    76A      0.574068
      77A      0.602442    78A      0.657222    79A      0.678893
      80A      0.690599    81A      0.699069    82A      0.714333
      83A      0.722331    84A      0.738074    85A      0.741948
      86A      0.754269    87A      0.765670    88A      0.770496
      89A      0.780335    90A      0.786705    91A      0.793901
      92A      0.798958    93A      0.805463    94A      0.810085
      95A      0.813239    96A      0.822493    97A      0.831457
      98A      0.850603    99A      0.855890   100A      0.866238
     101A      0.877648   102A      0.892766   103A      0.899841
     104A      0.950323   105A      0.959124   106A      0.973029
     107A      1.008711   108A      1.026614   109A      1.058558
     110A      1.067758   111A      1.107565   112A      1.116211
     113A      1.131242   114A      1.161077   115A      1.183751
     116A      1.190748   117A      1.220242   118A      1.278439
     119A      1.288723   120A      1.326517   121A      1.356734
     122A      1.370561   123A      1.377148   124A      1.396154
     125A      1.438547   126A      1.450519   127A      1.493797
     128A      1.515955   129A      1.522554   130A      1.542220
     131A      1.574938   132A      1.587607   133A      1.591972
     134A      1.605126   135A      1.625207   136A      1.661643
     137A      1.679379   138A      1.685005   139A      1.708522
     140A      1.719490   141A      1.731795   142A      1.748623
     143A      1.773146   144A      1.781125   145A      1.790890
     146A      1.794348   147A      1.801115   148A      1.808859
     149A      1.818450   150A      1.827233   151A      1.832907
     152A      1.834993   153A      1.839869   154A      1.853830
     155A      1.864335   156A      1.876080   157A      1.889531
     158A      1.894852   159A      1.895847   160A      1.911091
     161A      1.931484   162A      1.934839   163A      1.949841
     164A      2.015453   165A      2.033849   166A      2.042975
     167A      2.055715   168A      2.066792   169A      2.097618
     170A      2.128891   171A      2.162821   172A      2.190331
     173A      2.207204   174A      2.213935   175A      2.226785
     176A      2.234007   177A      2.244614   178A      2.248992
     179A      2.302018   180A      2.326530   181A      2.339516
     182A      2.380692   183A      2.394150   184A      2.411721
     185A      2.414149   186A      2.431844   187A      2.441046
     188A      2.487676   189A      2.495395   190A      2.519782
     191A      2.527764   192A      2.556850   193A      2.614871
     194A      2.629112   195A      2.639905   196A      2.663886
     197A      2.671321   198A      2.683245   199A      2.700190
     200A      2.713875   201A      2.742554   202A      2.746367
     203A      2.807189   204A      2.822555   205A      2.834367
     206A      2.866599   207A      2.880479   208A      2.882870
     209A      2.895443   210A      2.948514   211A      2.986081
     212A      3.071588   213A      3.113063   214A      3.124353
     215A      3.567266   216A      3.649534

    Final Occupation by Irrep:
              A
    DOCC [    37 ]

  @RHF Final Energy:  -400.88983283623492

   => Energetics <=

    Nuclear Repulsion Energy =            474.4149717921589513
    One-Electron Energy =               -1470.6052323041180898
    Two-Electron Energy =                 595.3004276757242224
    Total Energy =                       -400.8898328362349730

Computation Completed

Properties will be evaluated at   0.000000,   0.000000,   0.000000 [a0]

Properties computed using the SCF density matrix

  Nuclear Dipole Moment: [e a0]
     X:    -6.6730      Y:    -6.7437      Z:     4.8028

  Electronic Dipole Moment: [e a0]
     X:     8.9915      Y:     9.0129      Z:    -5.9025

  Dipole Moment: [e a0]
     X:     2.3185      Y:     2.2692      Z:    -1.0997     Total:     3.4255

  Dipole Moment: [D]
     X:     5.8932      Y:     5.7678      Z:    -2.7951     Total:     8.7068

*** tstop() called on ds3 at Sun Apr 26 18:21:51 2020
Module time:
	user time   =      87.79 seconds =       1.46 minutes
	system time =      35.85 seconds =       0.60 minutes
	total time  =        165 seconds =       2.75 minutes
Total time:
	user time   =      87.79 seconds =       1.46 minutes
	system time =      35.85 seconds =       0.60 minutes
	total time  =        165 seconds =       2.75 minutes
                                     G D M A

                                 by Anthony Stone

                           version 2.2.06, 22 June 2011

               Distributed Multipoles from Gaussian wavefunctions

Starting at 18:21:51 on 26 Apr 2020

Using SCF density matrix from file ./SSI/SSI-061ARG-083GLU-1-dimer.test.3526.fchk

                         Distributed Multipole Analysis

Standard DMA

Positions and radii in angstrom
Multipole moments in atomic units, ea_0^k for rank k

C          x =  1.218668  y = -0.876381  z = -0.066922 angstrom
           Maximum rank =  0   Radius =  0.650 angstrom
                   Q00  =   0.003491

C          x =  2.349668  y = -0.834381  z =  0.956078 angstrom
           Maximum rank =  0   Radius =  0.650 angstrom
                   Q00  =  -0.244415

C          x =  1.269668  y =  1.463619  z = -0.873922 angstrom
           Maximum rank =  0   Radius =  0.650 angstrom
                   Q00  =   1.084331

N          x =  0.645668  y =  0.457619  z = -0.276922 angstrom
           Maximum rank =  0   Radius =  0.650 angstrom
                   Q00  =  -0.512983

N          x =  2.497668  y =  1.319619  z = -1.335922 angstrom
           Maximum rank =  0   Radius =  0.650 angstrom
                   Q00  =  -0.590142

N          x =  0.671668  y =  2.628619  z = -1.000922 angstrom
           Maximum rank =  0   Radius =  0.650 angstrom
                   Q00  =  -0.592150

H          x =  1.582668  y = -1.287381  z = -1.011922 angstrom
           Maximum rank =  0   Radius =  0.325 angstrom
                   Q00  =   0.085405

H          x =  0.440668  y = -1.544381  z =  0.305078 angstrom
           Maximum rank =  0   Radius =  0.325 angstrom
                   Q00  =   0.148174

H          x =  1.976668  y = -0.357381  z =  1.864078 angstrom
           Maximum rank =  0   Radius =  0.325 angstrom
                   Q00  =   0.104842

H          x =  3.181668  y = -0.241381  z =  0.586078 angstrom
           Maximum rank =  0   Radius =  0.325 angstrom
                   Q00  =   0.071193

H          x = -0.174332  y =  0.688619  z =  0.288078 angstrom
           Maximum rank =  0   Radius =  0.325 angstrom
                   Q00  =   0.237002

H          x =  3.003668  y =  0.453619  z = -1.226922 angstrom
           Maximum rank =  0   Radius =  0.325 angstrom
                   Q00  =   0.279086

H          x =  2.969668  y =  2.117619  z = -1.766922 angstrom
           Maximum rank =  0   Radius =  0.325 angstrom
                   Q00  =   0.266450

H          x = -0.231332  y =  2.777619  z = -0.577922 angstrom
           Maximum rank =  0   Radius =  0.325 angstrom
                   Q00  =   0.268230

H          x =  1.171668  y =  3.400619  z = -1.414922 angstrom
           Maximum rank =  0   Radius =  0.325 angstrom
                   Q00  =   0.264055

H          x =  2.714898  y = -1.838055  z =  1.219218 angstrom
           Maximum rank =  0   Radius =  0.325 angstrom
                   Q00  =   0.131807

C          x = -2.340332  y = -1.445381  z =  0.844078 angstrom
           Maximum rank =  0   Radius =  0.650 angstrom
                   Q00  =  -0.116322

C          x = -3.242332  y = -2.425381  z =  0.094078 angstrom
           Maximum rank =  0   Radius =  0.650 angstrom
                   Q00  =  -0.219670

C          x = -3.110332  y = -0.420381  z =  1.667078 angstrom
           Maximum rank =  0   Radius =  0.650 angstrom
                   Q00  =  -0.230807

H          x = -1.649332  y = -1.980381  z =  1.490078 angstrom
           Maximum rank =  0   Radius =  0.325 angstrom
                   Q00  =   0.049509

H          x = -1.761332  y = -0.911381  z =  0.093078 angstrom
           Maximum rank =  0   Radius =  0.325 angstrom
                   Q00  =  -0.009433

H          x = -3.938332  y = -1.868381  z = -0.531922 angstrom
           Maximum rank =  0   Radius =  0.325 angstrom
                   Q00  =   0.085698

H          x = -3.716332  y =  0.187619  z =  0.997078 angstrom
           Maximum rank =  0   Radius =  0.325 angstrom
                   Q00  =   0.079226

H          x = -3.803332  y = -0.912381  z =  2.332078 angstrom
           Maximum rank =  0   Radius =  0.325 angstrom
                   Q00  =   0.108804

H          x = -3.809452  y = -3.044602  z =  0.804668 angstrom
           Maximum rank =  0   Radius =  0.325 angstrom
                   Q00  =   0.096967

H          x = -2.630092  y = -3.059227  z = -0.564262 angstrom
           Maximum rank =  0   Radius =  0.325 angstrom
                   Q00  =   0.087138

H          x = -2.433952  y =  0.239327  z =  2.230368 angstrom
           Maximum rank =  0   Radius =  0.325 angstrom
                   Q00  =   0.064512

Total multipoles referred to origin at
           x =   0.000000,  y =    0.000000,  z =    0.000000 angstrom
                   Q00  =   1.000000

Finished at 18:21:51 on 26 Apr 2020

  DMA results are available in the Python driver through the
	  variable('DMA DISTRIBUTED MULTIPOLES')
  and
	  variable('DMA TOTAL MULTIPOLES')
  commands.

    Psi4 stopped on: Sunday, 26 April 2020 06:21PM
    Psi4 wall time for execution: 0:02:44.41

*** Psi4 exiting successfully. Buy a developer a beer!
