                               Psi4 1.3.2 release

  ==> Input File <==

--------------------------------------------------------------------------
import numpy as np
set {scf_type pk
basis cc-pvdz
d_convergence 10
gdma_switch   0
gdma_limit    0
gdma_origin   [ 0.0,  0.0,  0.0 ]
}
molecule test {
    units Angstrom
    0 1
    --
    0 1
    C               -0.251804910126743     1.824543906052318     0.267944754456509
    C               -0.396804910126743     2.448543906052318     1.686944754456509
    H                0.732195089873257     1.366543906052318     0.160944754456509
    H               -1.024804910126744     1.071543906052318     0.112944754456509
    H               -0.368804910126743     2.607543906052318    -0.481055245543491
    H               -1.383804910126743     2.893543906052318     1.751944754456509
    H                0.353625089873257     3.237418906052318     1.843584754456509
    H               -0.311904910126743     1.694560906052318     2.483374754456509
    C                0.078195089873257    -1.557456093947682    -1.467055245543491
    C                0.575195089873257    -2.715456093947682    -0.483055245543491
    H                0.737195089873257    -0.691456093947682    -1.404055245543491
    H                0.088195089873257    -1.922456093947682    -2.490055245543492
    H               -0.937804910126743    -1.260456093947682    -1.212055245543491
    H                1.580195089873256    -3.021456093947682    -0.769055245543491
    H               -0.087804910126743    -3.567456093947682    -0.627055245543491
    H                0.566605089873257    -2.409966093947682     0.573634754456509

}
e, wfn = energy('scf', return_wfn=True)
gdma(wfn)
dmavals = variable('DMA DISTRIBUTED MULTIPOLES')
charges = np.array(dmavals)
print(charges)
np.save('SSI-025LEU-075ILE-2-dimer.npy', np.array(charges))--------------------------------------------------------------------------

*** tstart() called on ds3
*** at Mon Apr 27 15:59:39 2020

   => Loading Basis Set <=

    Name: CC-PVDZ
    Role: ORBITAL
    Keyword: BASIS
    atoms 1-2, 9-10  entry C          line   138 file /theoryfs2/ds/metcalf/miniconda2/envs/tf2gpu/share/psi4/basis/cc-pvdz.gbs
    atoms 3-8, 11-16 entry H          line    22 file /theoryfs2/ds/metcalf/miniconda2/envs/tf2gpu/share/psi4/basis/cc-pvdz.gbs

         ---------------------------------------------------------
                                   SCF
               by Justin Turney, Rob Parrish, Andy Simmonett
                          and Daniel G. A. Smith
                              RHF Reference
                        1 Threads,    500 MiB Core
         ---------------------------------------------------------

  ==> Geometry <==

    Molecular point group: c1
    Full point group: C1

    Geometry (in Angstrom), charge = 0, multiplicity = 1:

       Center              X                  Y                   Z               Mass
    ------------   -----------------  -----------------  -----------------  -----------------
         C           -0.251804910127     1.824543906052     0.267944754457    12.000000000000
         C           -0.396804910127     2.448543906052     1.686944754457    12.000000000000
         H            0.732195089873     1.366543906052     0.160944754457     1.007825032230
         H           -1.024804910127     1.071543906052     0.112944754457     1.007825032230
         H           -0.368804910127     2.607543906052    -0.481055245543     1.007825032230
         H           -1.383804910127     2.893543906052     1.751944754457     1.007825032230
         H            0.353625089873     3.237418906052     1.843584754457     1.007825032230
         H           -0.311904910127     1.694560906052     2.483374754457     1.007825032230
         C            0.078195089873    -1.557456093948    -1.467055245543    12.000000000000
         C            0.575195089873    -2.715456093948    -0.483055245543    12.000000000000
         H            0.737195089873    -0.691456093948    -1.404055245543     1.007825032230
         H            0.088195089873    -1.922456093948    -2.490055245543     1.007825032230
         H           -0.937804910127    -1.260456093948    -1.212055245543     1.007825032230
         H            1.580195089873    -3.021456093948    -0.769055245543     1.007825032230
         H           -0.087804910127    -3.567456093948    -0.627055245543     1.007825032230
         H            0.566605089873    -2.409966093948     0.573634754457     1.007825032230

  Running in c1 symmetry.

  Rotational constants: A =      0.44742  B =      0.04599  C =      0.04314 [cm^-1]
  Rotational constants: A =  13413.33890  B =   1378.65110  C =   1293.24915 [MHz]
  Nuclear repulsion =  119.691732799580350

  Charge       = 0
  Multiplicity = 1
  Electrons    = 36
  Nalpha       = 18
  Nbeta        = 18

  ==> Algorithm <==

  SCF Algorithm Type is PK.
  DIIS enabled.
  MOM disabled.
  Fractional occupation disabled.
  Guess Type is SAD.
  Energy threshold   = 1.00e-06
  Density threshold  = 1.00e-10
  Integral threshold = 0.00e+00

  ==> Primary Basis <==

  Basis Set: CC-PVDZ
    Blend: CC-PVDZ
    Number of shells: 60
    Number of basis function: 116
    Number of Cartesian functions: 120
    Spherical Harmonics?: true
    Max angular momentum: 2

  ==> Pre-Iterations <==

   -------------------------------------------------------
    Irrep   Nso     Nmo     Nalpha   Nbeta   Ndocc  Nsocc
   -------------------------------------------------------
     A        116     116       0       0       0       0
   -------------------------------------------------------
    Total     116     116      18      18      18       0
   -------------------------------------------------------

  ==> Integral Setup <==

  Using integral reordering PK algorithm.
  Sizing the integral batches needed.
  Building batch lookup table.
   Calculation information:
      Number of atoms:                  16
      Number of AO shells:              60
      Number of primitives:            148
      Number of atomic orbitals:       120
      Number of basis functions:       116

      Integral cutoff                 1.00e-12
      Number of threads:                 1

	Batch   1 pq = [       0,    6786] index = [             0,23028291] size =     23028291
  Task number: 3
  Buffer size: 11059200
  Buffer per thread: 2
  We computed 1395426 shell quartets total.
  Whereas there are 1675365 unique shell quartets.

  ==> DiskJK: Disk-Based J/K Matrices <==

    J tasked:                  Yes
    K tasked:                  Yes
    wK tasked:                  No
    Memory [MiB]:              375
    Schwarz Cutoff:          1E-12

    OpenMP threads:              1

  Minimum eigenvalue in the overlap matrix is 7.7378703896E-03.
  Using Symmetric Orthogonalization.

  SCF Guess: Superposition of Atomic Densities via on-the-fly atomic UHF.

  ==> Iterations <==

                        Total Energy        Delta E     RMS |[F,P]|

   @RHF iter SAD:  -157.19647619956507   -1.57196e+02   0.00000e+00
   @RHF iter   1:  -158.31437824693089   -1.11790e+00   4.07118e-03 DIIS
   @RHF iter   2:  -158.44133497531416   -1.26957e-01   1.70070e-03 DIIS
   @RHF iter   3:  -158.46253334784575   -2.11984e-02   3.41493e-04 DIIS
   @RHF iter   4:  -158.46427708936216   -1.74374e-03   3.85013e-05 DIIS
   @RHF iter   5:  -158.46430001874609   -2.29294e-05   7.11231e-06 DIIS
   @RHF iter   6:  -158.46430071461697   -6.95871e-07   1.55598e-06 DIIS
   @RHF iter   7:  -158.46430073720552   -2.25886e-08   3.25068e-07 DIIS
   @RHF iter   8:  -158.46430073838656   -1.18104e-09   3.95459e-08 DIIS
   @RHF iter   9:  -158.46430073841319   -2.66311e-11   6.83713e-09 DIIS
   @RHF iter  10:  -158.46430073841447   -1.27898e-12   2.05867e-09 DIIS
   @RHF iter  11:  -158.46430073841424    2.27374e-13   5.79389e-10 DIIS
   @RHF iter  12:  -158.46430073841401    2.27374e-13   1.09924e-10 DIIS
   @RHF iter  13:  -158.46430073841364    3.69482e-13   2.31871e-11 DIIS
  Energy and wave function converged.

  ==> Post-Iterations <==

    Orbital Energies [Eh]
    ---------------------

    Doubly Occupied:

       1A    -11.223180     2A    -11.220886     3A    -11.220474
       4A    -11.219101     5A     -1.011419     6A     -1.002105
       7A     -0.844607     8A     -0.838517     9A     -0.596422
      10A     -0.595709    11A     -0.590044    12A     -0.588544
      13A     -0.498047    14A     -0.494333    15A     -0.493649
      16A     -0.488695    17A     -0.486478    18A     -0.479654

    Virtual:

      19A      0.171233    20A      0.198524    21A      0.224166
      22A      0.231052    23A      0.246462    24A      0.253307
      25A      0.268342    26A      0.274228    27A      0.277363
      28A      0.291636    29A      0.308196    30A      0.349256
      31A      0.377643    32A      0.394683    33A      0.567035
      34A      0.590259    35A      0.593801    36A      0.597758
      37A      0.613955    38A      0.640028    39A      0.669833
      40A      0.681895    41A      0.686112    42A      0.786027
      43A      0.811073    44A      0.863081    45A      0.884959
      46A      0.892460    47A      0.893944    48A      0.894732
      49A      0.901768    50A      0.906893    51A      0.910301
      52A      0.914888    53A      0.923885    54A      0.958372
      55A      0.972831    56A      0.982723    57A      1.119170
      58A      1.121447    59A      1.127974    60A      1.146740
      61A      1.221750    62A      1.251802    63A      1.446971
      64A      1.461589    65A      1.462919    66A      1.478036
      67A      1.554795    68A      1.584346    69A      1.682811
      70A      1.686040    71A      1.692528    72A      1.702946
      73A      1.826933    74A      1.859643    75A      1.866085
      76A      1.875241    77A      1.884475    78A      1.902077
      79A      1.923619    80A      1.931150    81A      1.932706
      82A      1.939084    83A      1.943857    84A      1.946697
      85A      1.955011    86A      1.959579    87A      1.973765
      88A      2.013261    89A      2.083863    90A      2.088217
      91A      2.114682    92A      2.119649    93A      2.281690
      94A      2.292095    95A      2.304207    96A      2.314803
      97A      2.439963    98A      2.449452    99A      2.456243
     100A      2.480017   101A      2.546910   102A      2.552107
     103A      2.568554   104A      2.570654   105A      2.761076
     106A      2.768623   107A      2.786306   108A      2.795713
     109A      2.834491   110A      2.840584   111A      2.852302
     112A      2.853670   113A      2.929851   114A      2.938112
     115A      2.951678   116A      2.972847

    Final Occupation by Irrep:
              A
    DOCC [    18 ]

  @RHF Final Energy:  -158.46430073841364

   => Energetics <=

    Nuclear Repulsion Energy =            119.6917327995803504
    One-Electron Energy =                -448.5283408574218811
    Two-Electron Energy =                 170.3723073194279038
    Total Energy =                       -158.4643007384136411

Computation Completed

Properties will be evaluated at   0.000000,   0.000000,   0.000000 [a0]

Properties computed using the SCF density matrix

  Nuclear Dipole Moment: [e a0]
     X:    -0.0534      Y:    -0.0020      Z:    -0.0533

  Electronic Dipole Moment: [e a0]
     X:     0.0423      Y:     0.0030      Z:     0.0308

  Dipole Moment: [e a0]
     X:    -0.0111      Y:     0.0011      Z:    -0.0225     Total:     0.0251

  Dipole Moment: [D]
     X:    -0.0281      Y:     0.0027      Z:    -0.0573     Total:     0.0639

*** tstop() called on ds3 at Mon Apr 27 15:59:49 2020
Module time:
	user time   =       7.50 seconds =       0.12 minutes
	system time =       2.98 seconds =       0.05 minutes
	total time  =         10 seconds =       0.17 minutes
Total time:
	user time   =       7.50 seconds =       0.12 minutes
	system time =       2.98 seconds =       0.05 minutes
	total time  =         10 seconds =       0.17 minutes
                                     G D M A

                                 by Anthony Stone

                           version 2.2.06, 22 June 2011

               Distributed Multipoles from Gaussian wavefunctions

Starting at 15:59:49 on 27 Apr 2020

Using SCF density matrix from file ./SSI/SSI-025LEU-075ILE-2-dimer.test.21709.fchk

                         Distributed Multipole Analysis

Standard DMA

Positions and radii in angstrom
Multipole moments in atomic units, ea_0^k for rank k

C          x = -0.251805  y =  1.824544  z =  0.267945 angstrom
           Maximum rank =  0   Radius =  0.650 angstrom
                   Q00  =  -0.241463

C          x = -0.396805  y =  2.448544  z =  1.686945 angstrom
           Maximum rank =  0   Radius =  0.650 angstrom
                   Q00  =  -0.248101

H          x =  0.732195  y =  1.366544  z =  0.160945 angstrom
           Maximum rank =  0   Radius =  0.325 angstrom
                   Q00  =   0.080929

H          x = -1.024805  y =  1.071544  z =  0.112945 angstrom
           Maximum rank =  0   Radius =  0.325 angstrom
                   Q00  =   0.083621

H          x = -0.368805  y =  2.607544  z = -0.481055 angstrom
           Maximum rank =  0   Radius =  0.325 angstrom
                   Q00  =   0.082265

H          x = -1.383805  y =  2.893544  z =  1.751945 angstrom
           Maximum rank =  0   Radius =  0.325 angstrom
                   Q00  =   0.079970

H          x =  0.353625  y =  3.237419  z =  1.843585 angstrom
           Maximum rank =  0   Radius =  0.325 angstrom
                   Q00  =   0.081421

H          x = -0.311905  y =  1.694561  z =  2.483375 angstrom
           Maximum rank =  0   Radius =  0.325 angstrom
                   Q00  =   0.081936

C          x =  0.078195  y = -1.557456  z = -1.467055 angstrom
           Maximum rank =  0   Radius =  0.650 angstrom
                   Q00  =  -0.255808

C          x =  0.575195  y = -2.715456  z = -0.483055 angstrom
           Maximum rank =  0   Radius =  0.650 angstrom
                   Q00  =  -0.256848

H          x =  0.737195  y = -0.691456  z = -1.404055 angstrom
           Maximum rank =  0   Radius =  0.325 angstrom
                   Q00  =   0.087106

H          x =  0.088195  y = -1.922456  z = -2.490055 angstrom
           Maximum rank =  0   Radius =  0.325 angstrom
                   Q00  =   0.084842

H          x = -0.937805  y = -1.260456  z = -1.212055 angstrom
           Maximum rank =  0   Radius =  0.325 angstrom
                   Q00  =   0.085171

H          x =  1.580195  y = -3.021456  z = -0.769055 angstrom
           Maximum rank =  0   Radius =  0.325 angstrom
                   Q00  =   0.084907

H          x = -0.087805  y = -3.567456  z = -0.627055 angstrom
           Maximum rank =  0   Radius =  0.325 angstrom
                   Q00  =   0.082944

H          x =  0.566605  y = -2.409966  z =  0.573635 angstrom
           Maximum rank =  0   Radius =  0.325 angstrom
                   Q00  =   0.087107

Total multipoles referred to origin at
           x =   0.000000,  y =    0.000000,  z =    0.000000 angstrom
                   Q00  =  -0.000000

Finished at 15:59:49 on 27 Apr 2020

  DMA results are available in the Python driver through the
	  variable('DMA DISTRIBUTED MULTIPOLES')
  and
	  variable('DMA TOTAL MULTIPOLES')
  commands.

    Psi4 stopped on: Monday, 27 April 2020 03:59PM
    Psi4 wall time for execution: 0:00:10.21

*** Psi4 exiting successfully. Buy a developer a beer!
