                               Psi4 1.3.2 release

  ==> Input File <==

--------------------------------------------------------------------------
import numpy as np
set {scf_type pk
basis cc-pvdz
d_convergence 10
gdma_switch   0
gdma_limit    0
gdma_origin   [ 0.0,  0.0,  0.0 ]
}
molecule test {
    units Angstrom
    0 1
    --
    0 1
    C               -3.983165266491329     1.254036709520309    -1.898628437787798
    C               -1.482165266491329    -0.972963290479691    -0.500628437787798
    C               -2.882165266491328     0.605036709519309    -1.110628437787798
    C               -2.165165266491329     1.061036709520309    -0.045628437787798
    N               -2.430165266491328    -0.672963290479691    -1.378628437787798
    N               -1.300165266491329     0.066036709519309     0.310371562212202
    H               -0.983165266491329    -1.933963290479691    -0.508628437787798
    H               -0.634165266491329     0.117036709520309     1.073371562212202
    H               -2.199165266491328     2.000036709520309     0.476371562212202
    H               -4.884165266491328     1.210036709520309    -1.288628437787798
    H               -4.130165266491328     0.640036709519309    -2.793628437787798
    H               -3.787695266491328     2.290106709520309    -2.212238437787798
    C                2.980834733508672    -1.240963290480691     2.659371562212202
    C                2.220834733508672    -1.157963290479691     0.167371562212202
    C                2.557834733508672    -0.591963290479691     1.361371562212202
    C                2.092834733508671     1.025036709519309    -0.065628437787798
    N                1.937834733508671    -0.134963290480691    -0.700628437787798
    N                2.467834733508671     0.777036709519309     1.183371562212202
    H                2.160834733508672    -2.187963290479690    -0.130628437787798
    H                1.660834733508672    -0.249963290479691    -1.663628437787798
    H                3.924834733508671    -0.778963290479691     2.950371562212202
    H                3.146834733508672    -2.292963290479691     2.445371562212202
    H                1.954834733508671     2.035036709520309    -0.434628437787798
    H                2.249294733508671    -1.114083290480691     3.471011562212202

}
e, wfn = energy('scf', return_wfn=True)
gdma(wfn)
dmavals = variable('DMA DISTRIBUTED MULTIPOLES')
charges = np.array(dmavals)
print(charges)
np.save('SSI-102HIE-269HIE-1-dimer.npy', np.array(charges))--------------------------------------------------------------------------

*** tstart() called on ds3
*** at Tue Apr 28 08:56:13 2020

   => Loading Basis Set <=

    Name: CC-PVDZ
    Role: ORBITAL
    Keyword: BASIS
    atoms 1-4, 13-16  entry C          line   138 file /theoryfs2/ds/metcalf/miniconda2/envs/tf2gpu/share/psi4/basis/cc-pvdz.gbs
    atoms 5-6, 17-18  entry N          line   168 file /theoryfs2/ds/metcalf/miniconda2/envs/tf2gpu/share/psi4/basis/cc-pvdz.gbs
    atoms 7-12, 19-24 entry H          line    22 file /theoryfs2/ds/metcalf/miniconda2/envs/tf2gpu/share/psi4/basis/cc-pvdz.gbs

         ---------------------------------------------------------
                                   SCF
               by Justin Turney, Rob Parrish, Andy Simmonett
                          and Daniel G. A. Smith
                              RHF Reference
                        1 Threads,    500 MiB Core
         ---------------------------------------------------------

  ==> Geometry <==

    Molecular point group: c1
    Full point group: C1

    Geometry (in Angstrom), charge = 0, multiplicity = 1:

       Center              X                  Y                   Z               Mass
    ------------   -----------------  -----------------  -----------------  -----------------
         C           -3.983165266491     1.254036709520    -1.898628437788    12.000000000000
         C           -1.482165266491    -0.972963290480    -0.500628437788    12.000000000000
         C           -2.882165266491     0.605036709519    -1.110628437788    12.000000000000
         C           -2.165165266491     1.061036709520    -0.045628437788    12.000000000000
         N           -2.430165266491    -0.672963290480    -1.378628437788    14.003074004430
         N           -1.300165266491     0.066036709519     0.310371562212    14.003074004430
         H           -0.983165266491    -1.933963290480    -0.508628437788     1.007825032230
         H           -0.634165266491     0.117036709520     1.073371562212     1.007825032230
         H           -2.199165266491     2.000036709520     0.476371562212     1.007825032230
         H           -4.884165266491     1.210036709520    -1.288628437788     1.007825032230
         H           -4.130165266491     0.640036709519    -2.793628437788     1.007825032230
         H           -3.787695266491     2.290106709520    -2.212238437788     1.007825032230
         C            2.980834733509    -1.240963290481     2.659371562212    12.000000000000
         C            2.220834733509    -1.157963290480     0.167371562212    12.000000000000
         C            2.557834733509    -0.591963290480     1.361371562212    12.000000000000
         C            2.092834733509     1.025036709519    -0.065628437788    12.000000000000
         N            1.937834733509    -0.134963290481    -0.700628437788    14.003074004430
         N            2.467834733509     0.777036709519     1.183371562212    14.003074004430
         H            2.160834733509    -2.187963290480    -0.130628437788     1.007825032230
         H            1.660834733509    -0.249963290480    -1.663628437788     1.007825032230
         H            3.924834733509    -0.778963290480     2.950371562212     1.007825032230
         H            3.146834733509    -2.292963290480     2.445371562212     1.007825032230
         H            1.954834733509     2.035036709520    -0.434628437788     1.007825032230
         H            2.249294733509    -1.114083290481     3.471011562212     1.007825032230

  Running in c1 symmetry.

  Rotational constants: A =      0.07577  B =      0.01289  C =      0.01263 [cm^-1]
  Rotational constants: A =   2271.45468  B =    386.50063  C =    378.50983 [MHz]
  Nuclear repulsion =  652.141026822425943

  Charge       = 0
  Multiplicity = 1
  Electrons    = 88
  Nalpha       = 44
  Nbeta        = 44

  ==> Algorithm <==

  SCF Algorithm Type is PK.
  DIIS enabled.
  MOM disabled.
  Fractional occupation disabled.
  Guess Type is SAD.
  Energy threshold   = 1.00e-06
  Density threshold  = 1.00e-10
  Integral threshold = 0.00e+00

  ==> Primary Basis <==

  Basis Set: CC-PVDZ
    Blend: CC-PVDZ
    Number of shells: 108
    Number of basis function: 228
    Number of Cartesian functions: 240
    Spherical Harmonics?: true
    Max angular momentum: 2

  ==> Pre-Iterations <==

   -------------------------------------------------------
    Irrep   Nso     Nmo     Nalpha   Nbeta   Ndocc  Nsocc
   -------------------------------------------------------
     A        228     228       0       0       0       0
   -------------------------------------------------------
    Total     228     228      44      44      44       0
   -------------------------------------------------------

  ==> Integral Setup <==

  Using integral reordering PK algorithm.
  Sizing the integral batches needed.
  Building batch lookup table.
   Calculation information:
      Number of atoms:                  24
      Number of AO shells:             108
      Number of primitives:            324
      Number of atomic orbitals:       240
      Number of basis functions:       228

      Integral cutoff                 1.00e-12
      Number of threads:                 1

	Batch   1 pq = [       0,    9405] index = [             0,44231715] size =     44231715
	Batch   2 pq = [    9405,   13301] index = [      44231715,88464951] size =     44233236
	Batch   3 pq = [   13301,   16290] index = [      88464951,132690195] size =     44225244
	Batch   4 pq = [   16290,   18810] index = [     132690195,176917455] size =     44227260
	Batch   5 pq = [   18810,   21030] index = [     176917455,221140965] size =     44223510
	Batch   6 pq = [   21030,   23037] index = [     221140965,265363203] size =     44222238
	Batch   7 pq = [   23037,   24883] index = [     265363203,309594286] size =     44231083
	Batch   8 pq = [   24883,   26106] index = [     309594286,340774671] size =     31180385
  Task number: 31
  Buffer size: 11059200
  Buffer per thread: 2
  We computed 14956863 shell quartets total.
  Whereas there are 17325441 unique shell quartets.

  ==> DiskJK: Disk-Based J/K Matrices <==

    J tasked:                  Yes
    K tasked:                  Yes
    wK tasked:                  No
    Memory [MiB]:              375
    Schwarz Cutoff:          1E-12

    OpenMP threads:              1

  Minimum eigenvalue in the overlap matrix is 1.1277663459E-03.
  Using Symmetric Orthogonalization.

  SCF Guess: Superposition of Atomic Densities via on-the-fly atomic UHF.

  ==> Iterations <==

                        Total Energy        Delta E     RMS |[F,P]|

   @RHF iter SAD:  -527.05123580953625   -5.27051e+02   0.00000e+00
   @RHF iter   1:  -527.48408954696697   -4.32854e-01   2.82256e-03 DIIS
   @RHF iter   2:  -527.69048937786567   -2.06400e-01   1.50657e-03 DIIS
   @RHF iter   3:  -527.74385960612574   -5.33702e-02   3.92953e-04 DIIS
   @RHF iter   4:  -527.74870482619554   -4.84522e-03   1.43195e-04 DIIS
   @RHF iter   5:  -527.74933175200215   -6.26926e-04   2.53966e-05 DIIS
   @RHF iter   6:  -527.74936401230957   -3.22603e-05   1.13100e-05 DIIS
   @RHF iter   7:  -527.74937061081528   -6.59851e-06   4.00220e-06 DIIS
   @RHF iter   8:  -527.74937203080970   -1.41999e-06   1.40514e-06 DIIS
   @RHF iter   9:  -527.74937227014584   -2.39336e-07   4.31277e-07 DIIS
   @RHF iter  10:  -527.74937228429212   -1.41463e-08   1.57175e-07 DIIS
   @RHF iter  11:  -527.74937228672172   -2.42960e-09   6.48588e-08 DIIS
   @RHF iter  12:  -527.74937228703584   -3.14117e-10   2.64964e-08 DIIS
   @RHF iter  13:  -527.74937228707961   -4.37694e-11   9.59082e-09 DIIS
   @RHF iter  14:  -527.74937228708256   -2.95586e-12   3.81890e-09 DIIS
   @RHF iter  15:  -527.74937228708473   -2.16005e-12   1.62647e-09 DIIS
   @RHF iter  16:  -527.74937228708666   -1.93268e-12   5.03571e-10 DIIS
   @RHF iter  17:  -527.74937228708245    4.20641e-12   2.10750e-10 DIIS
   @RHF iter  18:  -527.74937228708575   -3.29692e-12   5.04850e-11 DIIS
  Energy and wave function converged.

  ==> Post-Iterations <==

    Orbital Energies [Eh]
    ---------------------

    Doubly Occupied:

       1A    -15.628399     2A    -15.616800     3A    -15.538972
       4A    -15.528891     5A    -11.301911     6A    -11.288630
       7A    -11.261651     8A    -11.255198     9A    -11.247211
      10A    -11.241022    11A    -11.235216    12A    -11.223086
      13A     -1.351710    14A     -1.340537    15A     -1.163480
      16A     -1.152964    17A     -1.040463    18A     -1.028544
      19A     -0.949926    20A     -0.938903    21A     -0.826212
      22A     -0.813536    23A     -0.778187    24A     -0.766697
      25A     -0.746838    26A     -0.735255    27A     -0.618079
      28A     -0.616325    29A     -0.609107    30A     -0.606650
      31A     -0.601036    32A     -0.596710    33A     -0.563501
      34A     -0.553955    35A     -0.548305    36A     -0.533076
      37A     -0.532195    38A     -0.518454    39A     -0.421343
      40A     -0.413150    41A     -0.389092    42A     -0.378036
      43A     -0.320990    44A     -0.306141

    Virtual:

      45A      0.161274    46A      0.174116    47A      0.184350
      48A      0.193477    49A      0.197010    50A      0.207732
      51A      0.209672    52A      0.220586    53A      0.223066
      54A      0.237221    55A      0.248809    56A      0.255431
      57A      0.273519    58A      0.281205    59A      0.295517
      60A      0.298103    61A      0.366639    62A      0.373105
      63A      0.373375    64A      0.403741    65A      0.407709
      66A      0.418564    67A      0.468115    68A      0.472669
      69A      0.482423    70A      0.495077    71A      0.600144
      72A      0.601591    73A      0.614267    74A      0.626128
      75A      0.635702    76A      0.644676    77A      0.654637
      78A      0.665013    79A      0.675118    80A      0.703120
      81A      0.712952    82A      0.723309    83A      0.741709
      84A      0.747674    85A      0.754169    86A      0.762039
      87A      0.785092    88A      0.794901    89A      0.806349
      90A      0.818038    91A      0.828497    92A      0.841628
      93A      0.865752    94A      0.870247    95A      0.881439
      96A      0.887144    97A      0.892830    98A      0.902603
      99A      0.903908   100A      0.913171   101A      0.927290
     102A      0.935625   103A      0.949090   104A      0.963514
     105A      0.973613   106A      0.983233   107A      1.016471
     108A      1.021853   109A      1.047451   110A      1.073007
     111A      1.087623   112A      1.090109   113A      1.101870
     114A      1.114266   115A      1.131108   116A      1.148102
     117A      1.152646   118A      1.168655   119A      1.184686
     120A      1.192285   121A      1.238451   122A      1.246226
     123A      1.265679   124A      1.279384   125A      1.302207
     126A      1.308754   127A      1.317318   128A      1.320234
     129A      1.330892   130A      1.349629   131A      1.417255
     132A      1.431195   133A      1.445482   134A      1.457325
     135A      1.476430   136A      1.482587   137A      1.509086
     138A      1.523790   139A      1.563978   140A      1.575807
     141A      1.589771   142A      1.616107   143A      1.640113
     144A      1.662122   145A      1.672583   146A      1.690075
     147A      1.713961   148A      1.731151   149A      1.766569
     150A      1.779868   151A      1.793553   152A      1.812665
     153A      1.813096   154A      1.837127   155A      1.858241
     156A      1.879155   157A      1.885475   158A      1.905877
     159A      1.909575   160A      1.922030   161A      1.932042
     162A      1.939065   163A      1.947076   164A      1.966851
     165A      1.968073   166A      1.976877   167A      1.982657
     168A      1.985123   169A      2.017260   170A      2.021198
     171A      2.073154   172A      2.090187   173A      2.103604
     174A      2.122514   175A      2.134720   176A      2.161566
     177A      2.172004   178A      2.191512   179A      2.198435
     180A      2.217411   181A      2.241488   182A      2.259943
     183A      2.292550   184A      2.305359   185A      2.338196
     186A      2.366520   187A      2.373473   188A      2.385329
     189A      2.408750   190A      2.435629   191A      2.444907
     192A      2.472062   193A      2.478549   194A      2.490664
     195A      2.537366   196A      2.569719   197A      2.602036
     198A      2.620116   199A      2.676642   200A      2.681564
     201A      2.730479   202A      2.739765   203A      2.746055
     204A      2.766407   205A      2.770062   206A      2.780507
     207A      2.790884   208A      2.794652   209A      2.809869
     210A      2.815924   211A      2.846035   212A      2.865923
     213A      2.879033   214A      2.890227   215A      2.904522
     216A      2.921244   217A      2.956404   218A      2.969698
     219A      3.092323   220A      3.110671   221A      3.159359
     222A      3.166746   223A      3.223019   224A      3.231350
     225A      3.462558   226A      3.477956   227A      3.791283
     228A      3.806225

    Final Occupation by Irrep:
              A
    DOCC [    44 ]

  @RHF Final Energy:  -527.74937228708575

   => Energetics <=

    Nuclear Repulsion Energy =            652.1410268224259426
    One-Electron Energy =               -2009.5280338737693455
    Two-Electron Energy =                 829.6376347642577684
    Total Energy =                       -527.7493722870857482

Computation Completed

Properties will be evaluated at   0.000000,   0.000000,   0.000000 [a0]

Properties computed using the SCF density matrix

  Nuclear Dipole Moment: [e a0]
     X:    -1.4279      Y:    -0.2491      Z:     1.2996

  Electronic Dipole Moment: [e a0]
     X:     1.9413      Y:     0.1656      Z:    -1.4059

  Dipole Moment: [e a0]
     X:     0.5134      Y:    -0.0835      Z:    -0.1063     Total:     0.5309

  Dipole Moment: [D]
     X:     1.3049      Y:    -0.2122      Z:    -0.2702     Total:     1.3494

*** tstop() called on ds3 at Tue Apr 28 08:59:12 2020
Module time:
	user time   =     124.13 seconds =       2.07 minutes
	system time =      60.58 seconds =       1.01 minutes
	total time  =        179 seconds =       2.98 minutes
Total time:
	user time   =     124.13 seconds =       2.07 minutes
	system time =      60.58 seconds =       1.01 minutes
	total time  =        179 seconds =       2.98 minutes
                                     G D M A

                                 by Anthony Stone

                           version 2.2.06, 22 June 2011

               Distributed Multipoles from Gaussian wavefunctions

Starting at 8:59:12 on 28 Apr 2020

Using SCF density matrix from file ./SSI/SSI-102HIE-269HIE-1-dimer.test.10555.fchk

                         Distributed Multipole Analysis

Standard DMA

Positions and radii in angstrom
Multipole moments in atomic units, ea_0^k for rank k

C          x = -3.983165  y =  1.254037  z = -1.898628 angstrom
           Maximum rank =  0   Radius =  0.650 angstrom
                   Q00  =  -0.198465

C          x = -1.482165  y = -0.972963  z = -0.500628 angstrom
           Maximum rank =  0   Radius =  0.650 angstrom
                   Q00  =   0.440737

C          x = -2.882165  y =  0.605037  z = -1.110628 angstrom
           Maximum rank =  0   Radius =  0.650 angstrom
                   Q00  =   0.218720

C          x = -2.165165  y =  1.061037  z = -0.045628 angstrom
           Maximum rank =  0   Radius =  0.650 angstrom
                   Q00  =  -0.013238

N          x = -2.430165  y = -0.672963  z = -1.378628 angstrom
           Maximum rank =  0   Radius =  0.650 angstrom
                   Q00  =  -0.764789

N          x = -1.300165  y =  0.066037  z =  0.310372 angstrom
           Maximum rank =  0   Radius =  0.650 angstrom
                   Q00  =  -0.455824

H          x = -0.983165  y = -1.933963  z = -0.508628 angstrom
           Maximum rank =  0   Radius =  0.325 angstrom
                   Q00  =   0.119879

H          x = -0.634165  y =  0.117037  z =  1.073372 angstrom
           Maximum rank =  0   Radius =  0.325 angstrom
                   Q00  =   0.236172

H          x = -2.199165  y =  2.000037  z =  0.476372 angstrom
           Maximum rank =  0   Radius =  0.325 angstrom
                   Q00  =   0.096601

H          x = -4.884165  y =  1.210037  z = -1.288628 angstrom
           Maximum rank =  0   Radius =  0.325 angstrom
                   Q00  =   0.102847

H          x = -4.130165  y =  0.640037  z = -2.793628 angstrom
           Maximum rank =  0   Radius =  0.325 angstrom
                   Q00  =   0.118543

H          x = -3.787695  y =  2.290107  z = -2.212238 angstrom
           Maximum rank =  0   Radius =  0.325 angstrom
                   Q00  =   0.095342

C          x =  2.980835  y = -1.240963  z =  2.659372 angstrom
           Maximum rank =  0   Radius =  0.650 angstrom
                   Q00  =  -0.183470

C          x =  2.220835  y = -1.157963  z =  0.167372 angstrom
           Maximum rank =  0   Radius =  0.650 angstrom
                   Q00  =  -0.028279

C          x =  2.557835  y = -0.591963  z =  1.361372 angstrom
           Maximum rank =  0   Radius =  0.650 angstrom
                   Q00  =   0.201901

C          x =  2.092835  y =  1.025037  z = -0.065628 angstrom
           Maximum rank =  0   Radius =  0.650 angstrom
                   Q00  =   0.448244

N          x =  1.937835  y = -0.134963  z = -0.700628 angstrom
           Maximum rank =  0   Radius =  0.650 angstrom
                   Q00  =  -0.447573

N          x =  2.467835  y =  0.777037  z =  1.183372 angstrom
           Maximum rank =  0   Radius =  0.650 angstrom
                   Q00  =  -0.765537

H          x =  2.160835  y = -2.187963  z = -0.130628 angstrom
           Maximum rank =  0   Radius =  0.325 angstrom
                   Q00  =   0.100010

H          x =  1.660835  y = -0.249963  z = -1.663628 angstrom
           Maximum rank =  0   Radius =  0.325 angstrom
                   Q00  =   0.230104

H          x =  3.924835  y = -0.778963  z =  2.950372 angstrom
           Maximum rank =  0   Radius =  0.325 angstrom
                   Q00  =   0.115819

H          x =  3.146835  y = -2.292963  z =  2.445372 angstrom
           Maximum rank =  0   Radius =  0.325 angstrom
                   Q00  =   0.095861

H          x =  1.954835  y =  2.035037  z = -0.434628 angstrom
           Maximum rank =  0   Radius =  0.325 angstrom
                   Q00  =   0.130032

H          x =  2.249295  y = -1.114083  z =  3.471012 angstrom
           Maximum rank =  0   Radius =  0.325 angstrom
                   Q00  =   0.106366

Total multipoles referred to origin at
           x =   0.000000,  y =    0.000000,  z =    0.000000 angstrom
                   Q00  =  -0.000000

Finished at 8:59:12 on 28 Apr 2020

  DMA results are available in the Python driver through the
	  variable('DMA DISTRIBUTED MULTIPOLES')
  and
	  variable('DMA TOTAL MULTIPOLES')
  commands.

    Psi4 stopped on: Tuesday, 28 April 2020 08:59AM
    Psi4 wall time for execution: 0:02:59.07

*** Psi4 exiting successfully. Buy a developer a beer!
