                               Psi4 1.3.2 release

  ==> Input File <==

--------------------------------------------------------------------------
import numpy as np
set {scf_type pk
basis cc-pvdz
d_convergence 10
gdma_switch   0
gdma_limit    0
gdma_origin   [ 0.0,  0.0,  0.0 ]
}
molecule test {
    units Angstrom
    -1 1
    --
    -1 1
    C                0.522157266476843     3.081594578220306    -0.368351306646273
    C                0.242157266476843     0.721594578220306    -1.236351306646273
    C                1.084157266476844     1.808594578220306    -0.969351306646272
    C                0.737157266476843    -0.456405421779694    -1.792351306646272
    C                2.094157266476843    -0.568405421779694    -2.088351306646273
    C                2.446157266476844     1.689594578220306    -1.274351306646272
    C                2.954157266476844     0.503594578220306    -1.828351306646272
    O                2.560157266476844    -1.734405421779694    -2.626351306646272
    H               -0.810842733523157     0.753594578220306    -1.013351306646272
    H                0.067157266476843    -1.282405421779694    -1.990351306646272
    H                1.205157266476844     3.907594578220306    -0.574351306646272
    H                0.463157266476843     2.975594578220306     0.711648693353728
    H                3.110157266476843     2.521594578220306    -1.084351306646272
    H                1.856157266476844    -2.376405421779694    -2.767351306646272
    H                4.004157266476843     0.403594578220306    -2.059351306646273
    H               -0.466132733523156     3.331354578220306    -0.781751306646272
    C               -2.168842733523157    -0.156405421779694     1.489648693353728
    C               -1.103842733523157     0.655594578220306     2.216648693353728
    C               -2.688842733523157    -1.312405421779694     2.327648693353728
    O               -3.061842733523156    -1.090405421779694     3.498648693353728
    O               -2.729842733523157    -2.452405421779694     1.813648693353728
    H               -2.993842733523156     0.486594578220306     1.178648693353728
    H               -1.720842733523157    -0.557405421779694     0.579648693353728
    H               -0.638842733523157     1.293594578220306     1.473648693353728
    H               -0.350842733523157    -0.026405421779694     2.607648693353728
    H               -1.477038733523157     1.274955578220306     3.045568693353728

}
e, wfn = energy('scf', return_wfn=True)
gdma(wfn)
dmavals = variable('DMA DISTRIBUTED MULTIPOLES')
charges = np.array(dmavals)
print(charges)
np.save('SSI-014TYR-019GLU-1-dimer.npy', np.array(charges))--------------------------------------------------------------------------

*** tstart() called on ds3
*** at Mon Apr 27 13:21:30 2020

   => Loading Basis Set <=

    Name: CC-PVDZ
    Role: ORBITAL
    Keyword: BASIS
    atoms 1-7, 17-19  entry C          line   138 file /theoryfs2/ds/metcalf/miniconda2/envs/tf2gpu/share/psi4/basis/cc-pvdz.gbs
    atoms 8, 20-21    entry O          line   198 file /theoryfs2/ds/metcalf/miniconda2/envs/tf2gpu/share/psi4/basis/cc-pvdz.gbs
    atoms 9-16, 22-26 entry H          line    22 file /theoryfs2/ds/metcalf/miniconda2/envs/tf2gpu/share/psi4/basis/cc-pvdz.gbs

         ---------------------------------------------------------
                                   SCF
               by Justin Turney, Rob Parrish, Andy Simmonett
                          and Daniel G. A. Smith
                              RHF Reference
                        1 Threads,    500 MiB Core
         ---------------------------------------------------------

  ==> Geometry <==

    Molecular point group: c1
    Full point group: C1

    Geometry (in Angstrom), charge = -1, multiplicity = 1:

       Center              X                  Y                   Z               Mass
    ------------   -----------------  -----------------  -----------------  -----------------
         C            0.522157266477     3.081594578220    -0.368351306646    12.000000000000
         C            0.242157266477     0.721594578220    -1.236351306646    12.000000000000
         C            1.084157266477     1.808594578220    -0.969351306646    12.000000000000
         C            0.737157266477    -0.456405421780    -1.792351306646    12.000000000000
         C            2.094157266477    -0.568405421780    -2.088351306646    12.000000000000
         C            2.446157266477     1.689594578220    -1.274351306646    12.000000000000
         C            2.954157266477     0.503594578220    -1.828351306646    12.000000000000
         O            2.560157266477    -1.734405421780    -2.626351306646    15.994914619570
         H           -0.810842733523     0.753594578220    -1.013351306646     1.007825032230
         H            0.067157266477    -1.282405421780    -1.990351306646     1.007825032230
         H            1.205157266477     3.907594578220    -0.574351306646     1.007825032230
         H            0.463157266477     2.975594578220     0.711648693354     1.007825032230
         H            3.110157266477     2.521594578220    -1.084351306646     1.007825032230
         H            1.856157266477    -2.376405421780    -2.767351306646     1.007825032230
         H            4.004157266477     0.403594578220    -2.059351306646     1.007825032230
         H           -0.466132733523     3.331354578220    -0.781751306646     1.007825032230
         C           -2.168842733523    -0.156405421780     1.489648693354    12.000000000000
         C           -1.103842733523     0.655594578220     2.216648693354    12.000000000000
         C           -2.688842733523    -1.312405421780     2.327648693354    12.000000000000
         O           -3.061842733523    -1.090405421780     3.498648693354    15.994914619570
         O           -2.729842733523    -2.452405421780     1.813648693354    15.994914619570
         H           -2.993842733523     0.486594578220     1.178648693354     1.007825032230
         H           -1.720842733523    -0.557405421780     0.579648693354     1.007825032230
         H           -0.638842733523     1.293594578220     1.473648693354     1.007825032230
         H           -0.350842733523    -0.026405421780     2.607648693354     1.007825032230
         H           -1.477038733523     1.274955578220     3.045568693354     1.007825032230

  Running in c1 symmetry.

  Rotational constants: A =      0.03747  B =      0.01046  C =      0.00861 [cm^-1]
  Rotational constants: A =   1123.43159  B =    313.49001  C =    258.21707 [MHz]
  Nuclear repulsion =  721.941382398473479

  Charge       = -1
  Multiplicity = 1
  Electrons    = 98
  Nalpha       = 49
  Nbeta        = 49

  ==> Algorithm <==

  SCF Algorithm Type is PK.
  DIIS enabled.
  MOM disabled.
  Fractional occupation disabled.
  Guess Type is SAD.
  Energy threshold   = 1.00e-06
  Density threshold  = 1.00e-10
  Integral threshold = 0.00e+00

  ==> Primary Basis <==

  Basis Set: CC-PVDZ
    Blend: CC-PVDZ
    Number of shells: 117
    Number of basis function: 247
    Number of Cartesian functions: 260
    Spherical Harmonics?: true
    Max angular momentum: 2

  ==> Pre-Iterations <==

   -------------------------------------------------------
    Irrep   Nso     Nmo     Nalpha   Nbeta   Ndocc  Nsocc
   -------------------------------------------------------
     A        247     247       0       0       0       0
   -------------------------------------------------------
    Total     247     247      49      49      49       0
   -------------------------------------------------------

  ==> Integral Setup <==

  Using integral reordering PK algorithm.
  Sizing the integral batches needed.
  Building batch lookup table.
   Calculation information:
      Number of atoms:                  26
      Number of AO shells:             117
      Number of primitives:            351
      Number of atomic orbitals:       260
      Number of basis functions:       247

      Integral cutoff                 1.00e-12
      Number of threads:                 1

	Batch   1 pq = [       0,    9405] index = [             0,44231715] size =     44231715
	Batch   2 pq = [    9405,   13301] index = [      44231715,88464951] size =     44233236
	Batch   3 pq = [   13301,   16290] index = [      88464951,132690195] size =     44225244
	Batch   4 pq = [   16290,   18810] index = [     132690195,176917455] size =     44227260
	Batch   5 pq = [   18810,   21030] index = [     176917455,221140965] size =     44223510
	Batch   6 pq = [   21030,   23037] index = [     221140965,265363203] size =     44222238
	Batch   7 pq = [   23037,   24883] index = [     265363203,309594286] size =     44231083
	Batch   8 pq = [   24883,   26601] index = [     309594286,353819901] size =     44225615
	Batch   9 pq = [   26601,   28214] index = [     353819901,398029005] size =     44209104
	Batch  10 pq = [   28214,   29740] index = [     398029005,442248670] size =     44219665
	Batch  11 pq = [   29740,   30628] index = [     442248670,469052506] size =     26803836
  Task number: 43
  Buffer size: 11059200
  Buffer per thread: 2
  We computed 21003116 shell quartets total.
  Whereas there are 23829156 unique shell quartets.

  ==> DiskJK: Disk-Based J/K Matrices <==

    J tasked:                  Yes
    K tasked:                  Yes
    wK tasked:                  No
    Memory [MiB]:              375
    Schwarz Cutoff:          1E-12

    OpenMP threads:              1

  Minimum eigenvalue in the overlap matrix is 3.2955703094E-04.
  Using Symmetric Orthogonalization.

  SCF Guess: Superposition of Atomic Densities via on-the-fly atomic UHF.

  ==> Iterations <==

                        Total Energy        Delta E     RMS |[F,P]|

   @RHF iter SAD:  -609.17497413967010   -6.09175e+02   0.00000e+00
   @RHF iter   1:  -610.51509540727386   -1.34012e+00   3.41418e-03 DIIS
   @RHF iter   2:  -610.81845131908449   -3.03356e-01   1.78317e-03 DIIS
   @RHF iter   3:  -610.89253908025444   -7.40878e-02   3.19879e-04 DIIS
   @RHF iter   4:  -610.89679100467208   -4.25192e-03   1.23602e-04 DIIS
   @RHF iter   5:  -610.89737666844223   -5.85664e-04   1.96374e-05 DIIS
   @RHF iter   6:  -610.89740043527752   -2.37668e-05   7.18416e-06 DIIS
   @RHF iter   7:  -610.89740315881863   -2.72354e-06   2.71458e-06 DIIS
   @RHF iter   8:  -610.89740365657417   -4.97756e-07   1.02357e-06 DIIS
   @RHF iter   9:  -610.89740375758242   -1.01008e-07   4.37063e-07 DIIS
   @RHF iter  10:  -610.89740378493650   -2.73541e-08   1.97916e-07 DIIS
   @RHF iter  11:  -610.89740379201635   -7.07985e-09   8.14431e-08 DIIS
   @RHF iter  12:  -610.89740379293130   -9.14952e-10   3.62704e-08 DIIS
   @RHF iter  13:  -610.89740379307818   -1.46883e-10   1.00286e-08 DIIS
   @RHF iter  14:  -610.89740379309058   -1.23919e-11   4.24220e-09 DIIS
   @RHF iter  15:  -610.89740379308967    9.09495e-13   1.22325e-09 DIIS
   @RHF iter  16:  -610.89740379308989   -2.27374e-13   6.54392e-10 DIIS
   @RHF iter  17:  -610.89740379309228   -2.38742e-12   2.83462e-10 DIIS
   @RHF iter  18:  -610.89740379309114    1.13687e-12   1.12617e-10 DIIS
   @RHF iter  19:  -610.89740379309114    0.00000e+00   4.83965e-11 DIIS
  Energy and wave function converged.

  ==> Post-Iterations <==

    Orbital Energies [Eh]
    ---------------------

    Doubly Occupied:

       1A    -20.507713     2A    -20.254079     3A    -20.254015
       4A    -11.222181     5A    -11.164415     6A    -11.156647
       7A    -11.156541     8A    -11.154443     9A    -11.150552
      10A    -11.149613    11A    -11.109195    12A    -11.075672
      13A    -11.054422    14A     -1.322832    15A     -1.146011
      16A     -1.067468    17A     -1.030644    18A     -0.956085
      19A     -0.935955    20A     -0.876700    21A     -0.847291
      22A     -0.762788    23A     -0.723861    24A     -0.705816
      25A     -0.654175    26A     -0.587065    27A     -0.561851
      28A     -0.528377    29A     -0.514482    30A     -0.508647
      31A     -0.503452    32A     -0.493932    33A     -0.489957
      34A     -0.456773    35A     -0.449450    36A     -0.428783
      37A     -0.416906    38A     -0.404225    39A     -0.387650
      40A     -0.386606    41A     -0.366061    42A     -0.361061
      43A     -0.326606    44A     -0.298130    45A     -0.256875
      46A     -0.222368    47A     -0.178092    48A     -0.166748
      49A     -0.155807

    Virtual:

      50A      0.209130    51A      0.234076    52A      0.258042
      53A      0.265650    54A      0.288780    55A      0.306911
      56A      0.326078    57A      0.339556    58A      0.352163
      59A      0.358980    60A      0.385384    61A      0.392536
      62A      0.410866    63A      0.425371    64A      0.446845
      65A      0.453150    66A      0.473463    67A      0.482871
      68A      0.508806    69A      0.533654    70A      0.559131
      71A      0.571238    72A      0.582036    73A      0.599233
      74A      0.645041    75A      0.693082    76A      0.702771
      77A      0.712045    78A      0.722160    79A      0.729053
      80A      0.739039    81A      0.749284    82A      0.774138
      83A      0.783575    84A      0.785588    85A      0.797141
      86A      0.813557    87A      0.825276    88A      0.837921
      89A      0.845345    90A      0.853892    91A      0.863499
      92A      0.866181    93A      0.896066    94A      0.918655
      95A      0.932578    96A      0.946872    97A      0.951395
      98A      0.957946    99A      0.963786   100A      0.971592
     101A      0.982147   102A      0.992820   103A      1.000260
     104A      1.013686   105A      1.020522   106A      1.025522
     107A      1.035764   108A      1.049444   109A      1.055217
     110A      1.065021   111A      1.073079   112A      1.085297
     113A      1.095934   114A      1.108839   115A      1.113812
     116A      1.139993   117A      1.148655   118A      1.185681
     119A      1.206732   120A      1.222878   121A      1.229776
     122A      1.255557   123A      1.279185   124A      1.287501
     125A      1.309107   126A      1.323602   127A      1.325674
     128A      1.343162   129A      1.352266   130A      1.362390
     131A      1.377280   132A      1.389445   133A      1.395633
     134A      1.399670   135A      1.423365   136A      1.436166
     137A      1.465427   138A      1.517059   139A      1.541973
     140A      1.561827   141A      1.563907   142A      1.587091
     143A      1.603408   144A      1.612199   145A      1.627140
     146A      1.649790   147A      1.654769   148A      1.670968
     149A      1.690297   150A      1.699297   151A      1.707494
     152A      1.746418   153A      1.753713   154A      1.801109
     155A      1.809233   156A      1.814502   157A      1.849034
     158A      1.858921   159A      1.872519   160A      1.882214
     161A      1.897881   162A      1.948580   163A      1.958499
     164A      1.960526   165A      1.977045   166A      1.986080
     167A      1.996669   168A      2.008397   169A      2.015485
     170A      2.029812   171A      2.036657   172A      2.041814
     173A      2.057255   174A      2.061588   175A      2.095483
     176A      2.104365   177A      2.118296   178A      2.128258
     179A      2.136674   180A      2.142515   181A      2.144857
     182A      2.154621   183A      2.157704   184A      2.178118
     185A      2.200188   186A      2.214964   187A      2.226659
     188A      2.235463   189A      2.256960   190A      2.285230
     191A      2.293006   192A      2.311733   193A      2.349630
     194A      2.362157   195A      2.373129   196A      2.380306
     197A      2.401339   198A      2.412805   199A      2.438501
     200A      2.467701   201A      2.483637   202A      2.505821
     203A      2.528499   204A      2.530589   205A      2.552011
     206A      2.562997   207A      2.598971   208A      2.617906
     209A      2.620943   210A      2.641138   211A      2.703835
     212A      2.721090   213A      2.736530   214A      2.763331
     215A      2.828332   216A      2.836403   217A      2.849315
     218A      2.870964   219A      2.890718   220A      2.922687
     221A      2.935522   222A      2.978597   223A      2.993331
     224A      3.023042   225A      3.044990   226A      3.080069
     227A      3.109452   228A      3.134432   229A      3.157621
     230A      3.199992   231A      3.256273   232A      3.290689
     233A      3.312335   234A      3.322465   235A      3.352047
     236A      3.369812   237A      3.419154   238A      3.645295
     239A      3.647698   240A      3.732253   241A      3.788654
     242A      3.826926   243A      4.046299   244A      4.059264
     245A      4.086012   246A      4.209705   247A      4.256098

    Final Occupation by Irrep:
              A
    DOCC [    49 ]

  @RHF Final Energy:  -610.89740379309114

   => Energetics <=

    Nuclear Repulsion Energy =            721.9413823984734790
    One-Electron Energy =               -2279.8995364741399499
    Two-Electron Energy =                 947.0607502825753272
    Total Energy =                       -610.8974037930911436

Computation Completed

Properties will be evaluated at   0.000000,   0.000000,   0.000000 [a0]

Properties computed using the SCF density matrix

  Nuclear Dipole Moment: [e a0]
     X:     2.0915      Y:    11.8860      Z:    -0.6190

  Electronic Dipole Moment: [e a0]
     X:     2.4082      Y:    -8.6796      Z:    -4.2102

  Dipole Moment: [e a0]
     X:     4.4997      Y:     3.2064      Z:    -4.8292     Total:     7.3382

  Dipole Moment: [D]
     X:    11.4370      Y:     8.1499      Z:   -12.2746     Total:    18.6519

*** tstop() called on ds3 at Mon Apr 27 13:25:53 2020
Module time:
	user time   =     192.82 seconds =       3.21 minutes
	system time =      81.98 seconds =       1.37 minutes
	total time  =        263 seconds =       4.38 minutes
Total time:
	user time   =     192.82 seconds =       3.21 minutes
	system time =      81.98 seconds =       1.37 minutes
	total time  =        263 seconds =       4.38 minutes
                                     G D M A

                                 by Anthony Stone

                           version 2.2.06, 22 June 2011

               Distributed Multipoles from Gaussian wavefunctions

Starting at 13:25:53 on 27 Apr 2020

Using SCF density matrix from file ./SSI/SSI-014TYR-019GLU-1-dimer.test.6324.fchk

                         Distributed Multipole Analysis

Standard DMA

Positions and radii in angstrom
Multipole moments in atomic units, ea_0^k for rank k

C          x =  0.522157  y =  3.081595  z = -0.368351 angstrom
           Maximum rank =  0   Radius =  0.650 angstrom
                   Q00  =  -0.204111

C          x =  0.242157  y =  0.721595  z = -1.236351 angstrom
           Maximum rank =  0   Radius =  0.650 angstrom
                   Q00  =   0.064409

C          x =  1.084157  y =  1.808595  z = -0.969351 angstrom
           Maximum rank =  0   Radius =  0.650 angstrom
                   Q00  =  -0.124805

C          x =  0.737157  y = -0.456405  z = -1.792351 angstrom
           Maximum rank =  0   Radius =  0.650 angstrom
                   Q00  =  -0.174065

C          x =  2.094157  y = -0.568405  z = -2.088351 angstrom
           Maximum rank =  0   Radius =  0.650 angstrom
                   Q00  =   0.270342

C          x =  2.446157  y =  1.689595  z = -1.274351 angstrom
           Maximum rank =  0   Radius =  0.650 angstrom
                   Q00  =  -0.053600

C          x =  2.954157  y =  0.503595  z = -1.828351 angstrom
           Maximum rank =  0   Radius =  0.650 angstrom
                   Q00  =  -0.110851

O          x =  2.560157  y = -1.734405  z = -2.626351 angstrom
           Maximum rank =  0   Radius =  0.650 angstrom
                   Q00  =  -0.649599

H          x = -0.810843  y =  0.753595  z = -1.013351 angstrom
           Maximum rank =  0   Radius =  0.325 angstrom
                   Q00  =   0.086687

H          x =  0.067157  y = -1.282405  z = -1.990351 angstrom
           Maximum rank =  0   Radius =  0.325 angstrom
                   Q00  =   0.082364

H          x =  1.205157  y =  3.907595  z = -0.574351 angstrom
           Maximum rank =  0   Radius =  0.325 angstrom
                   Q00  =   0.079259

H          x =  0.463157  y =  2.975595  z =  0.711649 angstrom
           Maximum rank =  0   Radius =  0.325 angstrom
                   Q00  =   0.115459

H          x =  3.110157  y =  2.521595  z = -1.084351 angstrom
           Maximum rank =  0   Radius =  0.325 angstrom
                   Q00  =   0.053177

H          x =  1.856157  y = -2.376405  z = -2.767351 angstrom
           Maximum rank =  0   Radius =  0.325 angstrom
                   Q00  =   0.408595

H          x =  4.004157  y =  0.403595  z = -2.059351 angstrom
           Maximum rank =  0   Radius =  0.325 angstrom
                   Q00  =   0.067016

H          x = -0.466133  y =  3.331355  z = -0.781751 angstrom
           Maximum rank =  0   Radius =  0.325 angstrom
                   Q00  =   0.096892

C          x = -2.168843  y = -0.156405  z =  1.489649 angstrom
           Maximum rank =  0   Radius =  0.650 angstrom
                   Q00  =  -0.123366

C          x = -1.103843  y =  0.655595  z =  2.216649 angstrom
           Maximum rank =  0   Radius =  0.650 angstrom
                   Q00  =  -0.209953

C          x = -2.688843  y = -1.312405  z =  2.327649 angstrom
           Maximum rank =  0   Radius =  0.650 angstrom
                   Q00  =   1.032120

O          x = -3.061843  y = -1.090405  z =  3.498649 angstrom
           Maximum rank =  0   Radius =  0.650 angstrom
                   Q00  =  -0.963237

O          x = -2.729843  y = -2.452405  z =  1.813649 angstrom
           Maximum rank =  0   Radius =  0.650 angstrom
                   Q00  =  -0.951677

H          x = -2.993843  y =  0.486595  z =  1.178649 angstrom
           Maximum rank =  0   Radius =  0.325 angstrom
                   Q00  =   0.041625

H          x = -1.720843  y = -0.557405  z =  0.579649 angstrom
           Maximum rank =  0   Radius =  0.325 angstrom
                   Q00  =   0.003994

H          x = -0.638843  y =  1.293595  z =  1.473649 angstrom
           Maximum rank =  0   Radius =  0.325 angstrom
                   Q00  =   0.006021

H          x = -0.350843  y = -0.026405  z =  2.607649 angstrom
           Maximum rank =  0   Radius =  0.325 angstrom
                   Q00  =   0.079117

H          x = -1.477039  y =  1.274956  z =  3.045569 angstrom
           Maximum rank =  0   Radius =  0.325 angstrom
                   Q00  =   0.078186

Total multipoles referred to origin at
           x =   0.000000,  y =    0.000000,  z =    0.000000 angstrom
                   Q00  =  -1.000000

Finished at 13:25:53 on 27 Apr 2020

  DMA results are available in the Python driver through the
	  variable('DMA DISTRIBUTED MULTIPOLES')
  and
	  variable('DMA TOTAL MULTIPOLES')
  commands.

    Psi4 stopped on: Monday, 27 April 2020 01:25PM
    Psi4 wall time for execution: 0:04:23.21

*** Psi4 exiting successfully. Buy a developer a beer!
