                               Psi4 1.3.2 release

  ==> Input File <==

--------------------------------------------------------------------------
import numpy as np
set {scf_type pk
basis cc-pvdz
d_convergence 10
gdma_switch   0
gdma_limit    0
gdma_origin   [ 0.0,  0.0,  0.0 ]
}
molecule test {
    units Angstrom
    0 1
    --
    0 1
    C               -2.336403698006055     3.059518743016404     1.770561688399866
    C               -1.708403698006054    -0.095481256983596    -0.168438311600134
    C               -1.278403698006055     1.175518743016404     0.294561688399866
    C               -2.342403698006055     1.729518743016404     1.082561688399866
    C               -3.345403698006054     0.809518743016404     1.067561688399866
    C                0.340596301993946    -0.432481256983596    -1.315438311600134
    C               -0.914403698006054    -0.902481256983596    -0.969438311600134
    C                0.796596301993945     0.813518743016404    -0.867438311600134
    C               -0.002403698006054     1.623518743016404    -0.066438311600134
    N               -2.972403698006055    -0.285481256983596     0.320561688399866
    H                0.948596301993946    -0.994481256983596    -2.016438311600134
    H               -1.296403698006054    -1.839481256983596    -1.357438311600134
    H                1.774596301993945     1.160518743016404    -1.171438311600134
    H                0.352596301993946     2.582518743016404     0.282561688399866
    H               -3.570403698006055    -1.086481256983596     0.153561688399866
    H               -4.299403698006055     0.919518743016404     1.566561688399866
    H               -2.080403698006054     3.835518743016404     1.048561688399866
    H               -1.546403698006054     3.029518743016404     2.523561688399866
    H               -3.284343698006055     3.322238743016404     2.262891688399866
    C                3.843596301993945    -1.780481256983596    -0.368438311600134
    C                5.128596301993946    -1.908481256983596    -1.156438311600134
    C                3.540596301993946    -3.104481256983596     0.319561688399866
    H                3.956596301993946    -0.995481256983596     0.381561688399866
    H                3.036596301993946    -1.514481256983596    -1.048438311600134
    H                5.010596301993946    -2.685481256983596    -1.914438311600134
    H                5.918596301993945    -2.226481256983596    -0.471438311600134
    H                3.426596301993945    -3.889481256983596    -0.431438311600134
    H                4.374596301993947    -3.390481256983596     0.943561688399866
    H                5.448202301993946    -0.972751256983596    -1.638372311600134
    H                2.623999301993945    -3.042891256983596     0.924587688399866

}
e, wfn = energy('scf', return_wfn=True)
gdma(wfn)
dmavals = variable('DMA DISTRIBUTED MULTIPOLES')
charges = np.array(dmavals)
print(charges)
np.save('SSI-037TRP-055LYS-2-dimer.npy', np.array(charges))--------------------------------------------------------------------------

*** tstart() called on ds3
*** at Tue Apr 28 12:54:03 2020

   => Loading Basis Set <=

    Name: CC-PVDZ
    Role: ORBITAL
    Keyword: BASIS
    atoms 1-9, 20-22   entry C          line   138 file /theoryfs2/ds/metcalf/miniconda2/envs/tf2gpu/share/psi4/basis/cc-pvdz.gbs
    atoms 10           entry N          line   168 file /theoryfs2/ds/metcalf/miniconda2/envs/tf2gpu/share/psi4/basis/cc-pvdz.gbs
    atoms 11-19, 23-30 entry H          line    22 file /theoryfs2/ds/metcalf/miniconda2/envs/tf2gpu/share/psi4/basis/cc-pvdz.gbs

         ---------------------------------------------------------
                                   SCF
               by Justin Turney, Rob Parrish, Andy Simmonett
                          and Daniel G. A. Smith
                              RHF Reference
                        1 Threads,    500 MiB Core
         ---------------------------------------------------------

  ==> Geometry <==

    Molecular point group: c1
    Full point group: C1

    Geometry (in Angstrom), charge = 0, multiplicity = 1:

       Center              X                  Y                   Z               Mass
    ------------   -----------------  -----------------  -----------------  -----------------
         C           -2.336403698006     3.059518743016     1.770561688400    12.000000000000
         C           -1.708403698006    -0.095481256984    -0.168438311600    12.000000000000
         C           -1.278403698006     1.175518743016     0.294561688400    12.000000000000
         C           -2.342403698006     1.729518743016     1.082561688400    12.000000000000
         C           -3.345403698006     0.809518743016     1.067561688400    12.000000000000
         C            0.340596301994    -0.432481256984    -1.315438311600    12.000000000000
         C           -0.914403698006    -0.902481256984    -0.969438311600    12.000000000000
         C            0.796596301994     0.813518743016    -0.867438311600    12.000000000000
         C           -0.002403698006     1.623518743016    -0.066438311600    12.000000000000
         N           -2.972403698006    -0.285481256984     0.320561688400    14.003074004430
         H            0.948596301994    -0.994481256984    -2.016438311600     1.007825032230
         H           -1.296403698006    -1.839481256984    -1.357438311600     1.007825032230
         H            1.774596301994     1.160518743016    -1.171438311600     1.007825032230
         H            0.352596301994     2.582518743016     0.282561688400     1.007825032230
         H           -3.570403698006    -1.086481256984     0.153561688400     1.007825032230
         H           -4.299403698006     0.919518743016     1.566561688400     1.007825032230
         H           -2.080403698006     3.835518743016     1.048561688400     1.007825032230
         H           -1.546403698006     3.029518743016     2.523561688400     1.007825032230
         H           -3.284343698006     3.322238743016     2.262891688400     1.007825032230
         C            3.843596301994    -1.780481256984    -0.368438311600    12.000000000000
         C            5.128596301994    -1.908481256984    -1.156438311600    12.000000000000
         C            3.540596301994    -3.104481256984     0.319561688400    12.000000000000
         H            3.956596301994    -0.995481256984     0.381561688400     1.007825032230
         H            3.036596301994    -1.514481256984    -1.048438311600     1.007825032230
         H            5.010596301994    -2.685481256984    -1.914438311600     1.007825032230
         H            5.918596301994    -2.226481256984    -0.471438311600     1.007825032230
         H            3.426596301994    -3.889481256984    -0.431438311600     1.007825032230
         H            4.374596301994    -3.390481256984     0.943561688400     1.007825032230
         H            5.448202301994    -0.972751256984    -1.638372311600     1.007825032230
         H            2.623999301994    -3.042891256984     0.924587688400     1.007825032230

  Running in c1 symmetry.

  Rotational constants: A =      0.05320  B =      0.00946  C =      0.00886 [cm^-1]
  Rotational constants: A =   1595.03234  B =    283.68241  C =    265.47287 [MHz]
  Nuclear repulsion =  722.264503249364111

  Charge       = 0
  Multiplicity = 1
  Electrons    = 96
  Nalpha       = 48
  Nbeta        = 48

  ==> Algorithm <==

  SCF Algorithm Type is PK.
  DIIS enabled.
  MOM disabled.
  Fractional occupation disabled.
  Guess Type is SAD.
  Energy threshold   = 1.00e-06
  Density threshold  = 1.00e-10
  Integral threshold = 0.00e+00

  ==> Primary Basis <==

  Basis Set: CC-PVDZ
    Blend: CC-PVDZ
    Number of shells: 129
    Number of basis function: 267
    Number of Cartesian functions: 280
    Spherical Harmonics?: true
    Max angular momentum: 2

  ==> Pre-Iterations <==

   -------------------------------------------------------
    Irrep   Nso     Nmo     Nalpha   Nbeta   Ndocc  Nsocc
   -------------------------------------------------------
     A        267     267       0       0       0       0
   -------------------------------------------------------
    Total     267     267      48      48      48       0
   -------------------------------------------------------

  ==> Integral Setup <==

  Using integral reordering PK algorithm.
  Sizing the integral batches needed.
  Building batch lookup table.
   Calculation information:
      Number of atoms:                  30
      Number of AO shells:             129
      Number of primitives:            371
      Number of atomic orbitals:       280
      Number of basis functions:       267

      Integral cutoff                 1.00e-12
      Number of threads:                 1

	Batch   1 pq = [       0,    9405] index = [             0,44231715] size =     44231715
	Batch   2 pq = [    9405,   13301] index = [      44231715,88464951] size =     44233236
	Batch   3 pq = [   13301,   16290] index = [      88464951,132690195] size =     44225244
	Batch   4 pq = [   16290,   18810] index = [     132690195,176917455] size =     44227260
	Batch   5 pq = [   18810,   21030] index = [     176917455,221140965] size =     44223510
	Batch   6 pq = [   21030,   23037] index = [     221140965,265363203] size =     44222238
	Batch   7 pq = [   23037,   24883] index = [     265363203,309594286] size =     44231083
	Batch   8 pq = [   24883,   26601] index = [     309594286,353819901] size =     44225615
	Batch   9 pq = [   26601,   28214] index = [     353819901,398029005] size =     44209104
	Batch  10 pq = [   28214,   29740] index = [     398029005,442248670] size =     44219665
	Batch  11 pq = [   29740,   31191] index = [     442248670,486454836] size =     44206166
	Batch  12 pq = [   31191,   32578] index = [     486454836,530679331] size =     44224495
	Batch  13 pq = [   32578,   33908] index = [     530679331,574893186] size =     44213855
	Batch  14 pq = [   33908,   35188] index = [     574893186,619115266] size =     44222080
	Batch  15 pq = [   35188,   35778] index = [     619115266,640050531] size =     20935265
  Task number: 58
  Buffer size: 11059200
  Buffer per thread: 2
  We computed 27552280 shell quartets total.
  Whereas there are 35158305 unique shell quartets.

  ==> DiskJK: Disk-Based J/K Matrices <==

    J tasked:                  Yes
    K tasked:                  Yes
    wK tasked:                  No
    Memory [MiB]:              375
    Schwarz Cutoff:          1E-12

    OpenMP threads:              1

  Minimum eigenvalue in the overlap matrix is 2.4386287416E-04.
  Using Symmetric Orthogonalization.

  SCF Guess: Superposition of Atomic Densities via on-the-fly atomic UHF.

  ==> Iterations <==

                        Total Energy        Delta E     RMS |[F,P]|

   @RHF iter SAD:  -518.10456869311065   -5.18105e+02   0.00000e+00
   @RHF iter   1:  -518.49162335732183   -3.87055e-01   2.51605e-03 DIIS
   @RHF iter   2:  -518.75283355434783   -2.61210e-01   1.12727e-03 DIIS
   @RHF iter   3:  -518.80074010357100   -4.79065e-02   2.84926e-04 DIIS
   @RHF iter   4:  -518.80489507190623   -4.15497e-03   1.29753e-04 DIIS
   @RHF iter   5:  -518.80556528015609   -6.70208e-04   1.96172e-05 DIIS
   @RHF iter   6:  -518.80559682653256   -3.15464e-05   8.62010e-06 DIIS
   @RHF iter   7:  -518.80560330795402   -6.48142e-06   3.52807e-06 DIIS
   @RHF iter   8:  -518.80560503151014   -1.72356e-06   1.48603e-06 DIIS
   @RHF iter   9:  -518.80560541401906   -3.82509e-07   6.45134e-07 DIIS
   @RHF iter  10:  -518.80560549072220   -7.67031e-08   2.86122e-07 DIIS
   @RHF iter  11:  -518.80560550826840   -1.75462e-08   1.08536e-07 DIIS
   @RHF iter  12:  -518.80560551069323   -2.42483e-09   4.01177e-08 DIIS
   @RHF iter  13:  -518.80560551088638   -1.93154e-10   1.12005e-08 DIIS
   @RHF iter  14:  -518.80560551089479   -8.41283e-12   4.26778e-09 DIIS
   @RHF iter  15:  -518.80560551089479    0.00000e+00   2.25399e-09 DIIS
   @RHF iter  16:  -518.80560551090491   -1.01181e-11   9.81771e-10 DIIS
   @RHF iter  17:  -518.80560551090559   -6.82121e-13   4.40405e-10 DIIS
   @RHF iter  18:  -518.80560551090286    2.72848e-12   1.65811e-10 DIIS
   @RHF iter  19:  -518.80560551089729    5.57066e-12   6.21663e-11 DIIS
  Energy and wave function converged.

  ==> Post-Iterations <==

    Orbital Energies [Eh]
    ---------------------

    Doubly Occupied:

       1A    -15.600040     2A    -11.263761     3A    -11.262936
       4A    -11.230628     5A    -11.230539     6A    -11.229196
       7A    -11.227412     8A    -11.220855     9A    -11.220274
      10A    -11.217864    11A    -11.212097    12A    -11.210788
      13A    -11.209511    14A     -1.294653    15A     -1.128926
      16A     -1.073807    17A     -1.054637    18A     -0.997434
      19A     -0.987276    20A     -0.931983    21A     -0.917210
      22A     -0.840083    23A     -0.803928    24A     -0.793334
      25A     -0.752527    26A     -0.719139    27A     -0.662208
      28A     -0.642753    29A     -0.624953    30A     -0.602589
      31A     -0.594583    32A     -0.591881    33A     -0.590595
      34A     -0.569400    35A     -0.551693    36A     -0.541697
      37A     -0.536706    38A     -0.527642    39A     -0.522303
      40A     -0.494960    41A     -0.473317    42A     -0.469940
      43A     -0.466644    44A     -0.464979    45A     -0.458950
      46A     -0.372253    47A     -0.294895    48A     -0.275359

    Virtual:

      49A      0.125298    50A      0.168160    51A      0.176780
      52A      0.182561    53A      0.190714    54A      0.208715
      55A      0.219647    56A      0.225753    57A      0.233130
      58A      0.236852    59A      0.243864    60A      0.256491
      61A      0.262533    62A      0.274103    63A      0.281897
      64A      0.286126    65A      0.288155    66A      0.302592
      67A      0.316950    68A      0.347341    69A      0.373585
      70A      0.376666    71A      0.390288    72A      0.405722
      73A      0.423167    74A      0.433375    75A      0.444667
      76A      0.473913    77A      0.481795    78A      0.501840
      79A      0.509949    80A      0.588585    81A      0.595322
      82A      0.602502    83A      0.608871    84A      0.613946
      85A      0.617811    86A      0.626158    87A      0.632672
      88A      0.641368    89A      0.665649    90A      0.701499
      91A      0.709701    92A      0.718834    93A      0.733191
      94A      0.738712    95A      0.740769    96A      0.745163
      97A      0.757662    98A      0.761631    99A      0.782766
     100A      0.789602   101A      0.797993   102A      0.811982
     103A      0.820996   104A      0.825074   105A      0.838451
     106A      0.852390   107A      0.868575   108A      0.871211
     109A      0.882167   110A      0.887094   111A      0.888738
     112A      0.895763   113A      0.900957   114A      0.902952
     115A      0.908126   116A      0.910081   117A      0.913467
     118A      0.921183   119A      0.930147   120A      0.948649
     121A      0.952318   122A      0.959104   123A      0.962322
     124A      0.975754   125A      0.981862   126A      0.984242
     127A      1.013785   128A      1.021484   129A      1.064181
     130A      1.080335   131A      1.089482   132A      1.124075
     133A      1.130285   134A      1.135962   135A      1.141533
     136A      1.154963   137A      1.165181   138A      1.171158
     139A      1.201164   140A      1.219424   141A      1.229454
     142A      1.230806   143A      1.248783   144A      1.254970
     145A      1.272472   146A      1.290041   147A      1.301740
     148A      1.323279   149A      1.347385   150A      1.362066
     151A      1.374625   152A      1.382354   153A      1.398749
     154A      1.444531   155A      1.482300   156A      1.497305
     157A      1.523402   158A      1.566572   159A      1.576942
     160A      1.582985   161A      1.590482   162A      1.610429
     163A      1.636581   164A      1.640030   165A      1.655278
     166A      1.684846   167A      1.688951   168A      1.692213
     169A      1.702169   170A      1.711741   171A      1.741815
     172A      1.757048   173A      1.777063   174A      1.786528
     175A      1.813202   176A      1.821107   177A      1.831894
     178A      1.861023   179A      1.873585   180A      1.883097
     181A      1.890261   182A      1.890761   183A      1.892024
     184A      1.911174   185A      1.917805   186A      1.928170
     187A      1.934016   188A      1.941981   189A      1.944754
     190A      1.960202   191A      1.969654   192A      1.973510
     193A      1.978000   194A      1.986917   195A      1.989198
     196A      1.992315   197A      1.996684   198A      2.013232
     199A      2.034415   200A      2.038727   201A      2.040446
     202A      2.050853   203A      2.077126   204A      2.085159
     205A      2.101716   206A      2.105365   207A      2.110978
     208A      2.135398   209A      2.139871   210A      2.141375
     211A      2.147865   212A      2.151952   213A      2.175604
     214A      2.186719   215A      2.221641   216A      2.228661
     217A      2.294671   218A      2.297718   219A      2.307860
     220A      2.317275   221A      2.322737   222A      2.325519
     223A      2.333486   224A      2.339586   225A      2.350568
     226A      2.392536   227A      2.435025   228A      2.453419
     229A      2.466242   230A      2.512908   231A      2.532074
     232A      2.537754   233A      2.580688   234A      2.593633
     235A      2.601634   236A      2.626764   237A      2.639115
     238A      2.652221   239A      2.656745   240A      2.677194
     241A      2.700306   242A      2.762479   243A      2.769236
     244A      2.774882   245A      2.779409   246A      2.791642
     247A      2.797987   248A      2.799848   249A      2.813501
     250A      2.835929   251A      2.862245   252A      2.869682
     253A      2.906979   254A      2.923366   255A      2.973332
     256A      2.977194   257A      2.983755   258A      3.034579
     259A      3.054416   260A      3.078103   261A      3.099390
     262A      3.126487   263A      3.207000   264A      3.309286
     265A      3.381811   266A      3.743669   267A      3.948671

    Final Occupation by Irrep:
              A
    DOCC [    48 ]

  @RHF Final Energy:  -518.80560551089729

   => Energetics <=

    Nuclear Repulsion Energy =            722.2645032493641111
    One-Electron Energy =               -2134.2179459662315821
    Two-Electron Energy =                 893.1478372059700632
    Total Energy =                       -518.8056055108972942

Computation Completed

Properties will be evaluated at   0.000000,   0.000000,   0.000000 [a0]

Properties computed using the SCF density matrix

  Nuclear Dipole Moment: [e a0]
     X:    19.5026      Y:    -7.3003      Z:     0.0347

  Electronic Dipole Moment: [e a0]
     X:   -20.2888      Y:     7.0231      Z:     0.0895

  Dipole Moment: [e a0]
     X:    -0.7862      Y:    -0.2773      Z:     0.1242     Total:     0.8429

  Dipole Moment: [D]
     X:    -1.9984      Y:    -0.7047      Z:     0.3157     Total:     2.1424

*** tstop() called on ds3 at Tue Apr 28 13:08:50 2020
Module time:
	user time   =     226.32 seconds =       3.77 minutes
	system time =     122.64 seconds =       2.04 minutes
	total time  =        887 seconds =      14.78 minutes
Total time:
	user time   =     226.32 seconds =       3.77 minutes
	system time =     122.64 seconds =       2.04 minutes
	total time  =        887 seconds =      14.78 minutes
                                     G D M A

                                 by Anthony Stone

                           version 2.2.06, 22 June 2011

               Distributed Multipoles from Gaussian wavefunctions

Starting at 13:8:50 on 28 Apr 2020

Using SCF density matrix from file ./SSI/SSI-037TRP-055LYS-2-dimer.test.15560.fchk

                         Distributed Multipole Analysis

Standard DMA

Positions and radii in angstrom
Multipole moments in atomic units, ea_0^k for rank k

C          x = -2.336404  y =  3.059519  z =  1.770562 angstrom
           Maximum rank =  0   Radius =  0.650 angstrom
                   Q00  =  -0.203156

C          x = -1.708404  y = -0.095481  z = -0.168438 angstrom
           Maximum rank =  0   Radius =  0.650 angstrom
                   Q00  =   0.280338

C          x = -1.278404  y =  1.175519  z =  0.294562 angstrom
           Maximum rank =  0   Radius =  0.650 angstrom
                   Q00  =  -0.058843

C          x = -2.342404  y =  1.729519  z =  1.082562 angstrom
           Maximum rank =  0   Radius =  0.650 angstrom
                   Q00  =  -0.120400

C          x = -3.345404  y =  0.809519  z =  1.067562 angstrom
           Maximum rank =  0   Radius =  0.650 angstrom
                   Q00  =   0.071098

C          x =  0.340596  y = -0.432481  z = -1.315438 angstrom
           Maximum rank =  0   Radius =  0.650 angstrom
                   Q00  =  -0.045350

C          x = -0.914404  y = -0.902481  z = -0.969438 angstrom
           Maximum rank =  0   Radius =  0.650 angstrom
                   Q00  =  -0.120899

C          x =  0.796596  y =  0.813519  z = -0.867438 angstrom
           Maximum rank =  0   Radius =  0.650 angstrom
                   Q00  =  -0.098643

C          x = -0.002404  y =  1.623519  z = -0.066438 angstrom
           Maximum rank =  0   Radius =  0.650 angstrom
                   Q00  =  -0.095910

N          x = -2.972404  y = -0.285481  z =  0.320562 angstrom
           Maximum rank =  0   Radius =  0.650 angstrom
                   Q00  =  -0.497811

H          x =  0.948596  y = -0.994481  z = -2.016438 angstrom
           Maximum rank =  0   Radius =  0.325 angstrom
                   Q00  =   0.065472

H          x = -1.296404  y = -1.839481  z = -1.357438 angstrom
           Maximum rank =  0   Radius =  0.325 angstrom
                   Q00  =   0.074602

H          x =  1.774596  y =  1.160519  z = -1.171438 angstrom
           Maximum rank =  0   Radius =  0.325 angstrom
                   Q00  =   0.061894

H          x =  0.352596  y =  2.582519  z =  0.282562 angstrom
           Maximum rank =  0   Radius =  0.325 angstrom
                   Q00  =   0.070188

H          x = -3.570404  y = -1.086481  z =  0.153562 angstrom
           Maximum rank =  0   Radius =  0.325 angstrom
                   Q00  =   0.216208

H          x = -4.299404  y =  0.919519  z =  1.566562 angstrom
           Maximum rank =  0   Radius =  0.325 angstrom
                   Q00  =   0.101268

H          x = -2.080404  y =  3.835519  z =  1.048562 angstrom
           Maximum rank =  0   Radius =  0.325 angstrom
                   Q00  =   0.098449

H          x = -1.546404  y =  3.029519  z =  2.523562 angstrom
           Maximum rank =  0   Radius =  0.325 angstrom
                   Q00  =   0.096028

H          x = -3.284344  y =  3.322239  z =  2.262892 angstrom
           Maximum rank =  0   Radius =  0.325 angstrom
                   Q00  =   0.105986

C          x =  3.843596  y = -1.780481  z = -0.368438 angstrom
           Maximum rank =  0   Radius =  0.650 angstrom
                   Q00  =  -0.091535

C          x =  5.128596  y = -1.908481  z = -1.156438 angstrom
           Maximum rank =  0   Radius =  0.650 angstrom
                   Q00  =  -0.222050

C          x =  3.540596  y = -3.104481  z =  0.319562 angstrom
           Maximum rank =  0   Radius =  0.650 angstrom
                   Q00  =  -0.240668

H          x =  3.956596  y = -0.995481  z =  0.381562 angstrom
           Maximum rank =  0   Radius =  0.325 angstrom
                   Q00  =   0.050011

H          x =  3.036596  y = -1.514481  z = -1.048438 angstrom
           Maximum rank =  0   Radius =  0.325 angstrom
                   Q00  =   0.048340

H          x =  5.010596  y = -2.685481  z = -1.914438 angstrom
           Maximum rank =  0   Radius =  0.325 angstrom
                   Q00  =   0.071299

H          x =  5.918596  y = -2.226481  z = -0.471438 angstrom
           Maximum rank =  0   Radius =  0.325 angstrom
                   Q00  =   0.070112

H          x =  3.426596  y = -3.889481  z = -0.431438 angstrom
           Maximum rank =  0   Radius =  0.325 angstrom
                   Q00  =   0.070107

H          x =  4.374596  y = -3.390481  z =  0.943562 angstrom
           Maximum rank =  0   Radius =  0.325 angstrom
                   Q00  =   0.075648

H          x =  5.448202  y = -0.972751  z = -1.638372 angstrom
           Maximum rank =  0   Radius =  0.325 angstrom
                   Q00  =   0.081063

H          x =  2.623999  y = -3.042891  z =  0.924588 angstrom
           Maximum rank =  0   Radius =  0.325 angstrom
                   Q00  =   0.087155

Total multipoles referred to origin at
           x =   0.000000,  y =    0.000000,  z =    0.000000 angstrom
                   Q00  =  -0.000000

Finished at 13:8:50 on 28 Apr 2020

  DMA results are available in the Python driver through the
	  variable('DMA DISTRIBUTED MULTIPOLES')
  and
	  variable('DMA TOTAL MULTIPOLES')
  commands.

    Psi4 stopped on: Tuesday, 28 April 2020 01:08PM
    Psi4 wall time for execution: 0:14:47.28

*** Psi4 exiting successfully. Buy a developer a beer!
