                               Psi4 1.3.2 release

  ==> Input File <==

--------------------------------------------------------------------------
import numpy as np
set {scf_type pk
basis cc-pvdz
d_convergence 10
gdma_switch   0
gdma_limit    0
gdma_origin   [ 0.0,  0.0,  0.0 ]
}
molecule test {
    units Angstrom
    0 1
    --
    0 1
    C               -1.659910779145022    -0.000513041965200    -0.192068232854059
    C               -2.812910779145022     1.005486958034800    -0.207068232854059
    H               -0.870910779145022     0.317486958034800    -0.878068232854059
    H               -1.235910779145022    -0.074513041965200     0.808931767145941
    H               -2.002910779145022    -0.999513041965200    -0.467068232854059
    H               -3.643910779145022     0.586486958034800     0.359931767145941
    H               -3.149270779145022     1.196466958034801    -1.236818232854059
    H               -2.490390779145022     1.944386958034801     0.266681767145941
    C                2.094089220854978     0.239486958034800     0.085931767145941
    C                2.379089220854978    -1.242513041965200     0.303931767145941
    H                1.681089220854978     0.398486958034800    -0.911068232854059
    H                1.375089220854978     0.587486958034800     0.828931767145941
    H                3.003089220854978     0.829486958034801     0.200931767145941
    H                2.836089220854978    -1.358513041965200     1.283931767145941
    H                3.052779220854978    -1.634544041965199    -0.472248232854059
    H                1.440919220854978    -1.816398041965200     0.326341767145941

}
e, wfn = energy('scf', return_wfn=True)
gdma(wfn)
dmavals = variable('DMA DISTRIBUTED MULTIPOLES')
charges = np.array(dmavals)
print(charges)
np.save('SSI-142ILE-155LEU-2-dimer.npy', np.array(charges))--------------------------------------------------------------------------

*** tstart() called on ds3
*** at Mon Apr 27 12:39:29 2020

   => Loading Basis Set <=

    Name: CC-PVDZ
    Role: ORBITAL
    Keyword: BASIS
    atoms 1-2, 9-10  entry C          line   138 file /theoryfs2/ds/metcalf/miniconda2/envs/tf2gpu/share/psi4/basis/cc-pvdz.gbs
    atoms 3-8, 11-16 entry H          line    22 file /theoryfs2/ds/metcalf/miniconda2/envs/tf2gpu/share/psi4/basis/cc-pvdz.gbs

         ---------------------------------------------------------
                                   SCF
               by Justin Turney, Rob Parrish, Andy Simmonett
                          and Daniel G. A. Smith
                              RHF Reference
                        1 Threads,    500 MiB Core
         ---------------------------------------------------------

  ==> Geometry <==

    Molecular point group: c1
    Full point group: C1

    Geometry (in Angstrom), charge = 0, multiplicity = 1:

       Center              X                  Y                   Z               Mass
    ------------   -----------------  -----------------  -----------------  -----------------
         C           -1.659910779145    -0.000513041965    -0.192068232854    12.000000000000
         C           -2.812910779145     1.005486958035    -0.207068232854    12.000000000000
         H           -0.870910779145     0.317486958035    -0.878068232854     1.007825032230
         H           -1.235910779145    -0.074513041965     0.808931767146     1.007825032230
         H           -2.002910779145    -0.999513041965    -0.467068232854     1.007825032230
         H           -3.643910779145     0.586486958035     0.359931767146     1.007825032230
         H           -3.149270779145     1.196466958035    -1.236818232854     1.007825032230
         H           -2.490390779145     1.944386958035     0.266681767146     1.007825032230
         C            2.094089220855     0.239486958035     0.085931767146    12.000000000000
         C            2.379089220855    -1.242513041965     0.303931767146    12.000000000000
         H            1.681089220855     0.398486958035    -0.911068232854     1.007825032230
         H            1.375089220855     0.587486958035     0.828931767146     1.007825032230
         H            3.003089220855     0.829486958035     0.200931767146     1.007825032230
         H            2.836089220855    -1.358513041965     1.283931767146     1.007825032230
         H            3.052779220855    -1.634544041965    -0.472248232854     1.007825032230
         H            1.440919220855    -1.816398041965     0.326341767146     1.007825032230

  Running in c1 symmetry.

  Rotational constants: A =      0.52710  B =      0.04833  C =      0.04586 [cm^-1]
  Rotational constants: A =  15802.10586  B =   1448.75436  C =   1374.70751 [MHz]
  Nuclear repulsion =  122.139431567043829

  Charge       = 0
  Multiplicity = 1
  Electrons    = 36
  Nalpha       = 18
  Nbeta        = 18

  ==> Algorithm <==

  SCF Algorithm Type is PK.
  DIIS enabled.
  MOM disabled.
  Fractional occupation disabled.
  Guess Type is SAD.
  Energy threshold   = 1.00e-06
  Density threshold  = 1.00e-10
  Integral threshold = 0.00e+00

  ==> Primary Basis <==

  Basis Set: CC-PVDZ
    Blend: CC-PVDZ
    Number of shells: 60
    Number of basis function: 116
    Number of Cartesian functions: 120
    Spherical Harmonics?: true
    Max angular momentum: 2

  ==> Pre-Iterations <==

   -------------------------------------------------------
    Irrep   Nso     Nmo     Nalpha   Nbeta   Ndocc  Nsocc
   -------------------------------------------------------
     A        116     116       0       0       0       0
   -------------------------------------------------------
    Total     116     116      18      18      18       0
   -------------------------------------------------------

  ==> Integral Setup <==

  Using integral reordering PK algorithm.
  Sizing the integral batches needed.
  Building batch lookup table.
   Calculation information:
      Number of atoms:                  16
      Number of AO shells:              60
      Number of primitives:            148
      Number of atomic orbitals:       120
      Number of basis functions:       116

      Integral cutoff                 1.00e-12
      Number of threads:                 1

	Batch   1 pq = [       0,    6786] index = [             0,23028291] size =     23028291
  Task number: 3
  Buffer size: 11059200
  Buffer per thread: 2
  We computed 1440431 shell quartets total.
  Whereas there are 1675365 unique shell quartets.

  ==> DiskJK: Disk-Based J/K Matrices <==

    J tasked:                  Yes
    K tasked:                  Yes
    wK tasked:                  No
    Memory [MiB]:              375
    Schwarz Cutoff:          1E-12

    OpenMP threads:              1

  Minimum eigenvalue in the overlap matrix is 7.1811606880E-03.
  Using Symmetric Orthogonalization.

  SCF Guess: Superposition of Atomic Densities via on-the-fly atomic UHF.

  ==> Iterations <==

                        Total Energy        Delta E     RMS |[F,P]|

   @RHF iter SAD:  -157.34442263396363   -1.57344e+02   0.00000e+00
   @RHF iter   1:  -158.30755801459549   -9.63135e-01   4.21642e-03 DIIS
   @RHF iter   2:  -158.44120207505026   -1.33644e-01   1.80174e-03 DIIS
   @RHF iter   3:  -158.46474257027180   -2.35405e-02   3.49091e-04 DIIS
   @RHF iter   4:  -158.46657055662612   -1.82799e-03   3.82089e-05 DIIS
   @RHF iter   5:  -158.46659348206558   -2.29254e-05   6.06961e-06 DIIS
   @RHF iter   6:  -158.46659404775784   -5.65692e-07   7.76399e-07 DIIS
   @RHF iter   7:  -158.46659405495924   -7.20141e-09   2.30624e-07 DIIS
   @RHF iter   8:  -158.46659405541351   -4.54264e-10   4.22264e-08 DIIS
   @RHF iter   9:  -158.46659405544082   -2.73133e-11   8.35901e-09 DIIS
   @RHF iter  10:  -158.46659405544159   -7.67386e-13   2.25211e-09 DIIS
   @RHF iter  11:  -158.46659405544250   -9.09495e-13   5.06400e-10 DIIS
   @RHF iter  12:  -158.46659405544187    6.25278e-13   1.51996e-10 DIIS
   @RHF iter  13:  -158.46659405544173    1.42109e-13   2.57497e-11 DIIS
  Energy and wave function converged.

  ==> Post-Iterations <==

    Orbital Energies [Eh]
    ---------------------

    Doubly Occupied:

       1A    -11.219828     2A    -11.218230     3A    -11.216935
       4A    -11.216068     5A     -1.019249     6A     -1.016648
       7A     -0.838422     8A     -0.834820     9A     -0.601058
      10A     -0.600412    11A     -0.595195    12A     -0.593008
      13A     -0.502751    14A     -0.499757    15A     -0.488895
      16A     -0.488512    17A     -0.482583    18A     -0.478963

    Virtual:

      19A      0.172041    20A      0.196232    21A      0.226013
      22A      0.231597    23A      0.236347    24A      0.255778
      25A      0.265156    26A      0.277528    27A      0.284860
      28A      0.291162    29A      0.308503    30A      0.353672
      31A      0.394107    32A      0.404336    33A      0.566071
      34A      0.593911    35A      0.596905    36A      0.604452
      37A      0.609477    38A      0.647795    39A      0.657372
      40A      0.682993    41A      0.689617    42A      0.802652
      43A      0.842113    44A      0.852082    45A      0.882153
      46A      0.888577    47A      0.893697    48A      0.896684
      49A      0.904171    50A      0.905464    51A      0.911859
      52A      0.919650    53A      0.947686    54A      0.957398
      55A      0.972885    56A      0.985019    57A      1.121340
      58A      1.122545    59A      1.133754    60A      1.152007
      61A      1.224157    62A      1.253660    63A      1.471231
      64A      1.474332    65A      1.480239    66A      1.486505
      67A      1.567768    68A      1.576826    69A      1.680000
      70A      1.684148    71A      1.693383    72A      1.706760
      73A      1.859042    74A      1.861693    75A      1.866434
      76A      1.884475    77A      1.898219    78A      1.904737
      79A      1.937137    80A      1.940442    81A      1.944526
      82A      1.945714    83A      1.949187    84A      1.951799
      85A      1.954073    86A      1.968461    87A      1.980627
      88A      2.024363    89A      2.094228    90A      2.103052
      91A      2.116879    92A      2.140528    93A      2.296139
      94A      2.303011    95A      2.318738    96A      2.326276
      97A      2.441146    98A      2.450118    99A      2.456482
     100A      2.472531   101A      2.557734   102A      2.561760
     103A      2.575645   104A      2.580321   105A      2.760293
     106A      2.766223   107A      2.779321   108A      2.796565
     109A      2.846664   110A      2.853562   111A      2.855051
     112A      2.865240   113A      2.939533   114A      2.944956
     115A      2.965989   116A      2.975272

    Final Occupation by Irrep:
              A
    DOCC [    18 ]

  @RHF Final Energy:  -158.46659405544173

   => Energetics <=

    Nuclear Repulsion Energy =            122.1394315670438289
    One-Electron Energy =                -453.3893898967577343
    Two-Electron Energy =                 172.7833642742721452
    Total Energy =                       -158.4665940554417318

Computation Completed

Properties will be evaluated at   0.000000,   0.000000,   0.000000 [a0]

Properties computed using the SCF density matrix

  Nuclear Dipole Moment: [e a0]
     X:    -0.0040      Y:    -0.0217      Z:     0.1035

  Electronic Dipole Moment: [e a0]
     X:     0.0017      Y:     0.0215      Z:    -0.0867

  Dipole Moment: [e a0]
     X:    -0.0023      Y:    -0.0002      Z:     0.0168     Total:     0.0169

  Dipole Moment: [D]
     X:    -0.0058      Y:    -0.0005      Z:     0.0426     Total:     0.0430

*** tstop() called on ds3 at Mon Apr 27 12:39:41 2020
Module time:
	user time   =       7.90 seconds =       0.13 minutes
	system time =       3.31 seconds =       0.06 minutes
	total time  =         12 seconds =       0.20 minutes
Total time:
	user time   =       7.90 seconds =       0.13 minutes
	system time =       3.31 seconds =       0.06 minutes
	total time  =         12 seconds =       0.20 minutes
                                     G D M A

                                 by Anthony Stone

                           version 2.2.06, 22 June 2011

               Distributed Multipoles from Gaussian wavefunctions

Starting at 12:39:41 on 27 Apr 2020

Using SCF density matrix from file ./SSI/SSI-142ILE-155LEU-2-dimer.test.3641.fchk

                         Distributed Multipole Analysis

Standard DMA

Positions and radii in angstrom
Multipole moments in atomic units, ea_0^k for rank k

C          x = -1.659911  y = -0.000513  z = -0.192068 angstrom
           Maximum rank =  0   Radius =  0.650 angstrom
                   Q00  =  -0.237608

C          x = -2.812911  y =  1.005487  z = -0.207068 angstrom
           Maximum rank =  0   Radius =  0.650 angstrom
                   Q00  =  -0.237782

H          x = -0.870911  y =  0.317487  z = -0.878068 angstrom
           Maximum rank =  0   Radius =  0.325 angstrom
                   Q00  =   0.081132

H          x = -1.235911  y = -0.074513  z =  0.808932 angstrom
           Maximum rank =  0   Radius =  0.325 angstrom
                   Q00  =   0.077507

H          x = -2.002911  y = -0.999513  z = -0.467068 angstrom
           Maximum rank =  0   Radius =  0.325 angstrom
                   Q00  =   0.078557

H          x = -3.643911  y =  0.586487  z =  0.359932 angstrom
           Maximum rank =  0   Radius =  0.325 angstrom
                   Q00  =   0.078630

H          x = -3.149271  y =  1.196467  z = -1.236818 angstrom
           Maximum rank =  0   Radius =  0.325 angstrom
                   Q00  =   0.080057

H          x = -2.490391  y =  1.944387  z =  0.266682 angstrom
           Maximum rank =  0   Radius =  0.325 angstrom
                   Q00  =   0.079417

C          x =  2.094089  y =  0.239487  z =  0.085932 angstrom
           Maximum rank =  0   Radius =  0.650 angstrom
                   Q00  =  -0.245577

C          x =  2.379089  y = -1.242513  z =  0.303932 angstrom
           Maximum rank =  0   Radius =  0.650 angstrom
                   Q00  =  -0.225720

H          x =  1.681089  y =  0.398487  z = -0.911068 angstrom
           Maximum rank =  0   Radius =  0.325 angstrom
                   Q00  =   0.078516

H          x =  1.375089  y =  0.587487  z =  0.828932 angstrom
           Maximum rank =  0   Radius =  0.325 angstrom
                   Q00  =   0.078809

H          x =  3.003089  y =  0.829487  z =  0.200932 angstrom
           Maximum rank =  0   Radius =  0.325 angstrom
                   Q00  =   0.078156

H          x =  2.836089  y = -1.358513  z =  1.283932 angstrom
           Maximum rank =  0   Radius =  0.325 angstrom
                   Q00  =   0.076692

H          x =  3.052779  y = -1.634544  z = -0.472248 angstrom
           Maximum rank =  0   Radius =  0.325 angstrom
                   Q00  =   0.080050

H          x =  1.440919  y = -1.816398  z =  0.326342 angstrom
           Maximum rank =  0   Radius =  0.325 angstrom
                   Q00  =   0.079162

Total multipoles referred to origin at
           x =   0.000000,  y =    0.000000,  z =    0.000000 angstrom
                   Q00  =  -0.000000

Finished at 12:39:41 on 27 Apr 2020

  DMA results are available in the Python driver through the
	  variable('DMA DISTRIBUTED MULTIPOLES')
  and
	  variable('DMA TOTAL MULTIPOLES')
  commands.

    Psi4 stopped on: Monday, 27 April 2020 12:39PM
    Psi4 wall time for execution: 0:00:11.50

*** Psi4 exiting successfully. Buy a developer a beer!
