                               Psi4 1.3.2 release

  ==> Input File <==

--------------------------------------------------------------------------
import numpy as np
set {scf_type pk
basis cc-pvdz
d_convergence 10
gdma_switch   0
gdma_limit    0
gdma_origin   [ 0.0,  0.0,  0.0 ]
}
molecule test {
    units Angstrom
    -1 1
    --
    -1 1
    C               -1.806516409159936    -0.778093135989993     0.587365850580818
    C               -2.900516409159936     0.273906864010006     0.325365850580818
    C               -2.209516409159936    -2.150093135989994     0.074365850580818
    H               -0.917516409159936    -0.502093135989994     0.106365850580818
    H               -1.601516409159936    -0.825093135989994     1.658365850580818
    H               -3.687516409159936     0.170906864010006     1.073365850580818
    H               -3.338516409159936     0.116906864010006    -0.659634149419182
    H               -2.250516409159936    -2.160093135989993    -1.014634149419182
    H               -1.427516409159936    -2.860093135989993     0.365365850580818
    H               -2.510476409159936     1.301722864010007     0.363646850580818
    H               -3.171306409159936    -2.461283135989993     0.508098850580818
    C                2.160483590840064     2.007906864010007    -0.460634149419182
    C                1.698483590840064     0.576906864010006    -0.224634149419182
    O                0.808483590840064     0.127906864010006    -0.988634149419182
    O                2.246483590840064    -0.065093135989994     0.709365850580818
    H                2.066483590840064     2.236906864010006    -1.523634149419182
    H                3.211483590840064     2.117906864010007    -0.181634149419182
    H                1.548473590840064     2.694521864010006     0.142688850580818

}
e, wfn = energy('scf', return_wfn=True)
gdma(wfn)
dmavals = variable('DMA DISTRIBUTED MULTIPOLES')
charges = np.array(dmavals)
print(charges)
np.save('SSI-045LYS-048GLU-1-dimer.npy', np.array(charges))--------------------------------------------------------------------------

*** tstart() called on ds3
*** at Sun Apr 26 17:23:34 2020

   => Loading Basis Set <=

    Name: CC-PVDZ
    Role: ORBITAL
    Keyword: BASIS
    atoms 1-3, 12-13  entry C          line   138 file /theoryfs2/ds/metcalf/miniconda2/envs/tf2gpu/share/psi4/basis/cc-pvdz.gbs
    atoms 4-11, 16-18 entry H          line    22 file /theoryfs2/ds/metcalf/miniconda2/envs/tf2gpu/share/psi4/basis/cc-pvdz.gbs
    atoms 14-15       entry O          line   198 file /theoryfs2/ds/metcalf/miniconda2/envs/tf2gpu/share/psi4/basis/cc-pvdz.gbs

         ---------------------------------------------------------
                                   SCF
               by Justin Turney, Rob Parrish, Andy Simmonett
                          and Daniel G. A. Smith
                              RHF Reference
                        1 Threads,    500 MiB Core
         ---------------------------------------------------------

  ==> Geometry <==

    Molecular point group: c1
    Full point group: C1

    Geometry (in Angstrom), charge = -1, multiplicity = 1:

       Center              X                  Y                   Z               Mass
    ------------   -----------------  -----------------  -----------------  -----------------
         C           -1.806516409160    -0.778093135990     0.587365850581    12.000000000000
         C           -2.900516409160     0.273906864010     0.325365850581    12.000000000000
         C           -2.209516409160    -2.150093135990     0.074365850581    12.000000000000
         H           -0.917516409160    -0.502093135990     0.106365850581     1.007825032230
         H           -1.601516409160    -0.825093135990     1.658365850581     1.007825032230
         H           -3.687516409160     0.170906864010     1.073365850581     1.007825032230
         H           -3.338516409160     0.116906864010    -0.659634149419     1.007825032230
         H           -2.250516409160    -2.160093135990    -1.014634149419     1.007825032230
         H           -1.427516409160    -2.860093135990     0.365365850581     1.007825032230
         H           -2.510476409160     1.301722864010     0.363646850581     1.007825032230
         H           -3.171306409160    -2.461283135990     0.508098850581     1.007825032230
         C            2.160483590840     2.007906864010    -0.460634149419    12.000000000000
         C            1.698483590840     0.576906864010    -0.224634149419    12.000000000000
         O            0.808483590840     0.127906864010    -0.988634149419    15.994914619570
         O            2.246483590840    -0.065093135990     0.709365850581    15.994914619570
         H            2.066483590840     2.236906864010    -1.523634149419     1.007825032230
         H            3.211483590840     2.117906864010    -0.181634149419     1.007825032230
         H            1.548473590840     2.694521864010     0.142688850581     1.007825032230

  Running in c1 symmetry.

  Rotational constants: A =      0.13719  B =      0.03025  C =      0.02762 [cm^-1]
  Rotational constants: A =   4112.93113  B =    906.90978  C =    827.96247 [MHz]
  Nuclear repulsion =  289.510948510686717

  Charge       = -1
  Multiplicity = 1
  Electrons    = 58
  Nalpha       = 29
  Nbeta        = 29

  ==> Algorithm <==

  SCF Algorithm Type is PK.
  DIIS enabled.
  MOM disabled.
  Fractional occupation disabled.
  Guess Type is SAD.
  Energy threshold   = 1.00e-06
  Density threshold  = 1.00e-10
  Integral threshold = 0.00e+00

  ==> Primary Basis <==

  Basis Set: CC-PVDZ
    Blend: CC-PVDZ
    Number of shells: 75
    Number of basis function: 153
    Number of Cartesian functions: 160
    Spherical Harmonics?: true
    Max angular momentum: 2

  ==> Pre-Iterations <==

   -------------------------------------------------------
    Irrep   Nso     Nmo     Nalpha   Nbeta   Ndocc  Nsocc
   -------------------------------------------------------
     A        153     153       0       0       0       0
   -------------------------------------------------------
    Total     153     153      29      29      29       0
   -------------------------------------------------------

  ==> Integral Setup <==

  Using integral reordering PK algorithm.
  Sizing the integral batches needed.
  Building batch lookup table.
   Calculation information:
      Number of atoms:                  18
      Number of AO shells:              75
      Number of primitives:            209
      Number of atomic orbitals:       160
      Number of basis functions:       153

      Integral cutoff                 1.00e-12
      Number of threads:                 1

	Batch   1 pq = [       0,    9405] index = [             0,44231715] size =     44231715
	Batch   2 pq = [    9405,   11781] index = [      44231715,69401871] size =     25170156
  Task number: 7
  Buffer size: 11059200
  Buffer per thread: 2
  We computed 3330857 shell quartets total.
  Whereas there are 4062675 unique shell quartets.

  ==> DiskJK: Disk-Based J/K Matrices <==

    J tasked:                  Yes
    K tasked:                  Yes
    wK tasked:                  No
    Memory [MiB]:              375
    Schwarz Cutoff:          1E-12

    OpenMP threads:              1

  Minimum eigenvalue in the overlap matrix is 5.3845630879E-03.
  Using Symmetric Orthogonalization.

  SCF Guess: Superposition of Atomic Densities via on-the-fly atomic UHF.

  ==> Iterations <==

                        Total Energy        Delta E     RMS |[F,P]|

   @RHF iter SAD:  -343.86514601238628   -3.43865e+02   0.00000e+00
   @RHF iter   1:  -345.21616192863428   -1.35102e+00   4.95523e-03 DIIS
   @RHF iter   2:  -345.44432816247166   -2.28166e-01   2.74780e-03 DIIS
   @RHF iter   3:  -345.51114098818505   -6.68128e-02   4.30866e-04 DIIS
   @RHF iter   4:  -345.51413585480054   -2.99487e-03   1.61448e-04 DIIS
   @RHF iter   5:  -345.51455720391789   -4.21349e-04   2.45096e-05 DIIS
   @RHF iter   6:  -345.51456950759604   -1.23037e-05   6.47086e-06 DIIS
   @RHF iter   7:  -345.51457036428030   -8.56684e-07   1.85147e-06 DIIS
   @RHF iter   8:  -345.51457045231825   -8.80380e-08   8.71478e-07 DIIS
   @RHF iter   9:  -345.51457046806655   -1.57483e-08   3.38056e-07 DIIS
   @RHF iter  10:  -345.51457047275483   -4.68827e-09   1.63849e-07 DIIS
   @RHF iter  11:  -345.51457047371082   -9.55993e-10   3.41353e-08 DIIS
   @RHF iter  12:  -345.51457047375681   -4.59863e-11   7.92210e-09 DIIS
   @RHF iter  13:  -345.51457047375891   -2.10321e-12   2.27572e-09 DIIS
   @RHF iter  14:  -345.51457047375936   -4.54747e-13   6.24591e-10 DIIS
   @RHF iter  15:  -345.51457047375953   -1.70530e-13   2.13235e-10 DIIS
   @RHF iter  16:  -345.51457047375845    1.08002e-12   9.80054e-11 DIIS
  Energy and wave function converged.

  ==> Post-Iterations <==

    Orbital Energies [Eh]
    ---------------------

    Doubly Occupied:

       1A    -20.267600     2A    -20.262776     3A    -11.121472
       4A    -11.093666     5A    -11.091091     6A    -11.066152
       7A    -11.051008     8A     -1.148678     9A     -1.040617
      10A     -0.920673    11A     -0.798548    12A     -0.796569
      13A     -0.666300    14A     -0.505548    15A     -0.492672
      16A     -0.466722    17A     -0.419979    18A     -0.415699
      19A     -0.412219    20A     -0.408659    21A     -0.403841
      22A     -0.348412    23A     -0.343063    24A     -0.335840
      25A     -0.331808    26A     -0.301370    27A     -0.184123
      28A     -0.178506    29A     -0.166009

    Virtual:

      30A      0.302249    31A      0.340305    32A      0.353186
      33A      0.354489    34A      0.374113    35A      0.385790
      36A      0.395320    37A      0.408902    38A      0.415511
      39A      0.417840    40A      0.477487    41A      0.487203
      42A      0.546404    43A      0.560627    44A      0.572379
      45A      0.689972    46A      0.710818    47A      0.726506
      48A      0.737413    49A      0.745330    50A      0.757413
      51A      0.798115    52A      0.830349    53A      0.853837
      54A      0.914939    55A      0.930472    56A      0.954938
      57A      0.983038    58A      0.987399    59A      1.006531
      60A      1.011566    61A      1.016983    62A      1.025629
      63A      1.027933    64A      1.033392    65A      1.036226
      66A      1.046779    67A      1.056353    68A      1.071282
      69A      1.079026    70A      1.090398    71A      1.133456
      72A      1.192827    73A      1.224004    74A      1.250130
      75A      1.258911    76A      1.324331    77A      1.338735
      78A      1.364681    79A      1.473699    80A      1.499647
      81A      1.558384    82A      1.565204    83A      1.577317
      84A      1.594898    85A      1.608626    86A      1.616563
      87A      1.658550    88A      1.669628    89A      1.740610
      90A      1.760173    91A      1.798426    92A      1.804667
      93A      1.809627    94A      1.836008    95A      1.837835
      96A      1.866600    97A      1.982825    98A      1.997896
      99A      2.001204   100A      2.030691   101A      2.048087
     102A      2.052865   103A      2.059100   104A      2.091357
     105A      2.098784   106A      2.112099   107A      2.120581
     108A      2.131720   109A      2.142477   110A      2.147515
     111A      2.182875   112A      2.194639   113A      2.212033
     114A      2.256500   115A      2.274256   116A      2.309832
     117A      2.390612   118A      2.408002   119A      2.418306
     120A      2.430244   121A      2.442191   122A      2.450743
     123A      2.474489   124A      2.544361   125A      2.625089
     126A      2.682829   127A      2.688010   128A      2.695233
     129A      2.709661   130A      2.737218   131A      2.758816
     132A      2.788672   133A      2.885161   134A      2.897068
     135A      2.913261   136A      2.916372   137A      2.958913
     138A      2.967283   139A      2.976015   140A      3.052931
     141A      3.093029   142A      3.123864   143A      3.238299
     144A      3.265502   145A      3.282371   146A      3.304741
     147A      3.354781   148A      3.612477   149A      3.789509
     150A      3.833702   151A      4.047833   152A      4.080976
     153A      4.182228

    Final Occupation by Irrep:
              A
    DOCC [    29 ]

  @RHF Final Energy:  -345.51457047375845

   => Energetics <=

    Nuclear Repulsion Energy =            289.5109485106867169
    One-Electron Energy =               -1055.9717979580768770
    Two-Electron Energy =                 420.9462789736317063
    Total Energy =                       -345.5145704737584538

Computation Completed

Properties will be evaluated at   0.000000,   0.000000,   0.000000 [a0]

Properties computed using the SCF density matrix

  Nuclear Dipole Moment: [e a0]
     X:   -11.3085      Y:    -0.1589      Z:     0.7846

  Electronic Dipole Moment: [e a0]
     X:     9.1931      Y:     0.4727      Z:    -0.6850

  Dipole Moment: [e a0]
     X:    -2.1154      Y:     0.3139      Z:     0.0996     Total:     2.1409

  Dipole Moment: [D]
     X:    -5.3769      Y:     0.7978      Z:     0.2533     Total:     5.4416

*** tstop() called on ds3 at Sun Apr 26 17:24:19 2020
Module time:
	user time   =      32.25 seconds =       0.54 minutes
	system time =      14.05 seconds =       0.23 minutes
	total time  =         45 seconds =       0.75 minutes
Total time:
	user time   =      32.25 seconds =       0.54 minutes
	system time =      14.05 seconds =       0.23 minutes
	total time  =         45 seconds =       0.75 minutes
                                     G D M A

                                 by Anthony Stone

                           version 2.2.06, 22 June 2011

               Distributed Multipoles from Gaussian wavefunctions

Starting at 17:24:19 on 26 Apr 2020

Using SCF density matrix from file ./SSI/SSI-045LYS-048GLU-1-dimer.test.18394.fchk

                         Distributed Multipole Analysis

Standard DMA

Positions and radii in angstrom
Multipole moments in atomic units, ea_0^k for rank k

C          x = -1.806516  y = -0.778093  z =  0.587366 angstrom
           Maximum rank =  0   Radius =  0.650 angstrom
                   Q00  =  -0.016983

C          x = -2.900516  y =  0.273907  z =  0.325366 angstrom
           Maximum rank =  0   Radius =  0.650 angstrom
                   Q00  =  -0.253922

C          x = -2.209516  y = -2.150093  z =  0.074366 angstrom
           Maximum rank =  0   Radius =  0.650 angstrom
                   Q00  =  -0.249224

H          x = -0.917516  y = -0.502093  z =  0.106366 angstrom
           Maximum rank =  0   Radius =  0.325 angstrom
                   Q00  =   0.118272

H          x = -1.601516  y = -0.825093  z =  1.658366 angstrom
           Maximum rank =  0   Radius =  0.325 angstrom
                   Q00  =   0.015297

H          x = -3.687516  y =  0.170907  z =  1.073366 angstrom
           Maximum rank =  0   Radius =  0.325 angstrom
                   Q00  =   0.037197

H          x = -3.338516  y =  0.116907  z = -0.659634 angstrom
           Maximum rank =  0   Radius =  0.325 angstrom
                   Q00  =   0.059631

H          x = -2.250516  y = -2.160093  z = -1.014634 angstrom
           Maximum rank =  0   Radius =  0.325 angstrom
                   Q00  =   0.076124

H          x = -1.427516  y = -2.860093  z =  0.365366 angstrom
           Maximum rank =  0   Radius =  0.325 angstrom
                   Q00  =   0.081231

H          x = -2.510476  y =  1.301723  z =  0.363647 angstrom
           Maximum rank =  0   Radius =  0.325 angstrom
                   Q00  =   0.081088

H          x = -3.171306  y = -2.461283  z =  0.508099 angstrom
           Maximum rank =  0   Radius =  0.325 angstrom
                   Q00  =   0.027587

C          x =  2.160484  y =  2.007907  z = -0.460634 angstrom
           Maximum rank =  0   Radius =  0.650 angstrom
                   Q00  =  -0.275860

C          x =  1.698484  y =  0.576907  z = -0.224634 angstrom
           Maximum rank =  0   Radius =  0.650 angstrom
                   Q00  =   0.957298

O          x =  0.808484  y =  0.127907  z = -0.988634 angstrom
           Maximum rank =  0   Radius =  0.650 angstrom
                   Q00  =  -0.917014

O          x =  2.246484  y = -0.065093  z =  0.709366 angstrom
           Maximum rank =  0   Radius =  0.650 angstrom
                   Q00  =  -0.922881

H          x =  2.066484  y =  2.236907  z = -1.523634 angstrom
           Maximum rank =  0   Radius =  0.325 angstrom
                   Q00  =   0.053099

H          x =  3.211484  y =  2.117907  z = -0.181634 angstrom
           Maximum rank =  0   Radius =  0.325 angstrom
                   Q00  =   0.053178

H          x =  1.548474  y =  2.694522  z =  0.142689 angstrom
           Maximum rank =  0   Radius =  0.325 angstrom
                   Q00  =   0.075882

Total multipoles referred to origin at
           x =   0.000000,  y =    0.000000,  z =    0.000000 angstrom
                   Q00  =  -1.000000

Finished at 17:24:19 on 26 Apr 2020

  DMA results are available in the Python driver through the
	  variable('DMA DISTRIBUTED MULTIPOLES')
  and
	  variable('DMA TOTAL MULTIPOLES')
  commands.

    Psi4 stopped on: Sunday, 26 April 2020 05:24PM
    Psi4 wall time for execution: 0:00:45.16

*** Psi4 exiting successfully. Buy a developer a beer!
