                               Psi4 1.3.2 release

  ==> Input File <==

--------------------------------------------------------------------------
import numpy as np
set {scf_type pk
basis cc-pvdz
d_convergence 10
gdma_switch   0
gdma_limit    0
gdma_origin   [ 0.0,  0.0,  0.0 ]
}
molecule test {
    units Angstrom
    0 1
    --
    0 1
    C                0.046781921827107    -0.111582372470182     2.466309712922663
    C                0.673781921827107     1.164417627529818     1.938309712922663
    O                0.865781921827107     1.321417627529818     0.735309712922663
    N                0.999781921827107     2.084417627529818     2.830309712922663
    H                0.802781921827107    -0.667582372470182     3.022309712922663
    H               -0.278218078172893    -0.714582372470182     1.638309712922663
    H                1.436781921827107     2.931417627529818     2.496309712922663
    H                0.934781921827107     1.904417627529818     3.820309712922664
    H               -0.815568078172893     0.083327627529818     3.120799712922663
    C               -0.899218078172893    -2.084582372470182    -0.950690287077337
    C               -0.663218078172893    -1.119582372470182    -2.083690287077337
    O               -0.923218078172893    -1.435582372470182    -3.241690287077336
    N               -0.167218078172893     0.067417627529818    -1.768690287077337
    H                0.008781921827107     0.722417627529818    -2.514690287077336
    H                0.058781921827107     0.314417627529818    -0.811690287077337
    H               -0.404218078172893    -1.732582372470182    -0.062690287077337
    H               -0.410218078172893    -3.022582372470182    -1.218690287077337
    H               -1.966038078172893    -2.289632372470181    -0.777910287077337

}
e, wfn = energy('scf', return_wfn=True)
gdma(wfn)
dmavals = variable('DMA DISTRIBUTED MULTIPOLES')
charges = np.array(dmavals)
print(charges)
np.save('SSI-017ASN-029ASN-2-dimer.npy', np.array(charges))--------------------------------------------------------------------------

*** tstart() called on ds3
*** at Sun Apr 26 23:20:59 2020

   => Loading Basis Set <=

    Name: CC-PVDZ
    Role: ORBITAL
    Keyword: BASIS
    atoms 1-2, 10-11 entry C          line   138 file /theoryfs2/ds/metcalf/miniconda2/envs/tf2gpu/share/psi4/basis/cc-pvdz.gbs
    atoms 3, 12      entry O          line   198 file /theoryfs2/ds/metcalf/miniconda2/envs/tf2gpu/share/psi4/basis/cc-pvdz.gbs
    atoms 4, 13      entry N          line   168 file /theoryfs2/ds/metcalf/miniconda2/envs/tf2gpu/share/psi4/basis/cc-pvdz.gbs
    atoms 5-9, 14-18 entry H          line    22 file /theoryfs2/ds/metcalf/miniconda2/envs/tf2gpu/share/psi4/basis/cc-pvdz.gbs

         ---------------------------------------------------------
                                   SCF
               by Justin Turney, Rob Parrish, Andy Simmonett
                          and Daniel G. A. Smith
                              RHF Reference
                        1 Threads,    500 MiB Core
         ---------------------------------------------------------

  ==> Geometry <==

    Molecular point group: c1
    Full point group: C1

    Geometry (in Angstrom), charge = 0, multiplicity = 1:

       Center              X                  Y                   Z               Mass
    ------------   -----------------  -----------------  -----------------  -----------------
         C            0.046781921827    -0.111582372470     2.466309712923    12.000000000000
         C            0.673781921827     1.164417627530     1.938309712923    12.000000000000
         O            0.865781921827     1.321417627530     0.735309712923    15.994914619570
         N            0.999781921827     2.084417627530     2.830309712923    14.003074004430
         H            0.802781921827    -0.667582372470     3.022309712923     1.007825032230
         H           -0.278218078173    -0.714582372470     1.638309712923     1.007825032230
         H            1.436781921827     2.931417627530     2.496309712923     1.007825032230
         H            0.934781921827     1.904417627530     3.820309712923     1.007825032230
         H           -0.815568078173     0.083327627530     3.120799712923     1.007825032230
         C           -0.899218078173    -2.084582372470    -0.950690287077    12.000000000000
         C           -0.663218078173    -1.119582372470    -2.083690287077    12.000000000000
         O           -0.923218078173    -1.435582372470    -3.241690287077    15.994914619570
         N           -0.167218078173     0.067417627530    -1.768690287077    14.003074004430
         H            0.008781921827     0.722417627530    -2.514690287077     1.007825032230
         H            0.058781921827     0.314417627530    -0.811690287077     1.007825032230
         H           -0.404218078173    -1.732582372470    -0.062690287077     1.007825032230
         H           -0.410218078173    -3.022582372470    -1.218690287077     1.007825032230
         H           -1.966038078173    -2.289632372470    -0.777910287077     1.007825032230

  Running in c1 symmetry.

  Rotational constants: A =      0.15750  B =      0.02192  C =      0.01944 [cm^-1]
  Rotational constants: A =   4721.67296  B =    657.27001  C =    582.87903 [MHz]
  Nuclear repulsion =  360.614240186267466

  Charge       = 0
  Multiplicity = 1
  Electrons    = 64
  Nalpha       = 32
  Nbeta        = 32

  ==> Algorithm <==

  SCF Algorithm Type is PK.
  DIIS enabled.
  MOM disabled.
  Fractional occupation disabled.
  Guess Type is SAD.
  Energy threshold   = 1.00e-06
  Density threshold  = 1.00e-10
  Integral threshold = 0.00e+00

  ==> Primary Basis <==

  Basis Set: CC-PVDZ
    Blend: CC-PVDZ
    Number of shells: 78
    Number of basis function: 162
    Number of Cartesian functions: 170
    Spherical Harmonics?: true
    Max angular momentum: 2

  ==> Pre-Iterations <==

   -------------------------------------------------------
    Irrep   Nso     Nmo     Nalpha   Nbeta   Ndocc  Nsocc
   -------------------------------------------------------
     A        162     162       0       0       0       0
   -------------------------------------------------------
    Total     162     162      32      32      32       0
   -------------------------------------------------------

  ==> Integral Setup <==

  Using integral reordering PK algorithm.
  Sizing the integral batches needed.
  Building batch lookup table.
   Calculation information:
      Number of atoms:                  18
      Number of AO shells:              78
      Number of primitives:            226
      Number of atomic orbitals:       170
      Number of basis functions:       162

      Integral cutoff                 1.00e-12
      Number of threads:                 1

	Batch   1 pq = [       0,    9405] index = [             0,44231715] size =     44231715
	Batch   2 pq = [    9405,   13203] index = [      44231715,87166206] size =     42934491
  Task number: 8
  Buffer size: 11059200
  Buffer per thread: 2
  We computed 3797352 shell quartets total.
  Whereas there are 4747821 unique shell quartets.

  ==> DiskJK: Disk-Based J/K Matrices <==

    J tasked:                  Yes
    K tasked:                  Yes
    wK tasked:                  No
    Memory [MiB]:              375
    Schwarz Cutoff:          1E-12

    OpenMP threads:              1

  Minimum eigenvalue in the overlap matrix is 4.0803905070E-03.
  Using Symmetric Orthogonalization.

  SCF Guess: Superposition of Atomic Densities via on-the-fly atomic UHF.

  ==> Iterations <==

                        Total Energy        Delta E     RMS |[F,P]|

   @RHF iter SAD:  -414.61963107079544   -4.14620e+02   0.00000e+00
   @RHF iter   1:  -415.71172854772095   -1.09210e+00   4.62820e-03 DIIS
   @RHF iter   2:  -415.92252664691972   -2.10798e-01   2.68111e-03 DIIS
   @RHF iter   3:  -415.98965346139664   -6.71268e-02   5.09271e-04 DIIS
   @RHF iter   4:  -415.99377871322986   -4.12525e-03   1.94265e-04 DIIS
   @RHF iter   5:  -415.99447302402939   -6.94311e-04   3.61031e-05 DIIS
   @RHF iter   6:  -415.99452070957682   -4.76855e-05   1.83114e-05 DIIS
   @RHF iter   7:  -415.99452968752485   -8.97795e-06   6.80049e-06 DIIS
   @RHF iter   8:  -415.99453156172927   -1.87420e-06   2.03556e-06 DIIS
   @RHF iter   9:  -415.99453173463996   -1.72911e-07   4.46609e-07 DIIS
   @RHF iter  10:  -415.99453174114944   -6.50948e-09   1.93329e-07 DIIS
   @RHF iter  11:  -415.99453174172800   -5.78552e-10   4.91834e-08 DIIS
   @RHF iter  12:  -415.99453174178547   -5.74687e-11   1.43629e-08 DIIS
   @RHF iter  13:  -415.99453174179132   -5.85487e-12   4.71428e-09 DIIS
   @RHF iter  14:  -415.99453174179246   -1.13687e-12   1.62462e-09 DIIS
   @RHF iter  15:  -415.99453174179308   -6.25278e-13   5.88389e-10 DIIS
   @RHF iter  16:  -415.99453174179155    1.53477e-12   2.27220e-10 DIIS
   @RHF iter  17:  -415.99453174179195   -3.97904e-13   9.16492e-11 DIIS
  Energy and wave function converged.

  ==> Post-Iterations <==

    Orbital Energies [Eh]
    ---------------------

    Doubly Occupied:

       1A    -20.535064     2A    -20.475852     3A    -15.610729
       4A    -15.552316     5A    -11.374818     6A    -11.321781
       7A    -11.260428     8A    -11.225063     9A     -1.399034
      10A     -1.342093    11A     -1.241963    12A     -1.184696
      13A     -1.022848    14A     -0.985238    15A     -0.825891
      16A     -0.771198    17A     -0.750258    18A     -0.698710
      19A     -0.680195    20A     -0.636614    21A     -0.635680
      22A     -0.597597    23A     -0.593615    24A     -0.584855
      25A     -0.546664    26A     -0.543804    27A     -0.538629
      28A     -0.498356    29A     -0.440797    30A     -0.432422
      31A     -0.385848    32A     -0.373255

    Virtual:

      33A      0.147570    34A      0.177086    35A      0.192918
      36A      0.205429    37A      0.219025    38A      0.223774
      39A      0.242583    40A      0.256493    41A      0.263542
      42A      0.300190    43A      0.319948    44A      0.377074
      45A      0.381775    46A      0.405535    47A      0.483913
      48A      0.489555    49A      0.535457    50A      0.592431
      51A      0.608045    52A      0.647089    53A      0.670508
      54A      0.691134    55A      0.696840    56A      0.714667
      57A      0.720082    58A      0.724749    59A      0.734936
      60A      0.744190    61A      0.763949    62A      0.784109
      63A      0.827907    64A      0.849646    65A      0.867030
      66A      0.885391    67A      0.890946    68A      0.901351
      69A      0.911416    70A      0.942196    71A      0.959369
      72A      0.981329    73A      0.990412    74A      1.028279
      75A      1.038227    76A      1.073612    77A      1.082699
      78A      1.101766    79A      1.115445    80A      1.147396
      81A      1.155912    82A      1.194591    83A      1.304978
      84A      1.320346    85A      1.352799    86A      1.382890
      87A      1.383787    88A      1.399879    89A      1.404893
      90A      1.410076    91A      1.434732    92A      1.476782
      93A      1.484282    94A      1.489398    95A      1.507747
      96A      1.602750    97A      1.624791    98A      1.650550
      99A      1.653040   100A      1.685157   101A      1.712254
     102A      1.749068   103A      1.776503   104A      1.834393
     105A      1.852223   106A      1.869553   107A      1.882900
     108A      1.900699   109A      1.911605   110A      1.917523
     111A      1.928898   112A      1.938387   113A      1.955518
     114A      1.968661   115A      1.992160   116A      2.008330
     117A      2.033178   118A      2.086692   119A      2.098318
     120A      2.122855   121A      2.138121   122A      2.184212
     123A      2.216733   124A      2.251093   125A      2.266980
     126A      2.343636   127A      2.367647   128A      2.431198
     129A      2.442133   130A      2.475436   131A      2.478141
     132A      2.502613   133A      2.522755   134A      2.578184
     135A      2.589907   136A      2.596684   137A      2.621782
     138A      2.671376   139A      2.699965   140A      2.753977
     141A      2.763788   142A      2.776400   143A      2.826428
     144A      2.839650   145A      2.859230   146A      2.898902
     147A      2.993372   148A      3.014227   149A      3.069512
     150A      3.109438   151A      3.124318   152A      3.158611
     153A      3.258623   154A      3.348313   155A      3.482919
     156A      3.510081   157A      3.545649   158A      3.556733
     159A      3.853684   160A      3.887843   161A      3.907410
     162A      3.934087

    Final Occupation by Irrep:
              A
    DOCC [    32 ]

  @RHF Final Energy:  -415.99453174179195

   => Energetics <=

    Nuclear Repulsion Energy =            360.6142401862674660
    One-Electron Energy =               -1283.0849245299689301
    Two-Electron Energy =                 506.4761526019095186
    Total Energy =                       -415.9945317417919455

Computation Completed

Properties will be evaluated at   0.000000,   0.000000,   0.000000 [a0]

Properties computed using the SCF density matrix

  Nuclear Dipole Moment: [e a0]
     X:    -0.5955      Y:    -2.3233      Z:     8.1525

  Electronic Dipole Moment: [e a0]
     X:     1.1405      Y:     3.2944      Z:    -4.6103

  Dipole Moment: [e a0]
     X:     0.5450      Y:     0.9712      Z:     3.5421     Total:     3.7131

  Dipole Moment: [D]
     X:     1.3851      Y:     2.4685      Z:     9.0032     Total:     9.4377

*** tstop() called on ds3 at Sun Apr 26 23:21:40 2020
Module time:
	user time   =      27.77 seconds =       0.46 minutes
	system time =      13.28 seconds =       0.22 minutes
	total time  =         41 seconds =       0.68 minutes
Total time:
	user time   =      27.77 seconds =       0.46 minutes
	system time =      13.28 seconds =       0.22 minutes
	total time  =         41 seconds =       0.68 minutes
                                     G D M A

                                 by Anthony Stone

                           version 2.2.06, 22 June 2011

               Distributed Multipoles from Gaussian wavefunctions

Starting at 23:21:40 on 26 Apr 2020

Using SCF density matrix from file ./SSI/SSI-017ASN-029ASN-2-dimer.test.29395.fchk

                         Distributed Multipole Analysis

Standard DMA

Positions and radii in angstrom
Multipole moments in atomic units, ea_0^k for rank k

C          x =  0.046782  y = -0.111582  z =  2.466310 angstrom
           Maximum rank =  0   Radius =  0.650 angstrom
                   Q00  =  -0.273271

C          x =  0.673782  y =  1.164418  z =  1.938310 angstrom
           Maximum rank =  0   Radius =  0.650 angstrom
                   Q00  =   0.820822

O          x =  0.865782  y =  1.321418  z =  0.735310 angstrom
           Maximum rank =  0   Radius =  0.650 angstrom
                   Q00  =  -0.788335

N          x =  0.999782  y =  2.084418  z =  2.830310 angstrom
           Maximum rank =  0   Radius =  0.650 angstrom
                   Q00  =  -0.540854

H          x =  0.802782  y = -0.667582  z =  3.022310 angstrom
           Maximum rank =  0   Radius =  0.325 angstrom
                   Q00  =   0.121315

H          x = -0.278218  y = -0.714582  z =  1.638310 angstrom
           Maximum rank =  0   Radius =  0.325 angstrom
                   Q00  =   0.131801

H          x =  1.436782  y =  2.931418  z =  2.496310 angstrom
           Maximum rank =  0   Radius =  0.325 angstrom
                   Q00  =   0.225532

H          x =  0.934782  y =  1.904418  z =  3.820310 angstrom
           Maximum rank =  0   Radius =  0.325 angstrom
                   Q00  =   0.214136

H          x = -0.815568  y =  0.083328  z =  3.120800 angstrom
           Maximum rank =  0   Radius =  0.325 angstrom
                   Q00  =   0.110808

C          x = -0.899218  y = -2.084582  z = -0.950690 angstrom
           Maximum rank =  0   Radius =  0.650 angstrom
                   Q00  =  -0.258054

C          x = -0.663218  y = -1.119582  z = -2.083690 angstrom
           Maximum rank =  0   Radius =  0.650 angstrom
                   Q00  =   0.838804

O          x = -0.923218  y = -1.435582  z = -3.241690 angstrom
           Maximum rank =  0   Radius =  0.650 angstrom
                   Q00  =  -0.819784

N          x = -0.167218  y =  0.067418  z = -1.768690 angstrom
           Maximum rank =  0   Radius =  0.650 angstrom
                   Q00  =  -0.551060

H          x =  0.008782  y =  0.722418  z = -2.514690 angstrom
           Maximum rank =  0   Radius =  0.325 angstrom
                   Q00  =   0.209727

H          x =  0.058782  y =  0.314418  z = -0.811690 angstrom
           Maximum rank =  0   Radius =  0.325 angstrom
                   Q00  =   0.245458

H          x = -0.404218  y = -1.732582  z = -0.062690 angstrom
           Maximum rank =  0   Radius =  0.325 angstrom
                   Q00  =   0.060500

H          x = -0.410218  y = -3.022582  z = -1.218690 angstrom
           Maximum rank =  0   Radius =  0.325 angstrom
                   Q00  =   0.124089

H          x = -1.966038  y = -2.289632  z = -0.777910 angstrom
           Maximum rank =  0   Radius =  0.325 angstrom
                   Q00  =   0.128367

Total multipoles referred to origin at
           x =   0.000000,  y =    0.000000,  z =    0.000000 angstrom
                   Q00  =  -0.000000

Finished at 23:21:40 on 26 Apr 2020

  DMA results are available in the Python driver through the
	  variable('DMA DISTRIBUTED MULTIPOLES')
  and
	  variable('DMA TOTAL MULTIPOLES')
  commands.

    Psi4 stopped on: Sunday, 26 April 2020 11:21PM
    Psi4 wall time for execution: 0:00:40.62

*** Psi4 exiting successfully. Buy a developer a beer!
