                               Psi4 1.3.2 release

  ==> Input File <==

--------------------------------------------------------------------------
import numpy as np
set {scf_type pk
basis cc-pvdz
d_convergence 10
gdma_switch   0
gdma_limit    0
gdma_origin   [ 0.0,  0.0,  0.0 ]
}
molecule test {
    units Angstrom
    0 1
    --
    0 1
    C                0.593048598747451     1.116861684886057    -2.443000214788318
    C                0.901048598747451     2.462861684886057    -3.086000214788318
    C                1.812048598747451     0.554861684886057    -1.707000214788318
    H               -0.227951401252549     1.247861684886057    -1.742000214788318
    H                0.289048598747451     0.404861684886057    -3.210000214788318
    H                1.841048598747451     2.363861684886056    -3.634000214788318
    H                1.040048598747451     3.220861684886056    -2.314000214788318
    H                1.547048598747451    -0.417138315113943    -1.288000214788318
    H                2.615048598747451     0.398861684886057    -2.432000214788317
    H                0.133918598747451     2.812541684886056    -3.792567214788317
    H                2.169768598747451     1.211161684886056    -0.899966214788318
    C               -1.203951401252549    -2.452138315113944    -1.146000214788318
    C               -1.454951401252550    -0.214138315113943     0.044999785211682
    C               -0.850951401252549    -1.475138315113944    -0.046000214788318
    C               -1.088951401252549     0.678861684886057     1.054999785211682
    C                0.129048598747451    -1.821138315113944     0.890999785211682
    C               -0.101951401252549     0.320861684886057     1.977999785211682
    C                0.511048598747451    -0.932138315113943     1.889999785211682
    O                0.269048598747451     1.210861684886056     2.947999785211682
    H               -2.195951401252549     0.095861684886057    -0.668000214788318
    H               -1.570951401252549     1.637861684886057     1.142999785211682
    H               -0.809951401252549    -3.443138315113943    -0.909000214788318
    H               -0.668951401252549    -2.105138315113944    -2.032000214788318
    H                0.608048598747451    -2.791138315113944     0.834999785211682
    H                1.271048598747451    -1.216138315113944     2.604999785211683
    H                0.946048598747451     0.856861684886057     3.529999785211682
    H               -2.273446401252549    -2.534578315113944    -1.389691214788318

}
e, wfn = energy('scf', return_wfn=True)
gdma(wfn)
dmavals = variable('DMA DISTRIBUTED MULTIPOLES')
charges = np.array(dmavals)
print(charges)
np.save('SSI-024LYS-069TYR-1-dimer.npy', np.array(charges))--------------------------------------------------------------------------

*** tstart() called on ds3
*** at Mon Apr 27 20:27:45 2020

   => Loading Basis Set <=

    Name: CC-PVDZ
    Role: ORBITAL
    Keyword: BASIS
    atoms 1-3, 12-18  entry C          line   138 file /theoryfs2/ds/metcalf/miniconda2/envs/tf2gpu/share/psi4/basis/cc-pvdz.gbs
    atoms 4-11, 20-27 entry H          line    22 file /theoryfs2/ds/metcalf/miniconda2/envs/tf2gpu/share/psi4/basis/cc-pvdz.gbs
    atoms 19          entry O          line   198 file /theoryfs2/ds/metcalf/miniconda2/envs/tf2gpu/share/psi4/basis/cc-pvdz.gbs

         ---------------------------------------------------------
                                   SCF
               by Justin Turney, Rob Parrish, Andy Simmonett
                          and Daniel G. A. Smith
                              RHF Reference
                        1 Threads,    500 MiB Core
         ---------------------------------------------------------

  ==> Geometry <==

    Molecular point group: c1
    Full point group: C1

    Geometry (in Angstrom), charge = 0, multiplicity = 1:

       Center              X                  Y                   Z               Mass
    ------------   -----------------  -----------------  -----------------  -----------------
         C            0.593048598747     1.116861684886    -2.443000214788    12.000000000000
         C            0.901048598747     2.462861684886    -3.086000214788    12.000000000000
         C            1.812048598747     0.554861684886    -1.707000214788    12.000000000000
         H           -0.227951401253     1.247861684886    -1.742000214788     1.007825032230
         H            0.289048598747     0.404861684886    -3.210000214788     1.007825032230
         H            1.841048598747     2.363861684886    -3.634000214788     1.007825032230
         H            1.040048598747     3.220861684886    -2.314000214788     1.007825032230
         H            1.547048598747    -0.417138315114    -1.288000214788     1.007825032230
         H            2.615048598747     0.398861684886    -2.432000214788     1.007825032230
         H            0.133918598747     2.812541684886    -3.792567214788     1.007825032230
         H            2.169768598747     1.211161684886    -0.899966214788     1.007825032230
         C           -1.203951401253    -2.452138315114    -1.146000214788    12.000000000000
         C           -1.454951401253    -0.214138315114     0.044999785212    12.000000000000
         C           -0.850951401253    -1.475138315114    -0.046000214788    12.000000000000
         C           -1.088951401253     0.678861684886     1.054999785212    12.000000000000
         C            0.129048598747    -1.821138315114     0.890999785212    12.000000000000
         C           -0.101951401253     0.320861684886     1.977999785212    12.000000000000
         C            0.511048598747    -0.932138315114     1.889999785212    12.000000000000
         O            0.269048598747     1.210861684886     2.947999785212    15.994914619570
         H           -2.195951401253     0.095861684886    -0.668000214788     1.007825032230
         H           -1.570951401253     1.637861684886     1.142999785212     1.007825032230
         H           -0.809951401253    -3.443138315114    -0.909000214788     1.007825032230
         H           -0.668951401253    -2.105138315114    -2.032000214788     1.007825032230
         H            0.608048598747    -2.791138315114     0.834999785212     1.007825032230
         H            1.271048598747    -1.216138315114     2.604999785212     1.007825032230
         H            0.946048598747     0.856861684886     3.529999785212     1.007825032230
         H           -2.273446401253    -2.534578315114    -1.389691214788     1.007825032230

  Running in c1 symmetry.

  Rotational constants: A =      0.03826  B =      0.02298  C =      0.01763 [cm^-1]
  Rotational constants: A =   1147.06130  B =    688.94589  C =    528.42589 [MHz]
  Nuclear repulsion =  597.510198023614521

  Charge       = 0
  Multiplicity = 1
  Electrons    = 84
  Nalpha       = 42
  Nbeta        = 42

  ==> Algorithm <==

  SCF Algorithm Type is PK.
  DIIS enabled.
  MOM disabled.
  Fractional occupation disabled.
  Guess Type is SAD.
  Energy threshold   = 1.00e-06
  Density threshold  = 1.00e-10
  Integral threshold = 0.00e+00

  ==> Primary Basis <==

  Basis Set: CC-PVDZ
    Blend: CC-PVDZ
    Number of shells: 114
    Number of basis function: 234
    Number of Cartesian functions: 245
    Spherical Harmonics?: true
    Max angular momentum: 2

  ==> Pre-Iterations <==

   -------------------------------------------------------
    Irrep   Nso     Nmo     Nalpha   Nbeta   Ndocc  Nsocc
   -------------------------------------------------------
     A        234     234       0       0       0       0
   -------------------------------------------------------
    Total     234     234      42      42      42       0
   -------------------------------------------------------

  ==> Integral Setup <==

  Using integral reordering PK algorithm.
  Sizing the integral batches needed.
  Building batch lookup table.
   Calculation information:
      Number of atoms:                  27
      Number of AO shells:             114
      Number of primitives:            322
      Number of atomic orbitals:       245
      Number of basis functions:       234

      Integral cutoff                 1.00e-12
      Number of threads:                 1

	Batch   1 pq = [       0,    9405] index = [             0,44231715] size =     44231715
	Batch   2 pq = [    9405,   13301] index = [      44231715,88464951] size =     44233236
	Batch   3 pq = [   13301,   16290] index = [      88464951,132690195] size =     44225244
	Batch   4 pq = [   16290,   18810] index = [     132690195,176917455] size =     44227260
	Batch   5 pq = [   18810,   21030] index = [     176917455,221140965] size =     44223510
	Batch   6 pq = [   21030,   23037] index = [     221140965,265363203] size =     44222238
	Batch   7 pq = [   23037,   24883] index = [     265363203,309594286] size =     44231083
	Batch   8 pq = [   24883,   26601] index = [     309594286,353819901] size =     44225615
	Batch   9 pq = [   26601,   27495] index = [     353819901,378001260] size =     24181359
  Task number: 35
  Buffer size: 11059200
  Buffer per thread: 2
  We computed 22367784 shell quartets total.
  Whereas there are 21487290 unique shell quartets.
     4.10 percent of shell quartets recomputed by reordering.

  ==> DiskJK: Disk-Based J/K Matrices <==

    J tasked:                  Yes
    K tasked:                  Yes
    wK tasked:                  No
    Memory [MiB]:              375
    Schwarz Cutoff:          1E-12

    OpenMP threads:              1

  Minimum eigenvalue in the overlap matrix is 3.2904999394E-04.
  Using Symmetric Orthogonalization.

  SCF Guess: Superposition of Atomic Densities via on-the-fly atomic UHF.

  ==> Iterations <==

                        Total Energy        Delta E     RMS |[F,P]|

   @RHF iter SAD:  -461.66918678140075   -4.61669e+02   0.00000e+00
   @RHF iter   1:  -462.60357887885596   -9.34392e-01   2.82213e-03 DIIS
   @RHF iter   2:  -462.84558000097275   -2.42001e-01   1.20826e-03 DIIS
   @RHF iter   3:  -462.88587084886285   -4.02908e-02   2.70376e-04 DIIS
   @RHF iter   4:  -462.88914732208184   -3.27647e-03   1.05670e-04 DIIS
   @RHF iter   5:  -462.88950443833846   -3.57116e-04   2.08368e-05 DIIS
   @RHF iter   6:  -462.88952476582296   -2.03275e-05   6.55501e-06 DIIS
   @RHF iter   7:  -462.88952692894043   -2.16312e-06   2.00801e-06 DIIS
   @RHF iter   8:  -462.88952722636952   -2.97429e-07   7.95208e-07 DIIS
   @RHF iter   9:  -462.88952728303468   -5.66652e-08   3.74645e-07 DIIS
   @RHF iter  10:  -462.88952729661008   -1.35754e-08   1.63012e-07 DIIS
   @RHF iter  11:  -462.88952730105837   -4.44828e-09   6.61992e-08 DIIS
   @RHF iter  12:  -462.88952730169410   -6.35737e-10   2.93682e-08 DIIS
   @RHF iter  13:  -462.88952730177743   -8.33325e-11   8.47891e-09 DIIS
   @RHF iter  14:  -462.88952730178585   -8.41283e-12   2.09096e-09 DIIS
   @RHF iter  15:  -462.88952730178289    2.95586e-12   6.97315e-10 DIIS
   @RHF iter  16:  -462.88952730178266    2.27374e-13   2.30036e-10 DIIS
   @RHF iter  17:  -462.88952730178357   -9.09495e-13   9.62002e-11 DIIS
  Energy and wave function converged.

  ==> Post-Iterations <==

    Orbital Energies [Eh]
    ---------------------

    Doubly Occupied:

       1A    -20.583680     2A    -11.302066     3A    -11.240361
       4A    -11.239905     5A    -11.236866     6A    -11.234870
       7A    -11.232383     8A    -11.229974     9A    -11.210417
      10A    -11.208924    11A    -11.206541    12A     -1.398527
      13A     -1.149524    14A     -1.046538    15A     -1.036269
      16A     -1.018577    17A     -0.926711    18A     -0.914814
      19A     -0.843537    20A     -0.803625    21A     -0.789913
      22A     -0.732611    23A     -0.667973    24A     -0.643128
      25A     -0.620235    26A     -0.604531    27A     -0.593718
      28A     -0.588351    29A     -0.582059    30A     -0.571130
      31A     -0.567593    32A     -0.537520    33A     -0.527812
      34A     -0.521733    35A     -0.497964    36A     -0.486784
      37A     -0.470451    38A     -0.463910    39A     -0.462993
      40A     -0.456076    41A     -0.338331    42A     -0.300762

    Virtual:

      43A      0.128359    44A      0.152498    45A      0.175383
      46A      0.179491    47A      0.199226    48A      0.206212
      49A      0.218336    50A      0.237097    51A      0.238754
      52A      0.255291    53A      0.260560    54A      0.270261
      55A      0.278583    56A      0.292950    57A      0.302248
      58A      0.313596    59A      0.319832    60A      0.345045
      61A      0.366470    62A      0.372455    63A      0.393085
      64A      0.425220    65A      0.434839    66A      0.453461
      67A      0.478787    68A      0.491762    69A      0.512584
      70A      0.575427    71A      0.582848    72A      0.602185
      73A      0.615782    74A      0.620503    75A      0.633847
      76A      0.645896    77A      0.649041    78A      0.680196
      79A      0.693174    80A      0.702595    81A      0.731509
      82A      0.735405    83A      0.742245    84A      0.762703
      85A      0.774081    86A      0.781597    87A      0.787137
      88A      0.800452    89A      0.826859    90A      0.834169
      91A      0.850301    92A      0.852741    93A      0.869480
      94A      0.877580    95A      0.880186    96A      0.890003
      97A      0.892830    98A      0.900298    99A      0.907085
     100A      0.908425   101A      0.913095   102A      0.923556
     103A      0.931598   104A      0.934585   105A      0.942402
     106A      0.946662   107A      0.967416   108A      0.980033
     109A      0.988677   110A      1.011686   111A      1.015101
     112A      1.023531   113A      1.060964   114A      1.080442
     115A      1.124749   116A      1.132966   117A      1.134080
     118A      1.144336   119A      1.161356   120A      1.185438
     121A      1.215223   122A      1.227324   123A      1.242014
     124A      1.260639   125A      1.264305   126A      1.284140
     127A      1.294187   128A      1.306458   129A      1.320308
     130A      1.350780   131A      1.358920   132A      1.382972
     133A      1.401700   134A      1.468295   135A      1.485381
     136A      1.490316   137A      1.501407   138A      1.536511
     139A      1.555040   140A      1.576216   141A      1.611330
     142A      1.618738   143A      1.630874   144A      1.679616
     145A      1.684069   146A      1.700491   147A      1.708591
     148A      1.721538   149A      1.736076   150A      1.752841
     151A      1.778533   152A      1.801094   153A      1.823615
     154A      1.856603   155A      1.866589   156A      1.871346
     157A      1.893352   158A      1.898261   159A      1.901754
     160A      1.902568   161A      1.912232   162A      1.919941
     163A      1.931619   164A      1.943229   165A      1.949143
     166A      1.961067   167A      1.965871   168A      1.969421
     169A      1.972500   170A      1.983637   171A      1.991963
     172A      2.006649   173A      2.029788   174A      2.037365
     175A      2.047884   176A      2.059058   177A      2.061164
     178A      2.068121   179A      2.083271   180A      2.103317
     181A      2.132088   182A      2.138350   183A      2.145316
     184A      2.164079   185A      2.172365   186A      2.202358
     187A      2.228873   188A      2.258515   189A      2.273563
     190A      2.299650   191A      2.309991   192A      2.329436
     193A      2.330639   194A      2.350383   195A      2.371883
     196A      2.379865   197A      2.402396   198A      2.454741
     199A      2.471977   200A      2.479375   201A      2.503420
     202A      2.526598   203A      2.540822   204A      2.554034
     205A      2.592322   206A      2.617153   207A      2.624234
     208A      2.639915   209A      2.645950   210A      2.744951
     211A      2.758983   212A      2.763041   213A      2.778538
     214A      2.781606   215A      2.802875   216A      2.808539
     217A      2.844403   218A      2.852073   219A      2.900725
     220A      2.923362   221A      2.972310   222A      2.980260
     223A      2.994215   224A      3.024770   225A      3.082079
     226A      3.095271   227A      3.135597   228A      3.245259
     229A      3.278811   230A      3.346194   231A      3.564138
     232A      3.666506   233A      3.961854   234A      4.191507

    Final Occupation by Irrep:
              A
    DOCC [    42 ]

  @RHF Final Energy:  -462.88952730178357

   => Energetics <=

    Nuclear Repulsion Energy =            597.5101980236145209
    One-Electron Energy =               -1812.6200718570303252
    Two-Electron Energy =                 752.2203465316322308
    Total Energy =                       -462.8895273017835734

Computation Completed

Properties will be evaluated at   0.000000,   0.000000,   0.000000 [a0]

Properties computed using the SCF density matrix

  Nuclear Dipole Moment: [e a0]
     X:     4.4204      Y:     1.6401      Z:   -15.1712

  Electronic Dipole Moment: [e a0]
     X:    -4.1710      Y:    -2.1666      Z:    15.3102

  Dipole Moment: [e a0]
     X:     0.2494      Y:    -0.5264      Z:     0.1390     Total:     0.5989

  Dipole Moment: [D]
     X:     0.6338      Y:    -1.3380      Z:     0.3534     Total:     1.5222

*** tstop() called on ds3 at Mon Apr 27 20:31:09 2020
Module time:
	user time   =     153.66 seconds =       2.56 minutes
	system time =      56.63 seconds =       0.94 minutes
	total time  =        204 seconds =       3.40 minutes
Total time:
	user time   =     153.66 seconds =       2.56 minutes
	system time =      56.63 seconds =       0.94 minutes
	total time  =        204 seconds =       3.40 minutes
                                     G D M A

                                 by Anthony Stone

                           version 2.2.06, 22 June 2011

               Distributed Multipoles from Gaussian wavefunctions

Starting at 20:31:9 on 27 Apr 2020

Using SCF density matrix from file ./SSI/SSI-024LYS-069TYR-1-dimer.test.15144.fchk

                         Distributed Multipole Analysis

Standard DMA

Positions and radii in angstrom
Multipole moments in atomic units, ea_0^k for rank k

C          x =  0.593049  y =  1.116862  z = -2.443000 angstrom
           Maximum rank =  0   Radius =  0.650 angstrom
                   Q00  =  -0.075238

C          x =  0.901049  y =  2.462862  z = -3.086000 angstrom
           Maximum rank =  0   Radius =  0.650 angstrom
                   Q00  =  -0.237800

C          x =  1.812049  y =  0.554862  z = -1.707000 angstrom
           Maximum rank =  0   Radius =  0.650 angstrom
                   Q00  =  -0.251748

H          x = -0.227951  y =  1.247862  z = -1.742000 angstrom
           Maximum rank =  0   Radius =  0.325 angstrom
                   Q00  =   0.054179

H          x =  0.289049  y =  0.404862  z = -3.210000 angstrom
           Maximum rank =  0   Radius =  0.325 angstrom
                   Q00  =   0.041087

H          x =  1.841049  y =  2.363862  z = -3.634000 angstrom
           Maximum rank =  0   Radius =  0.325 angstrom
                   Q00  =   0.067711

H          x =  1.040049  y =  3.220862  z = -2.314000 angstrom
           Maximum rank =  0   Radius =  0.325 angstrom
                   Q00  =   0.076924

H          x =  1.547049  y = -0.417138  z = -1.288000 angstrom
           Maximum rank =  0   Radius =  0.325 angstrom
                   Q00  =   0.089749

H          x =  2.615049  y =  0.398862  z = -2.432000 angstrom
           Maximum rank =  0   Radius =  0.325 angstrom
                   Q00  =   0.067642

H          x =  0.133919  y =  2.812542  z = -3.792567 angstrom
           Maximum rank =  0   Radius =  0.325 angstrom
                   Q00  =   0.080429

H          x =  2.169769  y =  1.211162  z = -0.899966 angstrom
           Maximum rank =  0   Radius =  0.325 angstrom
                   Q00  =   0.080891

C          x = -1.203951  y = -2.452138  z = -1.146000 angstrom
           Maximum rank =  0   Radius =  0.650 angstrom
                   Q00  =  -0.202911

C          x = -1.454951  y = -0.214138  z =  0.045000 angstrom
           Maximum rank =  0   Radius =  0.650 angstrom
                   Q00  =  -0.011646

C          x = -0.850951  y = -1.475138  z = -0.046000 angstrom
           Maximum rank =  0   Radius =  0.650 angstrom
                   Q00  =  -0.134418

C          x = -1.088951  y =  0.678862  z =  1.055000 angstrom
           Maximum rank =  0   Radius =  0.650 angstrom
                   Q00  =  -0.115329

C          x =  0.129049  y = -1.821138  z =  0.891000 angstrom
           Maximum rank =  0   Radius =  0.650 angstrom
                   Q00  =   0.029759

C          x = -0.101951  y =  0.320862  z =  1.978000 angstrom
           Maximum rank =  0   Radius =  0.650 angstrom
                   Q00  =   0.322709

C          x =  0.511049  y = -0.932138  z =  1.890000 angstrom
           Maximum rank =  0   Radius =  0.650 angstrom
                   Q00  =  -0.193559

O          x =  0.269049  y =  1.210862  z =  2.948000 angstrom
           Maximum rank =  0   Radius =  0.650 angstrom
                   Q00  =  -0.675552

H          x = -2.195951  y =  0.095862  z = -0.668000 angstrom
           Maximum rank =  0   Radius =  0.325 angstrom
                   Q00  =   0.064442

H          x = -1.570951  y =  1.637862  z =  1.143000 angstrom
           Maximum rank =  0   Radius =  0.325 angstrom
                   Q00  =   0.081528

H          x = -0.809951  y = -3.443138  z = -0.909000 angstrom
           Maximum rank =  0   Radius =  0.325 angstrom
                   Q00  =   0.096584

H          x = -0.668951  y = -2.105138  z = -2.032000 angstrom
           Maximum rank =  0   Radius =  0.325 angstrom
                   Q00  =   0.094766

H          x =  0.608049  y = -2.791138  z =  0.835000 angstrom
           Maximum rank =  0   Radius =  0.325 angstrom
                   Q00  =   0.069370

H          x =  1.271049  y = -1.216138  z =  2.605000 angstrom
           Maximum rank =  0   Radius =  0.325 angstrom
                   Q00  =   0.072935

H          x =  0.946049  y =  0.856862  z =  3.530000 angstrom
           Maximum rank =  0   Radius =  0.325 angstrom
                   Q00  =   0.406075

H          x = -2.273446  y = -2.534578  z = -1.389691 angstrom
           Maximum rank =  0   Radius =  0.325 angstrom
                   Q00  =   0.101423

Total multipoles referred to origin at
           x =   0.000000,  y =    0.000000,  z =    0.000000 angstrom
                   Q00  =  -0.000000

Finished at 20:31:9 on 27 Apr 2020

  DMA results are available in the Python driver through the
	  variable('DMA DISTRIBUTED MULTIPOLES')
  and
	  variable('DMA TOTAL MULTIPOLES')
  commands.

    Psi4 stopped on: Monday, 27 April 2020 08:31PM
    Psi4 wall time for execution: 0:03:23.81

*** Psi4 exiting successfully. Buy a developer a beer!
