                               Psi4 1.3.2 release

  ==> Input File <==

--------------------------------------------------------------------------
import numpy as np
set {scf_type pk
basis cc-pvdz
d_convergence 10
gdma_switch   0
gdma_limit    0
gdma_origin   [ 0.0,  0.0,  0.0 ]
}
molecule test {
    units Angstrom
    0 1
    --
    0 1
    C               -0.425834804378442    -1.755501709689295    -0.752978913779147
    C               -1.861834804378442    -2.284501709689295    -0.698978913779147
    H               -0.379834804378442    -0.851501709689295    -1.362978913779147
    H               -0.077834804378442    -1.517501709689295     0.253021086220853
    H                0.245165195621558    -2.510501709689295    -1.160978913779147
    H               -1.829834804378442    -3.236501709689295    -0.171978913779147
    H               -2.282458804378442    -2.475171709689295    -1.697338913779147
    H               -2.512747804378442    -1.605961709689295    -0.128098913779147
    C                0.961165195621558     1.275498290310705     0.761021086220853
    C                1.328165195621558     2.776498290310705     0.687021086220853
    H                1.459165195621558     0.803498290310705     1.611021086220853
    H               -0.118834804378442     1.166498290310705     0.870021086220853
    H                1.270165195621558     0.773498290310705    -0.158978913779147
    H                0.801165195621558     3.209498290310705    -0.160978913779147
    H                2.416965195621558     2.835388290310705     0.541941086220853
    H                0.989145195621558     3.265958290310705     1.611951086220853

}
e, wfn = energy('scf', return_wfn=True)
gdma(wfn)
dmavals = variable('DMA DISTRIBUTED MULTIPOLES')
charges = np.array(dmavals)
print(charges)
np.save('SSI-022VAL-067LEU-1-dimer.npy', np.array(charges))--------------------------------------------------------------------------

*** tstart() called on ds3
*** at Mon Apr 27 14:54:51 2020

   => Loading Basis Set <=

    Name: CC-PVDZ
    Role: ORBITAL
    Keyword: BASIS
    atoms 1-2, 9-10  entry C          line   138 file /theoryfs2/ds/metcalf/miniconda2/envs/tf2gpu/share/psi4/basis/cc-pvdz.gbs
    atoms 3-8, 11-16 entry H          line    22 file /theoryfs2/ds/metcalf/miniconda2/envs/tf2gpu/share/psi4/basis/cc-pvdz.gbs

         ---------------------------------------------------------
                                   SCF
               by Justin Turney, Rob Parrish, Andy Simmonett
                          and Daniel G. A. Smith
                              RHF Reference
                        1 Threads,    500 MiB Core
         ---------------------------------------------------------

  ==> Geometry <==

    Molecular point group: c1
    Full point group: C1

    Geometry (in Angstrom), charge = 0, multiplicity = 1:

       Center              X                  Y                   Z               Mass
    ------------   -----------------  -----------------  -----------------  -----------------
         C           -0.425834804378    -1.755501709689    -0.752978913779    12.000000000000
         C           -1.861834804378    -2.284501709689    -0.698978913779    12.000000000000
         H           -0.379834804378    -0.851501709689    -1.362978913779     1.007825032230
         H           -0.077834804378    -1.517501709689     0.253021086221     1.007825032230
         H            0.245165195622    -2.510501709689    -1.160978913779     1.007825032230
         H           -1.829834804378    -3.236501709689    -0.171978913779     1.007825032230
         H           -2.282458804378    -2.475171709689    -1.697338913779     1.007825032230
         H           -2.512747804378    -1.605961709689    -0.128098913779     1.007825032230
         C            0.961165195622     1.275498290311     0.761021086221    12.000000000000
         C            1.328165195622     2.776498290311     0.687021086221    12.000000000000
         H            1.459165195622     0.803498290311     1.611021086221     1.007825032230
         H           -0.118834804378     1.166498290311     0.870021086221     1.007825032230
         H            1.270165195622     0.773498290311    -0.158978913779     1.007825032230
         H            0.801165195622     3.209498290311    -0.160978913779     1.007825032230
         H            2.416965195622     2.835388290311     0.541941086221     1.007825032230
         H            0.989145195622     3.265958290311     1.611951086221     1.007825032230

  Running in c1 symmetry.

  Rotational constants: A =      0.67041  B =      0.04250  C =      0.04178 [cm^-1]
  Rotational constants: A =  20098.34208  B =   1274.02769  C =   1252.64671 [MHz]
  Nuclear repulsion =  120.540231753667257

  Charge       = 0
  Multiplicity = 1
  Electrons    = 36
  Nalpha       = 18
  Nbeta        = 18

  ==> Algorithm <==

  SCF Algorithm Type is PK.
  DIIS enabled.
  MOM disabled.
  Fractional occupation disabled.
  Guess Type is SAD.
  Energy threshold   = 1.00e-06
  Density threshold  = 1.00e-10
  Integral threshold = 0.00e+00

  ==> Primary Basis <==

  Basis Set: CC-PVDZ
    Blend: CC-PVDZ
    Number of shells: 60
    Number of basis function: 116
    Number of Cartesian functions: 120
    Spherical Harmonics?: true
    Max angular momentum: 2

  ==> Pre-Iterations <==

   -------------------------------------------------------
    Irrep   Nso     Nmo     Nalpha   Nbeta   Ndocc  Nsocc
   -------------------------------------------------------
     A        116     116       0       0       0       0
   -------------------------------------------------------
    Total     116     116      18      18      18       0
   -------------------------------------------------------

  ==> Integral Setup <==

  Using integral reordering PK algorithm.
  Sizing the integral batches needed.
  Building batch lookup table.
   Calculation information:
      Number of atoms:                  16
      Number of AO shells:              60
      Number of primitives:            148
      Number of atomic orbitals:       120
      Number of basis functions:       116

      Integral cutoff                 1.00e-12
      Number of threads:                 1

	Batch   1 pq = [       0,    6786] index = [             0,23028291] size =     23028291
  Task number: 3
  Buffer size: 11059200
  Buffer per thread: 2
  We computed 1370915 shell quartets total.
  Whereas there are 1675365 unique shell quartets.

  ==> DiskJK: Disk-Based J/K Matrices <==

    J tasked:                  Yes
    K tasked:                  Yes
    wK tasked:                  No
    Memory [MiB]:              375
    Schwarz Cutoff:          1E-12

    OpenMP threads:              1

  Minimum eigenvalue in the overlap matrix is 6.7930679651E-03.
  Using Symmetric Orthogonalization.

  SCF Guess: Superposition of Atomic Densities via on-the-fly atomic UHF.

  ==> Iterations <==

                        Total Energy        Delta E     RMS |[F,P]|

   @RHF iter SAD:  -157.31563449792398   -1.57316e+02   0.00000e+00
   @RHF iter   1:  -158.30823009552716   -9.92596e-01   4.17915e-03 DIIS
   @RHF iter   2:  -158.44027682899019   -1.32047e-01   1.77159e-03 DIIS
   @RHF iter   3:  -158.46312816561050   -2.28513e-02   3.48768e-04 DIIS
   @RHF iter   4:  -158.46495413156265   -1.82597e-03   3.92438e-05 DIIS
   @RHF iter   5:  -158.46497845397911   -2.43224e-05   6.99266e-06 DIIS
   @RHF iter   6:  -158.46497916065039   -7.06671e-07   1.34843e-06 DIIS
   @RHF iter   7:  -158.46497917807997   -1.74296e-08   3.42188e-07 DIIS
   @RHF iter   8:  -158.46497917925015   -1.17018e-09   4.44393e-08 DIIS
   @RHF iter   9:  -158.46497917928312   -3.29692e-11   1.00232e-08 DIIS
   @RHF iter  10:  -158.46497917928403   -9.09495e-13   2.96587e-09 DIIS
   @RHF iter  11:  -158.46497917928480   -7.67386e-13   7.46987e-10 DIIS
   @RHF iter  12:  -158.46497917928491   -1.13687e-13   1.42828e-10 DIIS
   @RHF iter  13:  -158.46497917928505   -1.42109e-13   2.23322e-11 DIIS
  Energy and wave function converged.

  ==> Post-Iterations <==

    Orbital Energies [Eh]
    ---------------------

    Doubly Occupied:

       1A    -11.220413     2A    -11.218770     3A    -11.216988
       4A    -11.216157     5A     -1.016894     6A     -1.013815
       7A     -0.839458     8A     -0.832405     9A     -0.600013
      10A     -0.598806    11A     -0.594772    12A     -0.594054
      13A     -0.504046    14A     -0.492539    15A     -0.489552
      16A     -0.488519    17A     -0.482147    18A     -0.478268

    Virtual:

      19A      0.175125    20A      0.193570    21A      0.224925
      22A      0.233660    23A      0.244677    24A      0.257429
      25A      0.265569    26A      0.275819    27A      0.283235
      28A      0.293734    29A      0.303632    30A      0.306362
      31A      0.399263    32A      0.403992    33A      0.576193
      34A      0.595648    35A      0.600295    36A      0.602584
      37A      0.612746    38A      0.639211    39A      0.664325
      40A      0.685168    41A      0.692381    42A      0.775438
      43A      0.845901    44A      0.880349    45A      0.886745
      46A      0.893007    47A      0.894683    48A      0.895353
      49A      0.897258    50A      0.908408    51A      0.911263
      52A      0.915232    53A      0.934584    54A      0.944538
      55A      0.966106    56A      0.987679    57A      1.120813
      58A      1.122696    59A      1.129188    60A      1.158242
      61A      1.234454    62A      1.239624    63A      1.463023
      64A      1.477071    65A      1.477772    66A      1.491254
      67A      1.570181    68A      1.580592    69A      1.668084
      70A      1.684901    71A      1.691810    72A      1.698003
      73A      1.844618    74A      1.852113    75A      1.868617
      76A      1.883403    77A      1.886881    78A      1.916276
      79A      1.929681    80A      1.936459    81A      1.940118
      82A      1.945731    83A      1.952821    84A      1.960225
      85A      1.967077    86A      1.977794    87A      1.996120
      88A      2.012643    89A      2.089191    90A      2.108838
      91A      2.116092    92A      2.129977    93A      2.273515
      94A      2.306052    95A      2.313827    96A      2.325614
      97A      2.440144    98A      2.457910    99A      2.461239
     100A      2.482951   101A      2.551520   102A      2.566502
     103A      2.573139   104A      2.581528   105A      2.758627
     106A      2.763796   107A      2.783133   108A      2.792650
     109A      2.825597   110A      2.828495   111A      2.853813
     112A      2.866331   113A      2.941740   114A      2.942547
     115A      2.953283   116A      2.968549

    Final Occupation by Irrep:
              A
    DOCC [    18 ]

  @RHF Final Energy:  -158.46497917928505

   => Energetics <=

    Nuclear Repulsion Energy =            120.5402317536672570
    One-Electron Energy =                -450.2151889559755773
    Two-Electron Energy =                 171.2099780230232398
    Total Energy =                       -158.4649791792850522

Computation Completed

Properties will be evaluated at   0.000000,   0.000000,   0.000000 [a0]

Properties computed using the SCF density matrix

  Nuclear Dipole Moment: [e a0]
     X:    -0.0185      Y:    -0.1339      Z:     0.0437

  Electronic Dipole Moment: [e a0]
     X:     0.0259      Y:     0.1185      Z:    -0.0392

  Dipole Moment: [e a0]
     X:     0.0073      Y:    -0.0154      Z:     0.0045     Total:     0.0176

  Dipole Moment: [D]
     X:     0.0186      Y:    -0.0390      Z:     0.0114     Total:     0.0447

*** tstop() called on ds3 at Mon Apr 27 14:55:00 2020
Module time:
	user time   =       6.76 seconds =       0.11 minutes
	system time =       2.77 seconds =       0.05 minutes
	total time  =          9 seconds =       0.15 minutes
Total time:
	user time   =       6.76 seconds =       0.11 minutes
	system time =       2.77 seconds =       0.05 minutes
	total time  =          9 seconds =       0.15 minutes
                                     G D M A

                                 by Anthony Stone

                           version 2.2.06, 22 June 2011

               Distributed Multipoles from Gaussian wavefunctions

Starting at 14:55:0 on 27 Apr 2020

Using SCF density matrix from file ./SSI/SSI-022VAL-067LEU-1-dimer.test.15144.fchk

                         Distributed Multipole Analysis

Standard DMA

Positions and radii in angstrom
Multipole moments in atomic units, ea_0^k for rank k

C          x = -0.425835  y = -1.755502  z = -0.752979 angstrom
           Maximum rank =  0   Radius =  0.650 angstrom
                   Q00  =  -0.238716

C          x = -1.861835  y = -2.284502  z = -0.698979 angstrom
           Maximum rank =  0   Radius =  0.650 angstrom
                   Q00  =  -0.238162

H          x = -0.379835  y = -0.851502  z = -1.362979 angstrom
           Maximum rank =  0   Radius =  0.325 angstrom
                   Q00  =   0.077382

H          x = -0.077835  y = -1.517502  z =  0.253021 angstrom
           Maximum rank =  0   Radius =  0.325 angstrom
                   Q00  =   0.082856

H          x =  0.245165  y = -2.510502  z = -1.160979 angstrom
           Maximum rank =  0   Radius =  0.325 angstrom
                   Q00  =   0.079183

H          x = -1.829835  y = -3.236502  z = -0.171979 angstrom
           Maximum rank =  0   Radius =  0.325 angstrom
                   Q00  =   0.075533

H          x = -2.282459  y = -2.475172  z = -1.697339 angstrom
           Maximum rank =  0   Radius =  0.325 angstrom
                   Q00  =   0.081128

H          x = -2.512748  y = -1.605962  z = -0.128099 angstrom
           Maximum rank =  0   Radius =  0.325 angstrom
                   Q00  =   0.079508

C          x =  0.961165  y =  1.275498  z =  0.761021 angstrom
           Maximum rank =  0   Radius =  0.650 angstrom
                   Q00  =  -0.246503

C          x =  1.328165  y =  2.776498  z =  0.687021 angstrom
           Maximum rank =  0   Radius =  0.650 angstrom
                   Q00  =  -0.232379

H          x =  1.459165  y =  0.803498  z =  1.611021 angstrom
           Maximum rank =  0   Radius =  0.325 angstrom
                   Q00  =   0.079069

H          x = -0.118835  y =  1.166498  z =  0.870021 angstrom
           Maximum rank =  0   Radius =  0.325 angstrom
                   Q00  =   0.077072

H          x =  1.270165  y =  0.773498  z = -0.158979 angstrom
           Maximum rank =  0   Radius =  0.325 angstrom
                   Q00  =   0.080814

H          x =  0.801165  y =  3.209498  z = -0.160979 angstrom
           Maximum rank =  0   Radius =  0.325 angstrom
                   Q00  =   0.081638

H          x =  2.416965  y =  2.835388  z =  0.541941 angstrom
           Maximum rank =  0   Radius =  0.325 angstrom
                   Q00  =   0.080588

H          x =  0.989145  y =  3.265958  z =  1.611951 angstrom
           Maximum rank =  0   Radius =  0.325 angstrom
                   Q00  =   0.080988

Total multipoles referred to origin at
           x =   0.000000,  y =    0.000000,  z =    0.000000 angstrom
                   Q00  =  -0.000000

Finished at 14:55:0 on 27 Apr 2020

  DMA results are available in the Python driver through the
	  variable('DMA DISTRIBUTED MULTIPOLES')
  and
	  variable('DMA TOTAL MULTIPOLES')
  commands.

    Psi4 stopped on: Monday, 27 April 2020 02:55PM
    Psi4 wall time for execution: 0:00:09.36

*** Psi4 exiting successfully. Buy a developer a beer!
