                               Psi4 1.3.2 release

  ==> Input File <==

--------------------------------------------------------------------------
import numpy as np
set {scf_type pk
basis cc-pvdz
d_convergence 10
gdma_switch   0
gdma_limit    0
gdma_origin   [ 0.0,  0.0,  0.0 ]
}
molecule test {
    units Angstrom
    1 1
    --
    1 1
    C                1.725602778098021     0.675194313057221    -1.998340196388826
    O                1.162602778098021    -0.168805686942779    -1.015340196388826
    H                0.787602778098021    -0.897805686942779    -1.559340196388826
    H                0.929602778098021     1.105194313057221    -2.609340196388826
    H                2.367602778098021     0.079194313057221    -2.647340196388826
    H                2.327692778098021     1.480134313057221    -1.551630196388826
    C               -0.542397221901979    -0.004805686942779     1.397659803611174
    C               -1.586397221901979     1.045194313057221     1.023659803611174
    N               -0.839397221901979    -1.338805686942779     0.797659803611174
    H                0.441602778098021     0.342194313057221     1.069659803611174
    H               -0.510397221901979    -0.095805686942779     2.488659803611174
    H               -1.391397221901979     1.973194313057221     1.549659803611174
    H               -2.566397221901979     0.700194313057221     1.361659803611174
    H               -1.009397221901979    -1.301805686942779    -0.211340196388826
    H               -0.072397221901979    -1.982805686942779     0.952659803611174
    H               -1.664397221901979    -1.751805686942779     1.215659803611174
    H               -1.627457221901979     1.203674313057221    -0.064090196388826

}
e, wfn = energy('scf', return_wfn=True)
gdma(wfn)
dmavals = variable('DMA DISTRIBUTED MULTIPOLES')
charges = np.array(dmavals)
print(charges)
np.save('SSI-102SER-165LYS-1-dimer.npy', np.array(charges))--------------------------------------------------------------------------

*** tstart() called on ds3
*** at Tue Apr 28 09:14:41 2020

   => Loading Basis Set <=

    Name: CC-PVDZ
    Role: ORBITAL
    Keyword: BASIS
    atoms 1, 7-8     entry C          line   138 file /theoryfs2/ds/metcalf/miniconda2/envs/tf2gpu/share/psi4/basis/cc-pvdz.gbs
    atoms 2          entry O          line   198 file /theoryfs2/ds/metcalf/miniconda2/envs/tf2gpu/share/psi4/basis/cc-pvdz.gbs
    atoms 3-6, 10-17 entry H          line    22 file /theoryfs2/ds/metcalf/miniconda2/envs/tf2gpu/share/psi4/basis/cc-pvdz.gbs
    atoms 9          entry N          line   168 file /theoryfs2/ds/metcalf/miniconda2/envs/tf2gpu/share/psi4/basis/cc-pvdz.gbs

         ---------------------------------------------------------
                                   SCF
               by Justin Turney, Rob Parrish, Andy Simmonett
                          and Daniel G. A. Smith
                              RHF Reference
                        1 Threads,    500 MiB Core
         ---------------------------------------------------------

  ==> Geometry <==

    Molecular point group: c1
    Full point group: C1

    Geometry (in Angstrom), charge = 1, multiplicity = 1:

       Center              X                  Y                   Z               Mass
    ------------   -----------------  -----------------  -----------------  -----------------
         C            1.725602778098     0.675194313057    -1.998340196389    12.000000000000
         O            1.162602778098    -0.168805686943    -1.015340196389    15.994914619570
         H            0.787602778098    -0.897805686943    -1.559340196389     1.007825032230
         H            0.929602778098     1.105194313057    -2.609340196389     1.007825032230
         H            2.367602778098     0.079194313057    -2.647340196389     1.007825032230
         H            2.327692778098     1.480134313057    -1.551630196389     1.007825032230
         C           -0.542397221902    -0.004805686943     1.397659803611    12.000000000000
         C           -1.586397221902     1.045194313057     1.023659803611    12.000000000000
         N           -0.839397221902    -1.338805686943     0.797659803611    14.003074004430
         H            0.441602778098     0.342194313057     1.069659803611     1.007825032230
         H           -0.510397221902    -0.095805686943     2.488659803611     1.007825032230
         H           -1.391397221902     1.973194313057     1.549659803611     1.007825032230
         H           -2.566397221902     0.700194313057     1.361659803611     1.007825032230
         H           -1.009397221902    -1.301805686943    -0.211340196389     1.007825032230
         H           -0.072397221902    -1.982805686943     0.952659803611     1.007825032230
         H           -1.664397221902    -1.751805686943     1.215659803611     1.007825032230
         H           -1.627457221902     1.203674313057    -0.064090196389     1.007825032230

  Running in c1 symmetry.

  Rotational constants: A =      0.22051  B =      0.06188  C =      0.05265 [cm^-1]
  Rotational constants: A =   6610.58333  B =   1855.16913  C =   1578.33685 [MHz]
  Nuclear repulsion =  199.571988359411648

  Charge       = 1
  Multiplicity = 1
  Electrons    = 44
  Nalpha       = 22
  Nbeta        = 22

  ==> Algorithm <==

  SCF Algorithm Type is PK.
  DIIS enabled.
  MOM disabled.
  Fractional occupation disabled.
  Guess Type is SAD.
  Energy threshold   = 1.00e-06
  Density threshold  = 1.00e-10
  Integral threshold = 0.00e+00

  ==> Primary Basis <==

  Basis Set: CC-PVDZ
    Blend: CC-PVDZ
    Number of shells: 66
    Number of basis function: 130
    Number of Cartesian functions: 135
    Spherical Harmonics?: true
    Max angular momentum: 2

  ==> Pre-Iterations <==

   -------------------------------------------------------
    Irrep   Nso     Nmo     Nalpha   Nbeta   Ndocc  Nsocc
   -------------------------------------------------------
     A        130     130       0       0       0       0
   -------------------------------------------------------
    Total     130     130      22      22      22       0
   -------------------------------------------------------

  ==> Integral Setup <==

  Using integral reordering PK algorithm.
  Sizing the integral batches needed.
  Building batch lookup table.
   Calculation information:
      Number of atoms:                  17
      Number of AO shells:              66
      Number of primitives:            170
      Number of atomic orbitals:       135
      Number of basis functions:       130

      Integral cutoff                 1.00e-12
      Number of threads:                 1

	Batch   1 pq = [       0,    8515] index = [             0,36256870] size =     36256870
  Task number: 4
  Buffer size: 11059200
  Buffer per thread: 2
  We computed 2239738 shell quartets total.
  Whereas there are 2445366 unique shell quartets.

  ==> DiskJK: Disk-Based J/K Matrices <==

    J tasked:                  Yes
    K tasked:                  Yes
    wK tasked:                  No
    Memory [MiB]:              375
    Schwarz Cutoff:          1E-12

    OpenMP threads:              1

  Minimum eigenvalue in the overlap matrix is 5.5717186588E-03.
  Using Symmetric Orthogonalization.

  SCF Guess: Superposition of Atomic Densities via on-the-fly atomic UHF.

  ==> Iterations <==

                        Total Energy        Delta E     RMS |[F,P]|

   @RHF iter SAD:  -248.93923221427289   -2.48939e+02   0.00000e+00
   @RHF iter   1:  -249.53065650996160   -5.91424e-01   3.84255e-03 DIIS
   @RHF iter   2:  -249.66500448663407   -1.34348e-01   1.65417e-03 DIIS
   @RHF iter   3:  -249.68501324075868   -2.00088e-02   4.51637e-04 DIIS
   @RHF iter   4:  -249.68728385529425   -2.27061e-03   1.12333e-04 DIIS
   @RHF iter   5:  -249.68741222052125   -1.28365e-04   2.78428e-05 DIIS
   @RHF iter   6:  -249.68742312262077   -1.09021e-05   6.20715e-06 DIIS
   @RHF iter   7:  -249.68742386770867   -7.45088e-07   1.59587e-06 DIIS
   @RHF iter   8:  -249.68742391887568   -5.11670e-08   4.27949e-07 DIIS
   @RHF iter   9:  -249.68742392150216   -2.62648e-09   1.17603e-07 DIIS
   @RHF iter  10:  -249.68742392172248   -2.20325e-10   2.78063e-08 DIIS
   @RHF iter  11:  -249.68742392173476   -1.22782e-11   8.79471e-09 DIIS
   @RHF iter  12:  -249.68742392173723   -2.47269e-12   2.75653e-09 DIIS
   @RHF iter  13:  -249.68742392173621    1.02318e-12   5.59982e-10 DIIS
   @RHF iter  14:  -249.68742392173743   -1.22213e-12   1.55946e-10 DIIS
   @RHF iter  15:  -249.68742392173712    3.12639e-13   5.88312e-11 DIIS
  Energy and wave function converged.

  ==> Post-Iterations <==

    Orbital Energies [Eh]
    ---------------------

    Doubly Occupied:

       1A    -20.712920     2A    -15.893754     3A    -11.461831
       4A    -11.403292     5A    -11.393849     6A     -1.513617
       7A     -1.505928     8A     -1.205293     9A     -1.051388
      10A     -1.043625    11A     -0.964390    12A     -0.954934
      13A     -0.848146    14A     -0.831728    15A     -0.781088
      16A     -0.755907    17A     -0.735974    18A     -0.713209
      19A     -0.688404    20A     -0.670241    21A     -0.635693
      22A     -0.588047

    Virtual:

      23A     -0.040550    24A      0.011307    25A      0.029435
      26A      0.043116    27A      0.078622    28A      0.088554
      29A      0.110286    30A      0.114603    31A      0.127816
      32A      0.132587    33A      0.161007    34A      0.169835
      35A      0.183323    36A      0.221546    37A      0.242831
      38A      0.385158    39A      0.422026    40A      0.439031
      41A      0.448035    42A      0.461542    43A      0.516931
      44A      0.520100    45A      0.583353    46A      0.607651
      47A      0.644342    48A      0.654670    49A      0.674805
      50A      0.678865    51A      0.699273    52A      0.720513
      53A      0.728406    54A      0.742148    55A      0.748032
      56A      0.764575    57A      0.780343    58A      0.786909
      59A      0.796032    60A      0.823884    61A      0.858470
      62A      0.932047    63A      0.945397    64A      0.995762
      65A      1.024252    66A      1.047016    67A      1.053811
      68A      1.174632    69A      1.195223    70A      1.230135
      71A      1.240610    72A      1.303106    73A      1.373373
      74A      1.410201    75A      1.469791    76A      1.485151
      77A      1.509721    78A      1.521266    79A      1.544420
      80A      1.558115    81A      1.605673    82A      1.673404
      83A      1.709425    84A      1.723899    85A      1.744908
      86A      1.753034    87A      1.774936    88A      1.780068
      89A      1.789167    90A      1.795045    91A      1.800705
      92A      1.818287    93A      1.844017    94A      1.886727
      95A      1.900900    96A      1.936626    97A      1.954227
      98A      1.994283    99A      2.010302   100A      2.034552
     101A      2.080174   102A      2.129722   103A      2.174083
     104A      2.192497   105A      2.197414   106A      2.221901
     107A      2.241094   108A      2.311302   109A      2.338290
     110A      2.344733   111A      2.387650   112A      2.441480
     113A      2.540250   114A      2.552053   115A      2.602743
     116A      2.629341   117A      2.635434   118A      2.644280
     119A      2.654023   120A      2.691492   121A      2.760526
     122A      2.804110   123A      2.875637   124A      3.122759
     125A      3.142095   126A      3.156404   127A      3.217164
     128A      3.348803   129A      3.399150   130A      3.924598

    Final Occupation by Irrep:
              A
    DOCC [    22 ]

  @RHF Final Energy:  -249.68742392173712

   => Energetics <=

    Nuclear Repulsion Energy =            199.5719883594116482
    One-Electron Energy =                -725.8123111457570076
    Two-Electron Energy =                 276.5528988646082098
    Total Energy =                       -249.6874239217371496

Computation Completed

Properties will be evaluated at   0.000000,   0.000000,   0.000000 [a0]

Properties computed using the SCF density matrix

  Nuclear Dipole Moment: [e a0]
     X:    -1.8554      Y:     0.8034      Z:    -0.0120

  Electronic Dipole Moment: [e a0]
     X:     0.5803      Y:    -2.5980      Z:     0.6554

  Dipole Moment: [e a0]
     X:    -1.2751      Y:    -1.7946      Z:     0.6434     Total:     2.2936

  Dipole Moment: [D]
     X:    -3.2410      Y:    -4.5614      Z:     1.6354     Total:     5.8297

*** tstop() called on ds3 at Tue Apr 28 09:15:05 2020
Module time:
	user time   =      18.95 seconds =       0.32 minutes
	system time =       5.67 seconds =       0.09 minutes
	total time  =         24 seconds =       0.40 minutes
Total time:
	user time   =      18.95 seconds =       0.32 minutes
	system time =       5.67 seconds =       0.09 minutes
	total time  =         24 seconds =       0.40 minutes
                                     G D M A

                                 by Anthony Stone

                           version 2.2.06, 22 June 2011

               Distributed Multipoles from Gaussian wavefunctions

Starting at 9:15:5 on 28 Apr 2020

Using SCF density matrix from file ./SSI/SSI-102SER-165LYS-1-dimer.test.9802.fchk

                         Distributed Multipole Analysis

Standard DMA

Positions and radii in angstrom
Multipole moments in atomic units, ea_0^k for rank k

C          x =  1.725603  y =  0.675194  z = -1.998340 angstrom
           Maximum rank =  0   Radius =  0.650 angstrom
                   Q00  =  -0.074116

O          x =  1.162603  y = -0.168806  z = -1.015340 angstrom
           Maximum rank =  0   Radius =  0.650 angstrom
                   Q00  =  -0.604229

H          x =  0.787603  y = -0.897806  z = -1.559340 angstrom
           Maximum rank =  0   Radius =  0.325 angstrom
                   Q00  =   0.375569

H          x =  0.929603  y =  1.105194  z = -2.609340 angstrom
           Maximum rank =  0   Radius =  0.325 angstrom
                   Q00  =   0.085591

H          x =  2.367603  y =  0.079194  z = -2.647340 angstrom
           Maximum rank =  0   Radius =  0.325 angstrom
                   Q00  =   0.099352

H          x =  2.327693  y =  1.480134  z = -1.551630 angstrom
           Maximum rank =  0   Radius =  0.325 angstrom
                   Q00  =   0.138339

C          x = -0.542397  y = -0.004806  z =  1.397660 angstrom
           Maximum rank =  0   Radius =  0.650 angstrom
                   Q00  =  -0.043913

C          x = -1.586397  y =  1.045194  z =  1.023660 angstrom
           Maximum rank =  0   Radius =  0.650 angstrom
                   Q00  =  -0.226268

N          x = -0.839397  y = -1.338806  z =  0.797660 angstrom
           Maximum rank =  0   Radius =  0.650 angstrom
                   Q00  =  -0.131797

H          x =  0.441603  y =  0.342194  z =  1.069660 angstrom
           Maximum rank =  0   Radius =  0.325 angstrom
                   Q00  =   0.157925

H          x = -0.510397  y = -0.095806  z =  2.488660 angstrom
           Maximum rank =  0   Radius =  0.325 angstrom
                   Q00  =   0.115509

H          x = -1.391397  y =  1.973194  z =  1.549660 angstrom
           Maximum rank =  0   Radius =  0.325 angstrom
                   Q00  =   0.152241

H          x = -2.566397  y =  0.700194  z =  1.361660 angstrom
           Maximum rank =  0   Radius =  0.325 angstrom
                   Q00  =   0.091949

H          x = -1.009397  y = -1.301806  z = -0.211340 angstrom
           Maximum rank =  0   Radius =  0.325 angstrom
                   Q00  =   0.253258

H          x = -0.072397  y = -1.982806  z =  0.952660 angstrom
           Maximum rank =  0   Radius =  0.325 angstrom
                   Q00  =   0.257723

H          x = -1.664397  y = -1.751806  z =  1.215660 angstrom
           Maximum rank =  0   Radius =  0.325 angstrom
                   Q00  =   0.247834

H          x = -1.627457  y =  1.203674  z = -0.064090 angstrom
           Maximum rank =  0   Radius =  0.325 angstrom
                   Q00  =   0.105034

Total multipoles referred to origin at
           x =   0.000000,  y =    0.000000,  z =    0.000000 angstrom
                   Q00  =   1.000000

Finished at 9:15:5 on 28 Apr 2020

  DMA results are available in the Python driver through the
	  variable('DMA DISTRIBUTED MULTIPOLES')
  and
	  variable('DMA TOTAL MULTIPOLES')
  commands.

    Psi4 stopped on: Tuesday, 28 April 2020 09:15AM
    Psi4 wall time for execution: 0:00:24.05

*** Psi4 exiting successfully. Buy a developer a beer!
