                               Psi4 1.3.2 release

  ==> Input File <==

--------------------------------------------------------------------------
import numpy as np
set {scf_type pk
basis cc-pvdz
d_convergence 10
gdma_switch   0
gdma_limit    0
gdma_origin   [ 0.0,  0.0,  0.0 ]
}
molecule test {
    units Angstrom
    0 1
    --
    0 1
    C                0.539708595851451     1.459868007465353    -2.998371783677158
    C               -0.100291404148549     2.018868007465353    -0.610371783677157
    C                0.473708595851451     1.199868007465353    -1.523371783677158
    C                0.895708595851451     0.414868007465353     0.612628216322843
    C                1.113708595851451     0.133868007465353    -0.765371783677157
    C                1.384708595851451    -0.404131992534647     1.622628216322842
    C                1.863708595851451    -1.014131992534647    -1.104371783677158
    C                2.109708595851451    -1.533131992534647     1.267628216322843
    C                2.351708595851451    -1.847131992534647    -0.077371783677157
    N                0.150708595851451     1.570868007465353     0.671628216322843
    H               -0.626291404148549     2.926868007465353    -0.866371783677157
    H               -0.050291404148549     2.108868007465353     1.517628216322843
    H                1.564708595851451     1.443868007465353    -3.339371783677157
    H                0.184708595851451     2.480868007465353    -3.148371783677157
    H                1.176708595851451    -0.177131992534647     2.658628216322843
    H                2.072708595851451    -1.251131992534647    -2.134371783677157
    H                2.490708595851451    -2.185131992534648     2.040628216322843
    H                2.921708595851451    -2.729131992534647    -0.333371783677158
    H               -0.049581404148549     0.790458007465353    -3.642288783677158
    C               -2.782291404148549    -0.269131992534647     0.816628216322843
    C               -3.800291404148549    -0.778131992534647    -0.219371783677157
    C               -2.887291404148549    -1.011131992534647     2.169628216322843
    H               -1.777291404148549    -0.412131992534647     0.421628216322843
    H               -2.935291404148548     0.793868007465353     1.006628216322843
    H               -4.801291404148548    -0.648131992534647     0.196628216322843
    H               -2.573291404148549    -2.049131992534647     2.067628216322842
    H               -2.224291404148549    -0.533131992534647     2.890628216322842
    H               -3.909291404148549    -0.967131992534647     2.544628216322843
    H               -3.723711404148549    -0.167621992534647    -1.131193283677158
    H               -3.676351404148549    -1.848001992534647    -0.443032383677157

}
e, wfn = energy('scf', return_wfn=True)
gdma(wfn)
dmavals = variable('DMA DISTRIBUTED MULTIPOLES')
charges = np.array(dmavals)
print(charges)
np.save('SSI-113TRP-178ILE-1-dimer.npy', np.array(charges))--------------------------------------------------------------------------

*** tstart() called on ds3
*** at Sun Apr 26 21:57:47 2020

   => Loading Basis Set <=

    Name: CC-PVDZ
    Role: ORBITAL
    Keyword: BASIS
    atoms 1-9, 20-22   entry C          line   138 file /theoryfs2/ds/metcalf/miniconda2/envs/tf2gpu/share/psi4/basis/cc-pvdz.gbs
    atoms 10           entry N          line   168 file /theoryfs2/ds/metcalf/miniconda2/envs/tf2gpu/share/psi4/basis/cc-pvdz.gbs
    atoms 11-19, 23-30 entry H          line    22 file /theoryfs2/ds/metcalf/miniconda2/envs/tf2gpu/share/psi4/basis/cc-pvdz.gbs

         ---------------------------------------------------------
                                   SCF
               by Justin Turney, Rob Parrish, Andy Simmonett
                          and Daniel G. A. Smith
                              RHF Reference
                        1 Threads,    500 MiB Core
         ---------------------------------------------------------

  ==> Geometry <==

    Molecular point group: c1
    Full point group: C1

    Geometry (in Angstrom), charge = 0, multiplicity = 1:

       Center              X                  Y                   Z               Mass
    ------------   -----------------  -----------------  -----------------  -----------------
         C            0.539708595851     1.459868007465    -2.998371783677    12.000000000000
         C           -0.100291404149     2.018868007465    -0.610371783677    12.000000000000
         C            0.473708595851     1.199868007465    -1.523371783677    12.000000000000
         C            0.895708595851     0.414868007465     0.612628216323    12.000000000000
         C            1.113708595851     0.133868007465    -0.765371783677    12.000000000000
         C            1.384708595851    -0.404131992535     1.622628216323    12.000000000000
         C            1.863708595851    -1.014131992535    -1.104371783677    12.000000000000
         C            2.109708595851    -1.533131992535     1.267628216323    12.000000000000
         C            2.351708595851    -1.847131992535    -0.077371783677    12.000000000000
         N            0.150708595851     1.570868007465     0.671628216323    14.003074004430
         H           -0.626291404149     2.926868007465    -0.866371783677     1.007825032230
         H           -0.050291404149     2.108868007465     1.517628216323     1.007825032230
         H            1.564708595851     1.443868007465    -3.339371783677     1.007825032230
         H            0.184708595851     2.480868007465    -3.148371783677     1.007825032230
         H            1.176708595851    -0.177131992535     2.658628216323     1.007825032230
         H            2.072708595851    -1.251131992535    -2.134371783677     1.007825032230
         H            2.490708595851    -2.185131992535     2.040628216323     1.007825032230
         H            2.921708595851    -2.729131992535    -0.333371783677     1.007825032230
         H           -0.049581404149     0.790458007465    -3.642288783677     1.007825032230
         C           -2.782291404149    -0.269131992535     0.816628216323    12.000000000000
         C           -3.800291404149    -0.778131992535    -0.219371783677    12.000000000000
         C           -2.887291404149    -1.011131992535     2.169628216323    12.000000000000
         H           -1.777291404149    -0.412131992535     0.421628216323     1.007825032230
         H           -2.935291404149     0.793868007465     1.006628216323     1.007825032230
         H           -4.801291404149    -0.648131992535     0.196628216323     1.007825032230
         H           -2.573291404149    -2.049131992535     2.067628216323     1.007825032230
         H           -2.224291404149    -0.533131992535     2.890628216323     1.007825032230
         H           -3.909291404149    -0.967131992535     2.544628216323     1.007825032230
         H           -3.723711404149    -0.167621992535    -1.131193283677     1.007825032230
         H           -3.676351404149    -1.848001992535    -0.443032383677     1.007825032230

  Running in c1 symmetry.

  Rotational constants: A =      0.02781  B =      0.01881  C =      0.01436 [cm^-1]
  Rotational constants: A =    833.65182  B =    563.94551  C =    430.57101 [MHz]
  Nuclear repulsion =  759.013157390806327

  Charge       = 0
  Multiplicity = 1
  Electrons    = 96
  Nalpha       = 48
  Nbeta        = 48

  ==> Algorithm <==

  SCF Algorithm Type is PK.
  DIIS enabled.
  MOM disabled.
  Fractional occupation disabled.
  Guess Type is SAD.
  Energy threshold   = 1.00e-06
  Density threshold  = 1.00e-10
  Integral threshold = 0.00e+00

  ==> Primary Basis <==

  Basis Set: CC-PVDZ
    Blend: CC-PVDZ
    Number of shells: 129
    Number of basis function: 267
    Number of Cartesian functions: 280
    Spherical Harmonics?: true
    Max angular momentum: 2

  ==> Pre-Iterations <==

   -------------------------------------------------------
    Irrep   Nso     Nmo     Nalpha   Nbeta   Ndocc  Nsocc
   -------------------------------------------------------
     A        267     267       0       0       0       0
   -------------------------------------------------------
    Total     267     267      48      48      48       0
   -------------------------------------------------------

  ==> Integral Setup <==

  Using integral reordering PK algorithm.
  Sizing the integral batches needed.
  Building batch lookup table.
   Calculation information:
      Number of atoms:                  30
      Number of AO shells:             129
      Number of primitives:            371
      Number of atomic orbitals:       280
      Number of basis functions:       267

      Integral cutoff                 1.00e-12
      Number of threads:                 1

	Batch   1 pq = [       0,    9405] index = [             0,44231715] size =     44231715
	Batch   2 pq = [    9405,   13301] index = [      44231715,88464951] size =     44233236
	Batch   3 pq = [   13301,   16290] index = [      88464951,132690195] size =     44225244
	Batch   4 pq = [   16290,   18810] index = [     132690195,176917455] size =     44227260
	Batch   5 pq = [   18810,   21030] index = [     176917455,221140965] size =     44223510
	Batch   6 pq = [   21030,   23037] index = [     221140965,265363203] size =     44222238
	Batch   7 pq = [   23037,   24883] index = [     265363203,309594286] size =     44231083
	Batch   8 pq = [   24883,   26601] index = [     309594286,353819901] size =     44225615
	Batch   9 pq = [   26601,   28214] index = [     353819901,398029005] size =     44209104
	Batch  10 pq = [   28214,   29740] index = [     398029005,442248670] size =     44219665
	Batch  11 pq = [   29740,   31191] index = [     442248670,486454836] size =     44206166
	Batch  12 pq = [   31191,   32578] index = [     486454836,530679331] size =     44224495
	Batch  13 pq = [   32578,   33908] index = [     530679331,574893186] size =     44213855
	Batch  14 pq = [   33908,   35188] index = [     574893186,619115266] size =     44222080
	Batch  15 pq = [   35188,   35778] index = [     619115266,640050531] size =     20935265
  Task number: 58
  Buffer size: 11059200
  Buffer per thread: 2
  We computed 36882084 shell quartets total.
  Whereas there are 35158305 unique shell quartets.
     4.90 percent of shell quartets recomputed by reordering.

  ==> DiskJK: Disk-Based J/K Matrices <==

    J tasked:                  Yes
    K tasked:                  Yes
    wK tasked:                  No
    Memory [MiB]:              375
    Schwarz Cutoff:          1E-12

    OpenMP threads:              1

  Minimum eigenvalue in the overlap matrix is 2.4452154637E-04.
  Using Symmetric Orthogonalization.

  SCF Guess: Superposition of Atomic Densities via on-the-fly atomic UHF.

  ==> Iterations <==

                        Total Energy        Delta E     RMS |[F,P]|

   @RHF iter SAD:  -517.88631681614254   -5.17886e+02   0.00000e+00
   @RHF iter   1:  -518.49781848356827   -6.11502e-01   2.47403e-03 DIIS
   @RHF iter   2:  -518.75345558062850   -2.55637e-01   1.09133e-03 DIIS
   @RHF iter   3:  -518.79854103555454   -4.50855e-02   2.79864e-04 DIIS
   @RHF iter   4:  -518.80259630666637   -4.05527e-03   1.28247e-04 DIIS
   @RHF iter   5:  -518.80325012261028   -6.53816e-04   1.94161e-05 DIIS
   @RHF iter   6:  -518.80328184095288   -3.17183e-05   8.66178e-06 DIIS
   @RHF iter   7:  -518.80328826304935   -6.42210e-06   3.51266e-06 DIIS
   @RHF iter   8:  -518.80328998732193   -1.72427e-06   1.45491e-06 DIIS
   @RHF iter   9:  -518.80329034676083   -3.59439e-07   6.19489e-07 DIIS
   @RHF iter  10:  -518.80329041875029   -7.19895e-08   2.78111e-07 DIIS
   @RHF iter  11:  -518.80329043592087   -1.71706e-08   1.07620e-07 DIIS
   @RHF iter  12:  -518.80329043835513   -2.43426e-09   3.76945e-08 DIIS
   @RHF iter  13:  -518.80329043854283   -1.87697e-10   1.04473e-08 DIIS
   @RHF iter  14:  -518.80329043855943   -1.65983e-11   3.78796e-09 DIIS
   @RHF iter  15:  -518.80329043856182   -2.38742e-12   1.93646e-09 DIIS
   @RHF iter  16:  -518.80329043855670    5.11591e-12   9.59155e-10 DIIS
   @RHF iter  17:  -518.80329043855920   -2.50111e-12   3.46652e-10 DIIS
   @RHF iter  18:  -518.80329043855681    2.38742e-12   1.40773e-10 DIIS
   @RHF iter  19:  -518.80329043856045   -3.63798e-12   4.90807e-11 DIIS
  Energy and wave function converged.

  ==> Post-Iterations <==

    Orbital Energies [Eh]
    ---------------------

    Doubly Occupied:

       1A    -15.601617     2A    -11.266775     3A    -11.265390
       4A    -11.235435     5A    -11.232033     6A    -11.230810
       7A    -11.227426     8A    -11.226440     9A    -11.224897
      10A    -11.221446    11A    -11.211568    12A    -11.210747
      13A    -11.209499    14A     -1.291486    15A     -1.125285
      16A     -1.072587    17A     -1.040249    18A     -0.995659
      19A     -0.989285    20A     -0.931021    21A     -0.916378
      22A     -0.839553    23A     -0.802705    24A     -0.789459
      25A     -0.752509    26A     -0.718578    27A     -0.664455
      28A     -0.642929    29A     -0.616410    30A     -0.600454
      31A     -0.594552    32A     -0.588458    33A     -0.581792
      34A     -0.566149    35A     -0.552521    36A     -0.543248
      37A     -0.541568    38A     -0.528321    39A     -0.524389
      40A     -0.497122    41A     -0.469873    42A     -0.467135
      43A     -0.460948    44A     -0.458250    45A     -0.456146
      46A     -0.372056    47A     -0.296547    48A     -0.278268

    Virtual:

      49A      0.123538    50A      0.165121    51A      0.166120
      52A      0.184611    53A      0.196458    54A      0.199618
      55A      0.217374    56A      0.223011    57A      0.232397
      58A      0.247150    59A      0.247933    60A      0.257576
      61A      0.260806    62A      0.271664    63A      0.283111
      64A      0.283886    65A      0.290996    66A      0.301627
      67A      0.311962    68A      0.315331    69A      0.368760
      70A      0.377782    71A      0.379707    72A      0.408263
      73A      0.417744    74A      0.427528    75A      0.438411
      76A      0.470648    77A      0.481336    78A      0.499147
      79A      0.524192    80A      0.580404    81A      0.587843
      82A      0.597162    83A      0.602678    84A      0.614424
      85A      0.623067    86A      0.629276    87A      0.635747
      88A      0.665908    89A      0.671461    90A      0.702494
      91A      0.711262    92A      0.717630    93A      0.726061
      94A      0.731998    95A      0.739670    96A      0.748658
      97A      0.756699    98A      0.763696    99A      0.781863
     100A      0.791598   101A      0.796197   102A      0.799221
     103A      0.811572   104A      0.823430   105A      0.831279
     106A      0.864407   107A      0.868480   108A      0.874607
     109A      0.879785   110A      0.885589   111A      0.896422
     112A      0.898374   113A      0.900274   114A      0.905300
     115A      0.910653   116A      0.915363   117A      0.917370
     118A      0.921062   119A      0.932229   120A      0.946924
     121A      0.951743   122A      0.956775   123A      0.965597
     124A      0.975304   125A      0.988473   126A      0.999965
     127A      1.003425   128A      1.041688   129A      1.078260
     130A      1.087281   131A      1.097235   132A      1.117653
     133A      1.128862   134A      1.135235   135A      1.141453
     136A      1.159104   137A      1.161367   138A      1.172350
     139A      1.195544   140A      1.218859   141A      1.228976
     142A      1.233531   143A      1.242501   144A      1.261254
     145A      1.278723   146A      1.283962   147A      1.299407
     148A      1.322585   149A      1.337018   150A      1.355526
     151A      1.367944   152A      1.387635   153A      1.401138
     154A      1.445931   155A      1.473189   156A      1.495581
     157A      1.512831   158A      1.534769   159A      1.544867
     160A      1.575586   161A      1.589818   162A      1.628596
     163A      1.639867   164A      1.653934   165A      1.668260
     166A      1.680588   167A      1.689946   168A      1.697086
     169A      1.699378   170A      1.710569   171A      1.737775
     172A      1.759569   173A      1.774506   174A      1.786399
     175A      1.812168   176A      1.829094   177A      1.838464
     178A      1.864700   179A      1.875125   180A      1.882734
     181A      1.894234   182A      1.900407   183A      1.905920
     184A      1.910990   185A      1.920338   186A      1.926490
     187A      1.934567   188A      1.943337   189A      1.947454
     190A      1.954186   191A      1.960149   192A      1.962076
     193A      1.974339   194A      1.981312   195A      1.985558
     196A      1.995866   197A      2.001294   198A      2.011099
     199A      2.015144   200A      2.034781   201A      2.047582
     202A      2.059646   203A      2.068754   204A      2.083580
     205A      2.095363   206A      2.100184   207A      2.112419
     208A      2.127006   209A      2.137278   210A      2.142566
     211A      2.151578   212A      2.162448   213A      2.164938
     214A      2.185007   215A      2.217361   216A      2.237552
     217A      2.292035   218A      2.295232   219A      2.306300
     220A      2.315807   221A      2.318798   222A      2.331492
     223A      2.341891   224A      2.348954   225A      2.352735
     226A      2.390560   227A      2.422520   228A      2.447488
     229A      2.465348   230A      2.497276   231A      2.527256
     232A      2.544024   233A      2.577306   234A      2.591413
     235A      2.599333   236A      2.615890   237A      2.625449
     238A      2.643285   239A      2.663346   240A      2.669773
     241A      2.704849   242A      2.757330   243A      2.764800
     244A      2.775701   245A      2.777802   246A      2.780282
     247A      2.794887   248A      2.797082   249A      2.824555
     250A      2.829879   251A      2.873848   252A      2.898523
     253A      2.906166   254A      2.922319   255A      2.963656
     256A      2.975238   257A      2.986035   258A      3.027172
     259A      3.051988   260A      3.073192   261A      3.092076
     262A      3.113259   263A      3.196892   264A      3.284098
     265A      3.359445   266A      3.724224   267A      3.924858

    Final Occupation by Irrep:
              A
    DOCC [    48 ]

  @RHF Final Energy:  -518.80329043856045

   => Energetics <=

    Nuclear Repulsion Energy =            759.0131573908063274
    One-Electron Energy =               -2207.7720343959595084
    Two-Electron Energy =                 929.9555865665927286
    Total Energy =                       -518.8032904385604525

Computation Completed

Properties will be evaluated at   0.000000,   0.000000,   0.000000 [a0]

Properties computed using the SCF density matrix

  Nuclear Dipole Moment: [e a0]
     X:   -14.9397      Y:    -2.2761      Z:     0.2852

  Electronic Dipole Moment: [e a0]
     X:    14.7947      Y:     2.9703      Z:    -0.0320

  Dipole Moment: [e a0]
     X:    -0.1450      Y:     0.6942      Z:     0.2532     Total:     0.7530

  Dipole Moment: [D]
     X:    -0.3685      Y:     1.7645      Z:     0.6435     Total:     1.9140

*** tstop() called on ds3 at Sun Apr 26 22:04:04 2020
Module time:
	user time   =     281.12 seconds =       4.69 minutes
	system time =     106.54 seconds =       1.78 minutes
	total time  =        377 seconds =       6.28 minutes
Total time:
	user time   =     281.12 seconds =       4.69 minutes
	system time =     106.54 seconds =       1.78 minutes
	total time  =        377 seconds =       6.28 minutes
                                     G D M A

                                 by Anthony Stone

                           version 2.2.06, 22 June 2011

               Distributed Multipoles from Gaussian wavefunctions

Starting at 22:4:4 on 26 Apr 2020

Using SCF density matrix from file ./SSI/SSI-113TRP-178ILE-1-dimer.test.15232.fchk

                         Distributed Multipole Analysis

Standard DMA

Positions and radii in angstrom
Multipole moments in atomic units, ea_0^k for rank k

C          x =  0.539709  y =  1.459868  z = -2.998372 angstrom
           Maximum rank =  0   Radius =  0.650 angstrom
                   Q00  =  -0.208201

C          x = -0.100291  y =  2.018868  z = -0.610372 angstrom
           Maximum rank =  0   Radius =  0.650 angstrom
                   Q00  =   0.086555

C          x =  0.473709  y =  1.199868  z = -1.523372 angstrom
           Maximum rank =  0   Radius =  0.650 angstrom
                   Q00  =  -0.124213

C          x =  0.895709  y =  0.414868  z =  0.612628 angstrom
           Maximum rank =  0   Radius =  0.650 angstrom
                   Q00  =   0.274958

C          x =  1.113709  y =  0.133868  z = -0.765372 angstrom
           Maximum rank =  0   Radius =  0.650 angstrom
                   Q00  =  -0.063001

C          x =  1.384709  y = -0.404132  z =  1.622628 angstrom
           Maximum rank =  0   Radius =  0.650 angstrom
                   Q00  =  -0.121393

C          x =  1.863709  y = -1.014132  z = -1.104372 angstrom
           Maximum rank =  0   Radius =  0.650 angstrom
                   Q00  =  -0.090922

C          x =  2.109709  y = -1.533132  z =  1.267628 angstrom
           Maximum rank =  0   Radius =  0.650 angstrom
                   Q00  =  -0.037775

C          x =  2.351709  y = -1.847132  z = -0.077372 angstrom
           Maximum rank =  0   Radius =  0.650 angstrom
                   Q00  =  -0.100903

N          x =  0.150709  y =  1.570868  z =  0.671628 angstrom
           Maximum rank =  0   Radius =  0.650 angstrom
                   Q00  =  -0.500231

H          x = -0.626291  y =  2.926868  z = -0.866372 angstrom
           Maximum rank =  0   Radius =  0.325 angstrom
                   Q00  =   0.101076

H          x = -0.050291  y =  2.108868  z =  1.517628 angstrom
           Maximum rank =  0   Radius =  0.325 angstrom
                   Q00  =   0.220321

H          x =  1.564709  y =  1.443868  z = -3.339372 angstrom
           Maximum rank =  0   Radius =  0.325 angstrom
                   Q00  =   0.103468

H          x =  0.184709  y =  2.480868  z = -3.148372 angstrom
           Maximum rank =  0   Radius =  0.325 angstrom
                   Q00  =   0.097549

H          x =  1.176709  y = -0.177132  z =  2.658628 angstrom
           Maximum rank =  0   Radius =  0.325 angstrom
                   Q00  =   0.071580

H          x =  2.072709  y = -1.251132  z = -2.134372 angstrom
           Maximum rank =  0   Radius =  0.325 angstrom
                   Q00  =   0.071946

H          x =  2.490709  y = -2.185132  z =  2.040628 angstrom
           Maximum rank =  0   Radius =  0.325 angstrom
                   Q00  =   0.065921

H          x =  2.921709  y = -2.729132  z = -0.333372 angstrom
           Maximum rank =  0   Radius =  0.325 angstrom
                   Q00  =   0.063473

H          x = -0.049581  y =  0.790458  z = -3.642289 angstrom
           Maximum rank =  0   Radius =  0.325 angstrom
                   Q00  =   0.097929

C          x = -2.782291  y = -0.269132  z =  0.816628 angstrom
           Maximum rank =  0   Radius =  0.650 angstrom
                   Q00  =  -0.078903

C          x = -3.800291  y = -0.778132  z = -0.219372 angstrom
           Maximum rank =  0   Radius =  0.650 angstrom
                   Q00  =  -0.237836

C          x = -2.887291  y = -1.011132  z =  2.169628 angstrom
           Maximum rank =  0   Radius =  0.650 angstrom
                   Q00  =  -0.257498

H          x = -1.777291  y = -0.412132  z =  0.421628 angstrom
           Maximum rank =  0   Radius =  0.325 angstrom
                   Q00  =   0.067139

H          x = -2.935291  y =  0.793868  z =  1.006628 angstrom
           Maximum rank =  0   Radius =  0.325 angstrom
                   Q00  =   0.036357

H          x = -4.801291  y = -0.648132  z =  0.196628 angstrom
           Maximum rank =  0   Radius =  0.325 angstrom
                   Q00  =   0.068424

H          x = -2.573291  y = -2.049132  z =  2.067628 angstrom
           Maximum rank =  0   Radius =  0.325 angstrom
                   Q00  =   0.082931

H          x = -2.224291  y = -0.533132  z =  2.890628 angstrom
           Maximum rank =  0   Radius =  0.325 angstrom
                   Q00  =   0.074656

H          x = -3.909291  y = -0.967132  z =  2.544628 angstrom
           Maximum rank =  0   Radius =  0.325 angstrom
                   Q00  =   0.072651

H          x = -3.723711  y = -0.167622  z = -1.131193 angstrom
           Maximum rank =  0   Radius =  0.325 angstrom
                   Q00  =   0.082527

H          x = -3.676351  y = -1.848002  z = -0.443032 angstrom
           Maximum rank =  0   Radius =  0.325 angstrom
                   Q00  =   0.081415

Total multipoles referred to origin at
           x =   0.000000,  y =    0.000000,  z =    0.000000 angstrom
                   Q00  =  -0.000000

Finished at 22:4:4 on 26 Apr 2020

  DMA results are available in the Python driver through the
	  variable('DMA DISTRIBUTED MULTIPOLES')
  and
	  variable('DMA TOTAL MULTIPOLES')
  commands.

    Psi4 stopped on: Sunday, 26 April 2020 10:04PM
    Psi4 wall time for execution: 0:06:17.44

*** Psi4 exiting successfully. Buy a developer a beer!
