                               Psi4 1.3.2 release

  ==> Input File <==

--------------------------------------------------------------------------
import numpy as np
set {scf_type pk
basis cc-pvdz
d_convergence 10
gdma_switch   0
gdma_limit    0
gdma_origin   [ 0.0,  0.0,  0.0 ]
}
molecule test {
    units Angstrom
    0 1
    --
    0 1
    C                2.909268013288745    -0.713980973175475     0.029122961618192
    C                3.252268013288746    -0.520980973175475     1.514122961618192
    H                2.172268013288746    -1.508980973175475    -0.088877038381808
    H                2.492268013288746     0.209019026824525    -0.370877038381808
    H                3.798268013288745    -0.956980973175475    -0.551877038381808
    H                4.033268013288745     0.223019026824525     1.551122961618193
    H                3.585488013288745    -1.478530973175475     1.940812961618192
    H                2.364798013288746    -0.149580973175475     2.047472961618193
    C               -2.248731986711254     0.899019026824525     1.500122961618192
    C               -0.604731986711254    -0.877980973175475    -1.205877038381808
    C               -1.455731986711254     0.485019026824525     0.297122961618192
    C               -0.832731986711254     1.239019026824525    -0.644877038381808
    N               -1.300731986711254    -0.834980973175475    -0.073877038381808
    N               -0.310731986711254     0.364019026824525    -1.572877038381808
    H               -0.328731986711254    -1.774980973175475    -1.744877038381808
    H                0.208268013288746     0.614019026824525    -2.406877038381808
    H               -0.788731986711254     2.319019026824525    -0.678877038381808
    H               -1.837731986711255     1.826019026824525     1.897122961618192
    H               -2.128731986711254     0.130019026824525     2.264122961618193
    H               -3.320751986711255     1.017809026824525     1.284132961618192

}
e, wfn = energy('scf', return_wfn=True)
gdma(wfn)
dmavals = variable('DMA DISTRIBUTED MULTIPOLES')
charges = np.array(dmavals)
print(charges)
np.save('SSI-081VAL-149HIE-1-dimer.npy', np.array(charges))--------------------------------------------------------------------------

*** tstart() called on ds3
*** at Sun Apr 26 20:03:41 2020

   => Loading Basis Set <=

    Name: CC-PVDZ
    Role: ORBITAL
    Keyword: BASIS
    atoms 1-2, 9-12  entry C          line   138 file /theoryfs2/ds/metcalf/miniconda2/envs/tf2gpu/share/psi4/basis/cc-pvdz.gbs
    atoms 3-8, 15-20 entry H          line    22 file /theoryfs2/ds/metcalf/miniconda2/envs/tf2gpu/share/psi4/basis/cc-pvdz.gbs
    atoms 13-14      entry N          line   168 file /theoryfs2/ds/metcalf/miniconda2/envs/tf2gpu/share/psi4/basis/cc-pvdz.gbs

         ---------------------------------------------------------
                                   SCF
               by Justin Turney, Rob Parrish, Andy Simmonett
                          and Daniel G. A. Smith
                              RHF Reference
                        1 Threads,    500 MiB Core
         ---------------------------------------------------------

  ==> Geometry <==

    Molecular point group: c1
    Full point group: C1

    Geometry (in Angstrom), charge = 0, multiplicity = 1:

       Center              X                  Y                   Z               Mass
    ------------   -----------------  -----------------  -----------------  -----------------
         C            2.909268013289    -0.713980973175     0.029122961618    12.000000000000
         C            3.252268013289    -0.520980973175     1.514122961618    12.000000000000
         H            2.172268013289    -1.508980973175    -0.088877038382     1.007825032230
         H            2.492268013289     0.209019026825    -0.370877038382     1.007825032230
         H            3.798268013289    -0.956980973175    -0.551877038382     1.007825032230
         H            4.033268013289     0.223019026825     1.551122961618     1.007825032230
         H            3.585488013289    -1.478530973175     1.940812961618     1.007825032230
         H            2.364798013289    -0.149580973175     2.047472961618     1.007825032230
         C           -2.248731986711     0.899019026825     1.500122961618    12.000000000000
         C           -0.604731986711    -0.877980973175    -1.205877038382    12.000000000000
         C           -1.455731986711     0.485019026825     0.297122961618    12.000000000000
         C           -0.832731986711     1.239019026825    -0.644877038382    12.000000000000
         N           -1.300731986711    -0.834980973175    -0.073877038382    14.003074004430
         N           -0.310731986711     0.364019026825    -1.572877038382    14.003074004430
         H           -0.328731986711    -1.774980973175    -1.744877038382     1.007825032230
         H            0.208268013289     0.614019026825    -2.406877038382     1.007825032230
         H           -0.788731986711     2.319019026825    -0.678877038382     1.007825032230
         H           -1.837731986711     1.826019026825     1.897122961618     1.007825032230
         H           -2.128731986711     0.130019026825     2.264122961618     1.007825032230
         H           -3.320751986711     1.017809026825     1.284132961618     1.007825032230

  Running in c1 symmetry.

  Rotational constants: A =      0.08537  B =      0.03278  C =      0.02805 [cm^-1]
  Rotational constants: A =   2559.37601  B =    982.66496  C =    840.95945 [MHz]
  Nuclear repulsion =  356.997339757885356

  Charge       = 0
  Multiplicity = 1
  Electrons    = 62
  Nalpha       = 31
  Nbeta        = 31

  ==> Algorithm <==

  SCF Algorithm Type is PK.
  DIIS enabled.
  MOM disabled.
  Fractional occupation disabled.
  Guess Type is SAD.
  Energy threshold   = 1.00e-06
  Density threshold  = 1.00e-10
  Integral threshold = 0.00e+00

  ==> Primary Basis <==

  Basis Set: CC-PVDZ
    Blend: CC-PVDZ
    Number of shells: 84
    Number of basis function: 172
    Number of Cartesian functions: 180
    Spherical Harmonics?: true
    Max angular momentum: 2

  ==> Pre-Iterations <==

   -------------------------------------------------------
    Irrep   Nso     Nmo     Nalpha   Nbeta   Ndocc  Nsocc
   -------------------------------------------------------
     A        172     172       0       0       0       0
   -------------------------------------------------------
    Total     172     172      31      31      31       0
   -------------------------------------------------------

  ==> Integral Setup <==

  Using integral reordering PK algorithm.
  Sizing the integral batches needed.
  Building batch lookup table.
   Calculation information:
      Number of atoms:                  20
      Number of AO shells:              84
      Number of primitives:            236
      Number of atomic orbitals:       180
      Number of basis functions:       172

      Integral cutoff                 1.00e-12
      Number of threads:                 1

	Batch   1 pq = [       0,    9405] index = [             0,44231715] size =     44231715
	Batch   2 pq = [    9405,   13301] index = [      44231715,88464951] size =     44233236
	Batch   3 pq = [   13301,   14878] index = [      88464951,110684881] size =     22219930
  Task number: 11
  Buffer size: 11059200
  Buffer per thread: 2
  We computed 5517076 shell quartets total.
  Whereas there are 6374235 unique shell quartets.

  ==> DiskJK: Disk-Based J/K Matrices <==

    J tasked:                  Yes
    K tasked:                  Yes
    wK tasked:                  No
    Memory [MiB]:              375
    Schwarz Cutoff:          1E-12

    OpenMP threads:              1

  Minimum eigenvalue in the overlap matrix is 1.1916389771E-03.
  Using Symmetric Orthogonalization.

  SCF Guess: Superposition of Atomic Densities via on-the-fly atomic UHF.

  ==> Iterations <==

                        Total Energy        Delta E     RMS |[F,P]|

   @RHF iter SAD:  -342.18969635728280   -3.42190e+02   0.00000e+00
   @RHF iter   1:  -342.88804702529802   -6.98351e-01   3.36768e-03 DIIS
   @RHF iter   2:  -343.05957708472926   -1.71530e-01   1.72165e-03 DIIS
   @RHF iter   3:  -343.10104429589103   -4.14672e-02   4.35554e-04 DIIS
   @RHF iter   4:  -343.10453169976148   -3.48740e-03   1.81375e-04 DIIS
   @RHF iter   5:  -343.10509221342704   -5.60514e-04   2.66749e-05 DIIS
   @RHF iter   6:  -343.10511300953891   -2.07961e-05   1.15408e-05 DIIS
   @RHF iter   7:  -343.10511641051926   -3.40098e-06   4.01100e-06 DIIS
   @RHF iter   8:  -343.10511713682655   -7.26307e-07   1.61091e-06 DIIS
   @RHF iter   9:  -343.10511729379164   -1.56965e-07   5.77719e-07 DIIS
   @RHF iter  10:  -343.10511730927931   -1.54877e-08   1.80275e-07 DIIS
   @RHF iter  11:  -343.10511731107823   -1.79892e-09   7.95200e-08 DIIS
   @RHF iter  12:  -343.10511731132908   -2.50850e-10   3.16278e-08 DIIS
   @RHF iter  13:  -343.10511731137257   -4.34852e-11   8.66503e-09 DIIS
   @RHF iter  14:  -343.10511731137905   -6.48015e-12   3.30529e-09 DIIS
   @RHF iter  15:  -343.10511731137842    6.25278e-13   1.31293e-09 DIIS
   @RHF iter  16:  -343.10511731137814    2.84217e-13   4.14476e-10 DIIS
   @RHF iter  17:  -343.10511731137740    7.38964e-13   1.25246e-10 DIIS
   @RHF iter  18:  -343.10511731137768   -2.84217e-13   4.44227e-11 DIIS
  Energy and wave function converged.

  ==> Post-Iterations <==

    Orbital Energies [Eh]
    ---------------------

    Doubly Occupied:

       1A    -15.620748     2A    -15.527923     3A    -11.292145
       4A    -11.250090     5A    -11.241270     6A    -11.223153
       7A    -11.214630     8A    -11.212776     9A     -1.340942
      10A     -1.152726    11A     -1.030485    12A     -1.013448
      13A     -0.940924    14A     -0.832968    15A     -0.817554
      16A     -0.761283    17A     -0.740780    18A     -0.609859
      19A     -0.605380    20A     -0.597501    21A     -0.596535
      22A     -0.590478    23A     -0.553502    24A     -0.538884
      25A     -0.520142    26A     -0.492723    27A     -0.484753
      28A     -0.481093    29A     -0.410320    30A     -0.377544
      31A     -0.309229

    Virtual:

      32A      0.167736    33A      0.183467    34A      0.193401
      35A      0.203294    36A      0.217885    37A      0.226791
      38A      0.239804    39A      0.249581    40A      0.264786
      41A      0.269596    42A      0.279112    43A      0.286352
      44A      0.302004    45A      0.313705    46A      0.375039
      47A      0.385652    48A      0.402451    49A      0.416183
      50A      0.471569    51A      0.485626    52A      0.594690
      53A      0.601449    54A      0.604738    55A      0.609340
      56A      0.628529    57A      0.649548    58A      0.657539
      59A      0.673839    60A      0.681622    61A      0.709043
      62A      0.738598    63A      0.754542    64A      0.778788
      65A      0.806604    66A      0.827053    67A      0.839472
      68A      0.848149    69A      0.861424    70A      0.877569
      71A      0.897171    72A      0.899079    73A      0.904215
      74A      0.911627    75A      0.916899    76A      0.928162
      77A      0.933915    78A      0.951070    79A      0.966049
      80A      0.972274    81A      0.998395    82A      1.025962
      83A      1.083655    84A      1.085846    85A      1.106660
      86A      1.122270    87A      1.126632    88A      1.147970
      89A      1.170775    90A      1.177448    91A      1.242509
      92A      1.249596    93A      1.277143    94A      1.305449
      95A      1.319953    96A      1.341188    97A      1.423838
      98A      1.446682    99A      1.477771   100A      1.483352
     101A      1.493172   102A      1.526320   103A      1.550856
     104A      1.579978   105A      1.613502   106A      1.638129
     107A      1.679300   108A      1.691048   109A      1.702561
     110A      1.734365   111A      1.774094   112A      1.805403
     113A      1.833629   114A      1.855875   115A      1.862967
     116A      1.879623   117A      1.899796   118A      1.905952
     119A      1.925064   120A      1.934793   121A      1.949782
     122A      1.952093   123A      1.953080   124A      1.957071
     125A      1.961627   126A      1.974222   127A      1.984461
     128A      1.991508   129A      2.053731   130A      2.088802
     131A      2.098210   132A      2.111780   133A      2.131300
     134A      2.150059   135A      2.204275   136A      2.231945
     137A      2.240910   138A      2.279418   139A      2.296496
     140A      2.322948   141A      2.336161   142A      2.371102
     143A      2.433533   144A      2.449299   145A      2.459582
     146A      2.472778   147A      2.501063   148A      2.561981
     149A      2.566164   150A      2.590059   151A      2.607898
     152A      2.693641   153A      2.727231   154A      2.751081
     155A      2.777088   156A      2.780814   157A      2.793900
     158A      2.799152   159A      2.837953   160A      2.843785
     161A      2.849906   162A      2.857341   163A      2.890439
     164A      2.918863   165A      2.954739   166A      2.972530
     167A      2.986229   168A      3.064113   169A      3.157127
     170A      3.232471   171A      3.471378   172A      3.797273

    Final Occupation by Irrep:
              A
    DOCC [    31 ]

  @RHF Final Energy:  -343.10511731137768

   => Energetics <=

    Nuclear Repulsion Energy =            356.9973397578853564
    One-Electron Energy =               -1171.4413336427487593
    Two-Electron Energy =                 471.3388765734857202
    Total Energy =                       -343.1051173113776827

Computation Completed

Properties will be evaluated at   0.000000,   0.000000,   0.000000 [a0]

Properties computed using the SCF density matrix

  Nuclear Dipole Moment: [e a0]
     X:     9.6137      Y:     0.4419      Z:     4.8257

  Electronic Dipole Moment: [e a0]
     X:    -9.0629      Y:     0.2780      Z:    -5.8031

  Dipole Moment: [e a0]
     X:     0.5508      Y:     0.7198      Z:    -0.9773     Total:     1.3329

  Dipole Moment: [D]
     X:     1.3999      Y:     1.8296      Z:    -2.4841     Total:     3.3879

*** tstop() called on ds3 at Sun Apr 26 20:04:36 2020
Module time:
	user time   =      39.35 seconds =       0.66 minutes
	system time =      17.11 seconds =       0.29 minutes
	total time  =         55 seconds =       0.92 minutes
Total time:
	user time   =      39.35 seconds =       0.66 minutes
	system time =      17.11 seconds =       0.29 minutes
	total time  =         55 seconds =       0.92 minutes
                                     G D M A

                                 by Anthony Stone

                           version 2.2.06, 22 June 2011

               Distributed Multipoles from Gaussian wavefunctions

Starting at 20:4:37 on 26 Apr 2020

Using SCF density matrix from file ./SSI/SSI-081VAL-149HIE-1-dimer.test.10744.fchk

                         Distributed Multipole Analysis

Standard DMA

Positions and radii in angstrom
Multipole moments in atomic units, ea_0^k for rank k

C          x =  2.909268  y = -0.713981  z =  0.029123 angstrom
           Maximum rank =  0   Radius =  0.650 angstrom
                   Q00  =  -0.242810

C          x =  3.252268  y = -0.520981  z =  1.514123 angstrom
           Maximum rank =  0   Radius =  0.650 angstrom
                   Q00  =  -0.228629

H          x =  2.172268  y = -1.508981  z = -0.088877 angstrom
           Maximum rank =  0   Radius =  0.325 angstrom
                   Q00  =   0.084686

H          x =  2.492268  y =  0.209019  z = -0.370877 angstrom
           Maximum rank =  0   Radius =  0.325 angstrom
                   Q00  =   0.072905

H          x =  3.798268  y = -0.956981  z = -0.551877 angstrom
           Maximum rank =  0   Radius =  0.325 angstrom
                   Q00  =   0.071274

H          x =  4.033268  y =  0.223019  z =  1.551123 angstrom
           Maximum rank =  0   Radius =  0.325 angstrom
                   Q00  =   0.075514

H          x =  3.585488  y = -1.478531  z =  1.940813 angstrom
           Maximum rank =  0   Radius =  0.325 angstrom
                   Q00  =   0.079846

H          x =  2.364798  y = -0.149581  z =  2.047473 angstrom
           Maximum rank =  0   Radius =  0.325 angstrom
                   Q00  =   0.085933

C          x = -2.248732  y =  0.899019  z =  1.500123 angstrom
           Maximum rank =  0   Radius =  0.650 angstrom
                   Q00  =  -0.197031

C          x = -0.604732  y = -0.877981  z = -1.205877 angstrom
           Maximum rank =  0   Radius =  0.650 angstrom
                   Q00  =   0.464685

C          x = -1.455732  y =  0.485019  z =  0.297123 angstrom
           Maximum rank =  0   Radius =  0.650 angstrom
                   Q00  =   0.228310

C          x = -0.832732  y =  1.239019  z = -0.644877 angstrom
           Maximum rank =  0   Radius =  0.650 angstrom
                   Q00  =  -0.002918

N          x = -1.300732  y = -0.834981  z = -0.073877 angstrom
           Maximum rank =  0   Radius =  0.650 angstrom
                   Q00  =  -0.773676

N          x = -0.310732  y =  0.364019  z = -1.572877 angstrom
           Maximum rank =  0   Radius =  0.650 angstrom
                   Q00  =  -0.478786

H          x = -0.328732  y = -1.774981  z = -1.744877 angstrom
           Maximum rank =  0   Radius =  0.325 angstrom
                   Q00  =   0.124019

H          x =  0.208268  y =  0.614019  z = -2.406877 angstrom
           Maximum rank =  0   Radius =  0.325 angstrom
                   Q00  =   0.220303

H          x = -0.788732  y =  2.319019  z = -0.678877 angstrom
           Maximum rank =  0   Radius =  0.325 angstrom
                   Q00  =   0.100098

H          x = -1.837732  y =  1.826019  z =  1.897123 angstrom
           Maximum rank =  0   Radius =  0.325 angstrom
                   Q00  =   0.093441

H          x = -2.128732  y =  0.130019  z =  2.264123 angstrom
           Maximum rank =  0   Radius =  0.325 angstrom
                   Q00  =   0.117764

H          x = -3.320752  y =  1.017809  z =  1.284133 angstrom
           Maximum rank =  0   Radius =  0.325 angstrom
                   Q00  =   0.105072

Total multipoles referred to origin at
           x =   0.000000,  y =    0.000000,  z =    0.000000 angstrom
                   Q00  =  -0.000000

Finished at 20:4:37 on 26 Apr 2020

  DMA results are available in the Python driver through the
	  variable('DMA DISTRIBUTED MULTIPOLES')
  and
	  variable('DMA TOTAL MULTIPOLES')
  commands.

    Psi4 stopped on: Sunday, 26 April 2020 08:04PM
    Psi4 wall time for execution: 0:00:55.34

*** Psi4 exiting successfully. Buy a developer a beer!
