                               Psi4 1.3.2 release

  ==> Input File <==

--------------------------------------------------------------------------
import numpy as np
set {scf_type pk
basis cc-pvdz
d_convergence 10
gdma_switch   0
gdma_limit    0
gdma_origin   [ 0.0,  0.0,  0.0 ]
}
molecule test {
    units Angstrom
    0 1
    --
    0 1
    C                2.717036874974546    -0.228603153031765     0.109758009528324
    C               -0.887963125025453     0.915396846968235    -0.126241990471676
    C                0.303036874974546     0.246396846968235    -0.382241990471676
    C               -0.954963125025454     1.842396846968235     0.901758009528324
    C                1.430036874974547     0.490396846968235     0.391758009528324
    C                0.170036874974546     2.091396846968235     1.679758009528324
    C                1.360036874974547     1.421396846968235     1.421758009528324
    H               -1.753963125025453     0.685396846968235    -0.718241990471676
    H                0.349036874974546    -0.470603153031765    -1.189241990471676
    H               -1.879963125025453     2.359396846968235     1.115758009528324
    H                0.124036874974546     2.812396846968234     2.481758009528324
    H                3.538036874974547     0.439396846968235     0.377758009528324
    H                2.799036874974546    -0.436603153031765    -0.954241990471676
    H                2.229036874974546     1.629396846968235     2.027758009528324
    H                2.829349874974547    -1.187586153031766     0.636768009528324
    C               -2.173963125025454    -2.187603153031765    -1.843241990471676
    C               -1.677963125025453    -3.618603153031766    -1.600241990471676
    H               -3.251963125025453    -2.201603153031765    -2.006241990471676
    H               -1.964963125025453    -1.580603153031765    -0.963241990471676
    H               -1.702963125025453    -1.737603153031765    -2.717241990471676
    H               -1.984963125025453    -4.227603153031765    -2.450241990471675
    H               -0.580379125025454    -3.632894603031765    -1.528781990471676
    H               -2.146774125025454    -4.031128253031765    -0.694681990471676

}
e, wfn = energy('scf', return_wfn=True)
gdma(wfn)
dmavals = variable('DMA DISTRIBUTED MULTIPOLES')
charges = np.array(dmavals)
print(charges)
np.save('SSI-021PHE-131VAL-1-dimer.npy', np.array(charges))--------------------------------------------------------------------------

*** tstart() called on ds3
*** at Tue Apr 28 03:51:16 2020

   => Loading Basis Set <=

    Name: CC-PVDZ
    Role: ORBITAL
    Keyword: BASIS
    atoms 1-7, 16-17  entry C          line   138 file /theoryfs2/ds/metcalf/miniconda2/envs/tf2gpu/share/psi4/basis/cc-pvdz.gbs
    atoms 8-15, 18-23 entry H          line    22 file /theoryfs2/ds/metcalf/miniconda2/envs/tf2gpu/share/psi4/basis/cc-pvdz.gbs

         ---------------------------------------------------------
                                   SCF
               by Justin Turney, Rob Parrish, Andy Simmonett
                          and Daniel G. A. Smith
                              RHF Reference
                        1 Threads,    500 MiB Core
         ---------------------------------------------------------

  ==> Geometry <==

    Molecular point group: c1
    Full point group: C1

    Geometry (in Angstrom), charge = 0, multiplicity = 1:

       Center              X                  Y                   Z               Mass
    ------------   -----------------  -----------------  -----------------  -----------------
         C            2.717036874975    -0.228603153032     0.109758009528    12.000000000000
         C           -0.887963125025     0.915396846968    -0.126241990472    12.000000000000
         C            0.303036874975     0.246396846968    -0.382241990472    12.000000000000
         C           -0.954963125025     1.842396846968     0.901758009528    12.000000000000
         C            1.430036874975     0.490396846968     0.391758009528    12.000000000000
         C            0.170036874975     2.091396846968     1.679758009528    12.000000000000
         C            1.360036874975     1.421396846968     1.421758009528    12.000000000000
         H           -1.753963125025     0.685396846968    -0.718241990472     1.007825032230
         H            0.349036874975    -0.470603153032    -1.189241990472     1.007825032230
         H           -1.879963125025     2.359396846968     1.115758009528     1.007825032230
         H            0.124036874975     2.812396846968     2.481758009528     1.007825032230
         H            3.538036874975     0.439396846968     0.377758009528     1.007825032230
         H            2.799036874975    -0.436603153032    -0.954241990472     1.007825032230
         H            2.229036874975     1.629396846968     2.027758009528     1.007825032230
         H            2.829349874975    -1.187586153032     0.636768009528     1.007825032230
         C           -2.173963125025    -2.187603153032    -1.843241990472    12.000000000000
         C           -1.677963125025    -3.618603153032    -1.600241990472    12.000000000000
         H           -3.251963125025    -2.201603153032    -2.006241990472     1.007825032230
         H           -1.964963125025    -1.580603153032    -0.963241990472     1.007825032230
         H           -1.702963125025    -1.737603153032    -2.717241990472     1.007825032230
         H           -1.984963125025    -4.227603153032    -2.450241990472     1.007825032230
         H           -0.580379125025    -3.632894603032    -1.528781990472     1.007825032230
         H           -2.146774125025    -4.031128253032    -0.694681990472     1.007825032230

  Running in c1 symmetry.

  Rotational constants: A =      0.07293  B =      0.02378  C =      0.01884 [cm^-1]
  Rotational constants: A =   2186.46488  B =    712.76087  C =    564.95805 [MHz]
  Nuclear repulsion =  403.817681796175691

  Charge       = 0
  Multiplicity = 1
  Electrons    = 68
  Nalpha       = 34
  Nbeta        = 34

  ==> Algorithm <==

  SCF Algorithm Type is PK.
  DIIS enabled.
  MOM disabled.
  Fractional occupation disabled.
  Guess Type is SAD.
  Energy threshold   = 1.00e-06
  Density threshold  = 1.00e-10
  Integral threshold = 0.00e+00

  ==> Primary Basis <==

  Basis Set: CC-PVDZ
    Blend: CC-PVDZ
    Number of shells: 96
    Number of basis function: 196
    Number of Cartesian functions: 205
    Spherical Harmonics?: true
    Max angular momentum: 2

  ==> Pre-Iterations <==

   -------------------------------------------------------
    Irrep   Nso     Nmo     Nalpha   Nbeta   Ndocc  Nsocc
   -------------------------------------------------------
     A        196     196       0       0       0       0
   -------------------------------------------------------
    Total     196     196      34      34      34       0
   -------------------------------------------------------

  ==> Integral Setup <==

  Using integral reordering PK algorithm.
  Sizing the integral batches needed.
  Building batch lookup table.
   Calculation information:
      Number of atoms:                  23
      Number of AO shells:              96
      Number of primitives:            268
      Number of atomic orbitals:       205
      Number of basis functions:       196

      Integral cutoff                 1.00e-12
      Number of threads:                 1

	Batch   1 pq = [       0,    9405] index = [             0,44231715] size =     44231715
	Batch   2 pq = [    9405,   13301] index = [      44231715,88464951] size =     44233236
	Batch   3 pq = [   13301,   16290] index = [      88464951,132690195] size =     44225244
	Batch   4 pq = [   16290,   18810] index = [     132690195,176917455] size =     44227260
	Batch   5 pq = [   18810,   19306] index = [     176917455,186370471] size =      9453016
  Task number: 17
  Buffer size: 11059200
  Buffer per thread: 2
  We computed 9065307 shell quartets total.
  Whereas there are 10841496 unique shell quartets.

  ==> DiskJK: Disk-Based J/K Matrices <==

    J tasked:                  Yes
    K tasked:                  Yes
    wK tasked:                  No
    Memory [MiB]:              375
    Schwarz Cutoff:          1E-12

    OpenMP threads:              1

  Minimum eigenvalue in the overlap matrix is 3.0064852103E-04.
  Using Symmetric Orthogonalization.

  SCF Guess: Superposition of Atomic Densities via on-the-fly atomic UHF.

  ==> Iterations <==

                        Total Energy        Delta E     RMS |[F,P]|

   @RHF iter SAD:  -347.92581308897843   -3.47926e+02   0.00000e+00
   @RHF iter   1:  -348.76629619370135   -8.40483e-01   2.89888e-03 DIIS
   @RHF iter   2:  -348.95941567753761   -1.93119e-01   1.20280e-03 DIIS
   @RHF iter   3:  -348.98970377129888   -3.02881e-02   2.60954e-04 DIIS
   @RHF iter   4:  -348.99219731013159   -2.49354e-03   5.76496e-05 DIIS
   @RHF iter   5:  -348.99228148028499   -8.41702e-05   1.93822e-05 DIIS
   @RHF iter   6:  -348.99229063071903   -9.15043e-06   4.96973e-06 DIIS
   @RHF iter   7:  -348.99229133790391   -7.07185e-07   1.20925e-06 DIIS
   @RHF iter   8:  -348.99229138390376   -4.59999e-08   2.76033e-07 DIIS
   @RHF iter   9:  -348.99229138762928   -3.72552e-09   9.73874e-08 DIIS
   @RHF iter  10:  -348.99229138818544   -5.56156e-10   4.18413e-08 DIIS
   @RHF iter  11:  -348.99229138834795   -1.62515e-10   1.52040e-08 DIIS
   @RHF iter  12:  -348.99229138837609   -2.81375e-11   7.11389e-09 DIIS
   @RHF iter  13:  -348.99229138838479   -8.69704e-12   3.23808e-09 DIIS
   @RHF iter  14:  -348.99229138838410    6.82121e-13   7.46970e-10 DIIS
   @RHF iter  15:  -348.99229138838331    7.95808e-13   3.21838e-10 DIIS
   @RHF iter  16:  -348.99229138838604   -2.72848e-12   9.23044e-11 DIIS
  Energy and wave function converged.

  ==> Post-Iterations <==

    Orbital Energies [Eh]
    ---------------------

    Doubly Occupied:

       1A    -11.238417     2A    -11.234151     3A    -11.232758
       4A    -11.229858     5A    -11.229066     6A    -11.228121
       7A    -11.227906     8A    -11.220504     9A    -11.217230
      10A     -1.154485    11A     -1.045265    12A     -1.018409
      13A     -1.012212    14A     -0.931172    15A     -0.838056
      16A     -0.825370    17A     -0.796252    18A     -0.691860
      19A     -0.632416    20A     -0.629996    21A     -0.600410
      22A     -0.598746    23A     -0.581557    24A     -0.575919
      25A     -0.562471    26A     -0.534479    27A     -0.499794
      28A     -0.490587    29A     -0.488511    30A     -0.484676
      31A     -0.483573    32A     -0.479409    33A     -0.331986
      34A     -0.322384

    Virtual:

      35A      0.137044    36A      0.139626    37A      0.172180
      38A      0.196295    39A      0.200772    40A      0.220094
      41A      0.235562    42A      0.239989    43A      0.258109
      44A      0.262604    45A      0.265602    46A      0.278836
      47A      0.283098    48A      0.290533    49A      0.311172
      50A      0.322723    51A      0.369084    52A      0.381520
      53A      0.397431    54A      0.453263    55A      0.462050
      56A      0.483194    57A      0.492578    58A      0.559645
      59A      0.592684    60A      0.599560    61A      0.620332
      62A      0.625004    63A      0.638720    64A      0.675401
      65A      0.685141    66A      0.693624    67A      0.702231
      68A      0.716905    69A      0.723235    70A      0.742020
      71A      0.745070    72A      0.747429    73A      0.766147
      74A      0.777282    75A      0.778047    76A      0.817229
      77A      0.839808    78A      0.843937    79A      0.865244
      80A      0.870052    81A      0.879234    82A      0.881370
      83A      0.888631    84A      0.892861    85A      0.897183
      86A      0.903525    87A      0.914078    88A      0.921323
      89A      0.932509    90A      0.937838    91A      0.952044
      92A      0.961733    93A      0.985521    94A      1.003061
      95A      1.023488    96A      1.059689    97A      1.117067
      98A      1.126106    99A      1.133160   100A      1.151773
     101A      1.159970   102A      1.173159   103A      1.196988
     104A      1.229507   105A      1.247957   106A      1.253946
     107A      1.258705   108A      1.282226   109A      1.306961
     110A      1.319518   111A      1.323244   112A      1.334328
     113A      1.413811   114A      1.470794   115A      1.487600
     116A      1.516212   117A      1.518674   118A      1.554442
     119A      1.590029   120A      1.611186   121A      1.677629
     122A      1.683360   123A      1.697943   124A      1.705412
     125A      1.741864   126A      1.753879   127A      1.758547
     128A      1.790323   129A      1.812512   130A      1.858806
     131A      1.861875   132A      1.874862   133A      1.892106
     134A      1.900534   135A      1.905360   136A      1.915936
     137A      1.917835   138A      1.922602   139A      1.937791
     140A      1.944088   141A      1.946962   142A      1.954071
     143A      1.959753   144A      1.965363   145A      1.974379
     146A      1.985533   147A      2.000205   148A      2.010340
     149A      2.045704   150A      2.071710   151A      2.075997
     152A      2.088958   153A      2.113432   154A      2.128503
     155A      2.154519   156A      2.162605   157A      2.172201
     158A      2.187426   159A      2.197423   160A      2.264049
     161A      2.286817   162A      2.296466   163A      2.299906
     164A      2.304205   165A      2.311223   166A      2.320828
     167A      2.334200   168A      2.450380   169A      2.472150
     170A      2.480587   171A      2.482760   172A      2.504978
     173A      2.549749   174A      2.558541   175A      2.584537
     176A      2.624059   177A      2.746350   178A      2.764156
     179A      2.766155   180A      2.770123   181A      2.789582
     182A      2.802105   183A      2.826638   184A      2.844716
     185A      2.854101   186A      2.858396   187A      2.875816
     188A      2.949558   189A      2.977239   190A      2.993645
     191A      3.022839   192A      3.029131   193A      3.166545
     194A      3.216953   195A      3.309101   196A      3.985865

    Final Occupation by Irrep:
              A
    DOCC [    34 ]

  @RHF Final Energy:  -348.99229138838604

   => Energetics <=

    Nuclear Repulsion Energy =            403.8176817961756910
    One-Electron Energy =               -1270.2839340690779864
    Two-Electron Energy =                 517.4739608845161456
    Total Energy =                       -348.9922913883860929

Computation Completed

Properties will be evaluated at   0.000000,   0.000000,   0.000000 [a0]

Properties computed using the SCF density matrix

  Nuclear Dipole Moment: [e a0]
     X:    -3.1850      Y:   -10.8561      Z:    -6.1708

  Electronic Dipole Moment: [e a0]
     X:     3.2731      Y:    10.7993      Z:     6.1657

  Dipole Moment: [e a0]
     X:     0.0882      Y:    -0.0569      Z:    -0.0050     Total:     0.1050

  Dipole Moment: [D]
     X:     0.2241      Y:    -0.1445      Z:    -0.0128     Total:     0.2670

*** tstop() called on ds3 at Tue Apr 28 03:52:41 2020
Module time:
	user time   =      61.75 seconds =       1.03 minutes
	system time =      26.63 seconds =       0.44 minutes
	total time  =         85 seconds =       1.42 minutes
Total time:
	user time   =      61.75 seconds =       1.03 minutes
	system time =      26.63 seconds =       0.44 minutes
	total time  =         85 seconds =       1.42 minutes
                                     G D M A

                                 by Anthony Stone

                           version 2.2.06, 22 June 2011

               Distributed Multipoles from Gaussian wavefunctions

Starting at 3:52:41 on 28 Apr 2020

Using SCF density matrix from file ./SSI/SSI-021PHE-131VAL-1-dimer.test.25982.fchk

                         Distributed Multipole Analysis

Standard DMA

Positions and radii in angstrom
Multipole moments in atomic units, ea_0^k for rank k

C          x =  2.717037  y = -0.228603  z =  0.109758 angstrom
           Maximum rank =  0   Radius =  0.650 angstrom
                   Q00  =  -0.200050

C          x = -0.887963  y =  0.915397  z = -0.126242 angstrom
           Maximum rank =  0   Radius =  0.650 angstrom
                   Q00  =  -0.078729

C          x =  0.303037  y =  0.246397  z = -0.382242 angstrom
           Maximum rank =  0   Radius =  0.650 angstrom
                   Q00  =   0.012269

C          x = -0.954963  y =  1.842397  z =  0.901758 angstrom
           Maximum rank =  0   Radius =  0.650 angstrom
                   Q00  =  -0.095234

C          x =  1.430037  y =  0.490397  z =  0.391758 angstrom
           Maximum rank =  0   Radius =  0.650 angstrom
                   Q00  =  -0.100490

C          x =  0.170037  y =  2.091397  z =  1.679758 angstrom
           Maximum rank =  0   Radius =  0.650 angstrom
                   Q00  =  -0.050264

C          x =  1.360037  y =  1.421397  z =  1.421758 angstrom
           Maximum rank =  0   Radius =  0.650 angstrom
                   Q00  =  -0.089002

H          x = -1.753963  y =  0.685397  z = -0.718242 angstrom
           Maximum rank =  0   Radius =  0.325 angstrom
                   Q00  =   0.065989

H          x =  0.349037  y = -0.470603  z = -1.189242 angstrom
           Maximum rank =  0   Radius =  0.325 angstrom
                   Q00  =   0.057014

H          x = -1.879963  y =  2.359397  z =  1.115758 angstrom
           Maximum rank =  0   Radius =  0.325 angstrom
                   Q00  =   0.060470

H          x =  0.124037  y =  2.812397  z =  2.481758 angstrom
           Maximum rank =  0   Radius =  0.325 angstrom
                   Q00  =   0.064151

H          x =  3.538037  y =  0.439397  z =  0.377758 angstrom
           Maximum rank =  0   Radius =  0.325 angstrom
                   Q00  =   0.096155

H          x =  2.799037  y = -0.436603  z = -0.954242 angstrom
           Maximum rank =  0   Radius =  0.325 angstrom
                   Q00  =   0.097718

H          x =  2.229037  y =  1.629397  z =  2.027758 angstrom
           Maximum rank =  0   Radius =  0.325 angstrom
                   Q00  =   0.056554

H          x =  2.829350  y = -1.187586  z =  0.636768 angstrom
           Maximum rank =  0   Radius =  0.325 angstrom
                   Q00  =   0.104860

C          x = -2.173963  y = -2.187603  z = -1.843242 angstrom
           Maximum rank =  0   Radius =  0.650 angstrom
                   Q00  =  -0.250736

C          x = -1.677963  y = -3.618603  z = -1.600242 angstrom
           Maximum rank =  0   Radius =  0.650 angstrom
                   Q00  =  -0.228971

H          x = -3.251963  y = -2.201603  z = -2.006242 angstrom
           Maximum rank =  0   Radius =  0.325 angstrom
                   Q00  =   0.079038

H          x = -1.964963  y = -1.580603  z = -0.963242 angstrom
           Maximum rank =  0   Radius =  0.325 angstrom
                   Q00  =   0.082725

H          x = -1.702963  y = -1.737603  z = -2.717242 angstrom
           Maximum rank =  0   Radius =  0.325 angstrom
                   Q00  =   0.077668

H          x = -1.984963  y = -4.227603  z = -2.450242 angstrom
           Maximum rank =  0   Radius =  0.325 angstrom
                   Q00  =   0.076817

H          x = -0.580379  y = -3.632895  z = -1.528782 angstrom
           Maximum rank =  0   Radius =  0.325 angstrom
                   Q00  =   0.078877

H          x = -2.146774  y = -4.031128  z = -0.694682 angstrom
           Maximum rank =  0   Radius =  0.325 angstrom
                   Q00  =   0.083173

Total multipoles referred to origin at
           x =   0.000000,  y =    0.000000,  z =    0.000000 angstrom
                   Q00  =  -0.000000

Finished at 3:52:41 on 28 Apr 2020

  DMA results are available in the Python driver through the
	  variable('DMA DISTRIBUTED MULTIPOLES')
  and
	  variable('DMA TOTAL MULTIPOLES')
  commands.

    Psi4 stopped on: Tuesday, 28 April 2020 03:52AM
    Psi4 wall time for execution: 0:01:25.27

*** Psi4 exiting successfully. Buy a developer a beer!
