                               Psi4 1.3.2 release

  ==> Input File <==

--------------------------------------------------------------------------
import numpy as np
set {scf_type pk
basis cc-pvdz
d_convergence 10
gdma_switch   0
gdma_limit    0
gdma_origin   [ 0.0,  0.0,  0.0 ]
}
molecule test {
    units Angstrom
    0 1
    --
    0 1
    C                2.488593910191011     0.055571129500806    -3.020647598164347
    C                0.825593910191011    -0.292428870499194     0.928352401835653
    C                0.734593910191011    -1.337428870499194     0.044352401835653
    C                1.455593910191011     0.877571129500806     0.533352401835653
    C                1.296593910191011    -1.231428870499194    -1.218647598164347
    C                2.006593910191011     1.004571129500806    -0.734647598164347
    C                1.929593910191011    -0.047428870499194    -1.625647598164347
    H                0.406593910191011    -0.377428870499194     1.922352401835653
    H                0.254593910191011    -2.256428870499193     0.329352401835653
    H                1.528593910191011     1.693571129500806     1.234352401835653
    H                1.230593910191011    -2.068428870499194    -1.900647598164347
    H                2.498593910191011     1.923571129500806    -1.018647598164347
    H                2.476593910191011     1.096571129500806    -3.338647598164347
    H                1.829593910191011    -0.494428870499194    -3.694647598164347
    H                3.507033910191011    -0.347034870499194    -3.124007598164347
    C               -2.729406089808989     0.471571129500806     1.164352401835653
    C               -4.193406089808989     0.907571129500806     1.214352401835653
    O               -2.404406089808989    -0.450428870499194     2.191352401835653
    H               -2.523406089808989     0.006571129500806     0.198352401835653
    H               -2.092406089808989     1.350571129500806     1.264352401835653
    H               -4.341406089808990     1.431571129500806     2.159352401835653
    H               -2.763406089808989    -1.306428870499194     1.903352401835653
    H               -4.834686089808988     0.013988129500806     1.197832401835653
    H               -4.433966089808989     1.622742329500806     0.413942401835653

}
e, wfn = energy('scf', return_wfn=True)
gdma(wfn)
dmavals = variable('DMA DISTRIBUTED MULTIPOLES')
charges = np.array(dmavals)
print(charges)
np.save('SSI-132PHE-174SER-1-dimer.npy', np.array(charges))--------------------------------------------------------------------------

*** tstart() called on ds3
*** at Mon Apr 27 19:43:08 2020

   => Loading Basis Set <=

    Name: CC-PVDZ
    Role: ORBITAL
    Keyword: BASIS
    atoms 1-7, 16-17  entry C          line   138 file /theoryfs2/ds/metcalf/miniconda2/envs/tf2gpu/share/psi4/basis/cc-pvdz.gbs
    atoms 8-15, 19-24 entry H          line    22 file /theoryfs2/ds/metcalf/miniconda2/envs/tf2gpu/share/psi4/basis/cc-pvdz.gbs
    atoms 18          entry O          line   198 file /theoryfs2/ds/metcalf/miniconda2/envs/tf2gpu/share/psi4/basis/cc-pvdz.gbs

         ---------------------------------------------------------
                                   SCF
               by Justin Turney, Rob Parrish, Andy Simmonett
                          and Daniel G. A. Smith
                              RHF Reference
                        1 Threads,    500 MiB Core
         ---------------------------------------------------------

  ==> Geometry <==

    Molecular point group: c1
    Full point group: C1

    Geometry (in Angstrom), charge = 0, multiplicity = 1:

       Center              X                  Y                   Z               Mass
    ------------   -----------------  -----------------  -----------------  -----------------
         C            2.488593910191     0.055571129501    -3.020647598164    12.000000000000
         C            0.825593910191    -0.292428870499     0.928352401836    12.000000000000
         C            0.734593910191    -1.337428870499     0.044352401836    12.000000000000
         C            1.455593910191     0.877571129501     0.533352401836    12.000000000000
         C            1.296593910191    -1.231428870499    -1.218647598164    12.000000000000
         C            2.006593910191     1.004571129501    -0.734647598164    12.000000000000
         C            1.929593910191    -0.047428870499    -1.625647598164    12.000000000000
         H            0.406593910191    -0.377428870499     1.922352401836     1.007825032230
         H            0.254593910191    -2.256428870499     0.329352401836     1.007825032230
         H            1.528593910191     1.693571129501     1.234352401836     1.007825032230
         H            1.230593910191    -2.068428870499    -1.900647598164     1.007825032230
         H            2.498593910191     1.923571129501    -1.018647598164     1.007825032230
         H            2.476593910191     1.096571129501    -3.338647598164     1.007825032230
         H            1.829593910191    -0.494428870499    -3.694647598164     1.007825032230
         H            3.507033910191    -0.347034870499    -3.124007598164     1.007825032230
         C           -2.729406089809     0.471571129501     1.164352401836    12.000000000000
         C           -4.193406089809     0.907571129501     1.214352401836    12.000000000000
         O           -2.404406089809    -0.450428870499     2.191352401836    15.994914619570
         H           -2.523406089809     0.006571129501     0.198352401836     1.007825032230
         H           -2.092406089809     1.350571129501     1.264352401836     1.007825032230
         H           -4.341406089809     1.431571129501     2.159352401836     1.007825032230
         H           -2.763406089809    -1.306428870499     1.903352401836     1.007825032230
         H           -4.834686089809     0.013988129501     1.197832401836     1.007825032230
         H           -4.433966089809     1.622742329501     0.413942401836     1.007825032230

  Running in c1 symmetry.

  Rotational constants: A =      0.07945  B =      0.01577  C =      0.01550 [cm^-1]
  Rotational constants: A =   2381.80051  B =    472.86976  C =    464.71449 [MHz]
  Nuclear repulsion =  483.777724271443731

  Charge       = 0
  Multiplicity = 1
  Electrons    = 76
  Nalpha       = 38
  Nbeta        = 38

  ==> Algorithm <==

  SCF Algorithm Type is PK.
  DIIS enabled.
  MOM disabled.
  Fractional occupation disabled.
  Guess Type is SAD.
  Energy threshold   = 1.00e-06
  Density threshold  = 1.00e-10
  Integral threshold = 0.00e+00

  ==> Primary Basis <==

  Basis Set: CC-PVDZ
    Blend: CC-PVDZ
    Number of shells: 102
    Number of basis function: 210
    Number of Cartesian functions: 220
    Spherical Harmonics?: true
    Max angular momentum: 2

  ==> Pre-Iterations <==

   -------------------------------------------------------
    Irrep   Nso     Nmo     Nalpha   Nbeta   Ndocc  Nsocc
   -------------------------------------------------------
     A        210     210       0       0       0       0
   -------------------------------------------------------
    Total     210     210      38      38      38       0
   -------------------------------------------------------

  ==> Integral Setup <==

  Using integral reordering PK algorithm.
  Sizing the integral batches needed.
  Building batch lookup table.
   Calculation information:
      Number of atoms:                  24
      Number of AO shells:             102
      Number of primitives:            290
      Number of atomic orbitals:       220
      Number of basis functions:       210

      Integral cutoff                 1.00e-12
      Number of threads:                 1

	Batch   1 pq = [       0,    9405] index = [             0,44231715] size =     44231715
	Batch   2 pq = [    9405,   13301] index = [      44231715,88464951] size =     44233236
	Batch   3 pq = [   13301,   16290] index = [      88464951,132690195] size =     44225244
	Batch   4 pq = [   16290,   18810] index = [     132690195,176917455] size =     44227260
	Batch   5 pq = [   18810,   21030] index = [     176917455,221140965] size =     44223510
	Batch   6 pq = [   21030,   22155] index = [     221140965,245433090] size =     24292125
  Task number: 23
  Buffer size: 11059200
  Buffer per thread: 2
  We computed 10915508 shell quartets total.
  Whereas there are 13799631 unique shell quartets.

  ==> DiskJK: Disk-Based J/K Matrices <==

    J tasked:                  Yes
    K tasked:                  Yes
    wK tasked:                  No
    Memory [MiB]:              375
    Schwarz Cutoff:          1E-12

    OpenMP threads:              1

  Minimum eigenvalue in the overlap matrix is 3.0025172587E-04.
  Using Symmetric Orthogonalization.

  SCF Guess: Superposition of Atomic Densities via on-the-fly atomic UHF.

  ==> Iterations <==

                        Total Energy        Delta E     RMS |[F,P]|

   @RHF iter SAD:  -422.65406746971473   -4.22654e+02   0.00000e+00
   @RHF iter   1:  -423.60241798400756   -9.48351e-01   2.94833e-03 DIIS
   @RHF iter   2:  -423.81291608426955   -2.10498e-01   1.30885e-03 DIIS
   @RHF iter   3:  -423.84799904201799   -3.50830e-02   2.81450e-04 DIIS
   @RHF iter   4:  -423.85076856280438   -2.76952e-03   8.47231e-05 DIIS
   @RHF iter   5:  -423.85094184235538   -1.73280e-04   1.74832e-05 DIIS
   @RHF iter   6:  -423.85095201031913   -1.01680e-05   4.38051e-06 DIIS
   @RHF iter   7:  -423.85095277568678   -7.65368e-07   1.26575e-06 DIIS
   @RHF iter   8:  -423.85095285772599   -8.20392e-08   4.51681e-07 DIIS
   @RHF iter   9:  -423.85095287497859   -1.72526e-08   1.89857e-07 DIIS
   @RHF iter  10:  -423.85095287821434   -3.23575e-09   9.68394e-08 DIIS
   @RHF iter  11:  -423.85095287929340   -1.07906e-09   4.16732e-08 DIIS
   @RHF iter  12:  -423.85095287951617   -2.22769e-10   1.49710e-08 DIIS
   @RHF iter  13:  -423.85095287953618   -2.00089e-11   4.22779e-09 DIIS
   @RHF iter  14:  -423.85095287953732   -1.13687e-12   1.41219e-09 DIIS
   @RHF iter  15:  -423.85095287953664    6.82121e-13   6.26822e-10 DIIS
   @RHF iter  16:  -423.85095287953845   -1.81899e-12   2.56441e-10 DIIS
   @RHF iter  17:  -423.85095287953891   -4.54747e-13   1.11514e-10 DIIS
   @RHF iter  18:  -423.85095287953885    5.68434e-14   4.97542e-11 DIIS
  Energy and wave function converged.

  ==> Post-Iterations <==

    Orbital Energies [Eh]
    ---------------------

    Doubly Occupied:

       1A    -20.552182     2A    -11.271693     3A    -11.236688
       4A    -11.228766     5A    -11.227954     6A    -11.227586
       7A    -11.226649     8A    -11.225921     9A    -11.221738
      10A    -11.220979    11A     -1.352822    12A     -1.152835
      13A     -1.043169    14A     -1.009667    15A     -1.005294
      16A     -0.929529    17A     -0.836050    18A     -0.822579
      19A     -0.792630    20A     -0.688809    21A     -0.685378
      22A     -0.629871    23A     -0.625676    24A     -0.622344
      25A     -0.586673    26A     -0.579564    27A     -0.574877
      28A     -0.558315    29A     -0.541986    30A     -0.533643
      31A     -0.523181    32A     -0.485874    33A     -0.481171
      34A     -0.477619    35A     -0.472186    36A     -0.432144
      37A     -0.331018    38A     -0.318566

    Virtual:

      39A      0.138294    40A      0.146826    41A      0.170279
      42A      0.190799    43A      0.206278    44A      0.208455
      45A      0.229076    46A      0.242017    47A      0.252979
      48A      0.261218    49A      0.265120    50A      0.267781
      51A      0.282359    52A      0.287728    53A      0.295572
      54A      0.302216    55A      0.371312    56A      0.378337
      57A      0.391995    58A      0.403254    59A      0.459885
      60A      0.471272    61A      0.482710    62A      0.496156
      63A      0.564813    64A      0.581180    65A      0.604060
      66A      0.610923    67A      0.639306    68A      0.665536
      69A      0.687748    70A      0.688860    71A      0.710403
      72A      0.718941    73A      0.732735    74A      0.739840
      75A      0.742924    76A      0.744848    77A      0.755592
      78A      0.759013    79A      0.768308    80A      0.778184
      81A      0.787977    82A      0.834562    83A      0.845812
      84A      0.861912    85A      0.866651    86A      0.874377
      87A      0.879785    88A      0.887720    89A      0.895521
      90A      0.899497    91A      0.905814    92A      0.910174
      93A      0.913922    94A      0.920281    95A      0.931850
      96A      0.942521    97A      0.954235    98A      0.964316
      99A      1.013038   100A      1.018259   101A      1.045805
     102A      1.119966   103A      1.135130   104A      1.142130
     105A      1.149969   106A      1.154784   107A      1.161099
     108A      1.176984   109A      1.199596   110A      1.242786
     111A      1.255514   112A      1.258511   113A      1.264988
     114A      1.288749   115A      1.300901   116A      1.313210
     117A      1.330505   118A      1.340111   119A      1.361154
     120A      1.377964   121A      1.419960   122A      1.487923
     123A      1.513072   124A      1.518154   125A      1.537003
     126A      1.555975   127A      1.598180   128A      1.615353
     129A      1.637756   130A      1.674009   131A      1.680086
     132A      1.703116   133A      1.735460   134A      1.740430
     135A      1.760735   136A      1.781206   137A      1.798378
     138A      1.815167   139A      1.850314   140A      1.858013
     141A      1.875913   142A      1.892959   143A      1.896495
     144A      1.905684   145A      1.916887   146A      1.925756
     147A      1.928912   148A      1.951176   149A      1.956118
     150A      1.959625   151A      1.962926   152A      1.973750
     153A      1.982724   154A      1.992089   155A      2.001639
     156A      2.005143   157A      2.044867   158A      2.051073
     159A      2.066451   160A      2.087556   161A      2.104200
     162A      2.126269   163A      2.155240   164A      2.161951
     165A      2.176920   166A      2.183219   167A      2.189243
     168A      2.191994   169A      2.261313   170A      2.266312
     171A      2.285291   172A      2.287606   173A      2.301664
     174A      2.305796   175A      2.320077   176A      2.341452
     177A      2.375299   178A      2.428645   179A      2.474780
     180A      2.479171   181A      2.501757   182A      2.515857
     183A      2.542682   184A      2.552329   185A      2.557388
     186A      2.628270   187A      2.746941   188A      2.752598
     189A      2.768429   190A      2.771579   191A      2.772459
     192A      2.796564   193A      2.807126   194A      2.820344
     195A      2.856620   196A      2.874668   197A      2.881836
     198A      2.924431   199A      3.002096   200A      3.029325
     201A      3.038706   202A      3.170529   203A      3.220635
     204A      3.316899   205A      3.332712   206A      3.394016
     207A      3.478941   208A      3.622345   209A      3.999955
     210A      4.089162

    Final Occupation by Irrep:
              A
    DOCC [    38 ]

  @RHF Final Energy:  -423.85095287953885

   => Energetics <=

    Nuclear Repulsion Energy =            483.7777242714437307
    One-Electron Energy =               -1533.7901062960668241
    Two-Electron Energy =                 626.1614291450841847
    Total Energy =                       -423.8509528795389087

Computation Completed

Properties will be evaluated at   0.000000,   0.000000,   0.000000 [a0]

Properties computed using the SCF density matrix

  Nuclear Dipole Moment: [e a0]
     X:    -6.8148      Y:     2.1437      Z:    -2.2894

  Electronic Dipole Moment: [e a0]
     X:     6.4832      Y:    -2.2590      Z:     1.6735

  Dipole Moment: [e a0]
     X:    -0.3316      Y:    -0.1153      Z:    -0.6159     Total:     0.7090

  Dipole Moment: [D]
     X:    -0.8429      Y:    -0.2930      Z:    -1.5656     Total:     1.8020

*** tstop() called on ds3 at Mon Apr 27 19:45:00 2020
Module time:
	user time   =      77.58 seconds =       1.29 minutes
	system time =      38.63 seconds =       0.64 minutes
	total time  =        112 seconds =       1.87 minutes
Total time:
	user time   =      77.58 seconds =       1.29 minutes
	system time =      38.63 seconds =       0.64 minutes
	total time  =        112 seconds =       1.87 minutes
                                     G D M A

                                 by Anthony Stone

                           version 2.2.06, 22 June 2011

               Distributed Multipoles from Gaussian wavefunctions

Starting at 19:45:0 on 27 Apr 2020

Using SCF density matrix from file ./SSI/SSI-132PHE-174SER-1-dimer.test.9350.fchk

                         Distributed Multipole Analysis

Standard DMA

Positions and radii in angstrom
Multipole moments in atomic units, ea_0^k for rank k

C          x =  2.488594  y =  0.055571  z = -3.020648 angstrom
           Maximum rank =  0   Radius =  0.650 angstrom
                   Q00  =  -0.205156

C          x =  0.825594  y = -0.292429  z =  0.928352 angstrom
           Maximum rank =  0   Radius =  0.650 angstrom
                   Q00  =  -0.089988

C          x =  0.734594  y = -1.337429  z =  0.044352 angstrom
           Maximum rank =  0   Radius =  0.650 angstrom
                   Q00  =  -0.075545

C          x =  1.455594  y =  0.877571  z =  0.533352 angstrom
           Maximum rank =  0   Radius =  0.650 angstrom
                   Q00  =   0.027867

C          x =  1.296594  y = -1.231429  z = -1.218648 angstrom
           Maximum rank =  0   Radius =  0.650 angstrom
                   Q00  =  -0.061214

C          x =  2.006594  y =  1.004571  z = -0.734648 angstrom
           Maximum rank =  0   Radius =  0.650 angstrom
                   Q00  =  -0.085714

C          x =  1.929594  y = -0.047429  z = -1.625648 angstrom
           Maximum rank =  0   Radius =  0.650 angstrom
                   Q00  =  -0.108567

H          x =  0.406594  y = -0.377429  z =  1.922352 angstrom
           Maximum rank =  0   Radius =  0.325 angstrom
                   Q00  =   0.071098

H          x =  0.254594  y = -2.256429  z =  0.329352 angstrom
           Maximum rank =  0   Radius =  0.325 angstrom
                   Q00  =   0.055655

H          x =  1.528594  y =  1.693571  z =  1.234352 angstrom
           Maximum rank =  0   Radius =  0.325 angstrom
                   Q00  =   0.060406

H          x =  1.230594  y = -2.068429  z = -1.900648 angstrom
           Maximum rank =  0   Radius =  0.325 angstrom
                   Q00  =   0.052791

H          x =  2.498594  y =  1.923571  z = -1.018648 angstrom
           Maximum rank =  0   Radius =  0.325 angstrom
                   Q00  =   0.055001

H          x =  2.476594  y =  1.096571  z = -3.338648 angstrom
           Maximum rank =  0   Radius =  0.325 angstrom
                   Q00  =   0.097718

H          x =  1.829594  y = -0.494429  z = -3.694648 angstrom
           Maximum rank =  0   Radius =  0.325 angstrom
                   Q00  =   0.095809

H          x =  3.507034  y = -0.347035  z = -3.124008 angstrom
           Maximum rank =  0   Radius =  0.325 angstrom
                   Q00  =   0.104706

C          x = -2.729406  y =  0.471571  z =  1.164352 angstrom
           Maximum rank =  0   Radius =  0.650 angstrom
                   Q00  =   0.134990

C          x = -4.193406  y =  0.907571  z =  1.214352 angstrom
           Maximum rank =  0   Radius =  0.650 angstrom
                   Q00  =  -0.261707

O          x = -2.404406  y = -0.450429  z =  2.191352 angstrom
           Maximum rank =  0   Radius =  0.650 angstrom
                   Q00  =  -0.619409

H          x = -2.523406  y =  0.006571  z =  0.198352 angstrom
           Maximum rank =  0   Radius =  0.325 angstrom
                   Q00  =   0.036162

H          x = -2.092406  y =  1.350571  z =  1.264352 angstrom
           Maximum rank =  0   Radius =  0.325 angstrom
                   Q00  =   0.082858

H          x = -4.341406  y =  1.431571  z =  2.159352 angstrom
           Maximum rank =  0   Radius =  0.325 angstrom
                   Q00  =   0.088569

H          x = -2.763406  y = -1.306429  z =  1.903352 angstrom
           Maximum rank =  0   Radius =  0.325 angstrom
                   Q00  =   0.381622

H          x = -4.834686  y =  0.013988  z =  1.197832 angstrom
           Maximum rank =  0   Radius =  0.325 angstrom
                   Q00  =   0.076681

H          x = -4.433966  y =  1.622742  z =  0.413942 angstrom
           Maximum rank =  0   Radius =  0.325 angstrom
                   Q00  =   0.085365

Total multipoles referred to origin at
           x =   0.000000,  y =    0.000000,  z =    0.000000 angstrom
                   Q00  =  -0.000000

Finished at 19:45:0 on 27 Apr 2020

  DMA results are available in the Python driver through the
	  variable('DMA DISTRIBUTED MULTIPOLES')
  and
	  variable('DMA TOTAL MULTIPOLES')
  commands.

    Psi4 stopped on: Monday, 27 April 2020 07:45PM
    Psi4 wall time for execution: 0:01:52.19

*** Psi4 exiting successfully. Buy a developer a beer!
