                               Psi4 1.3.2 release

  ==> Input File <==

--------------------------------------------------------------------------
import numpy as np
set {scf_type pk
basis cc-pvdz
d_convergence 10
gdma_switch   0
gdma_limit    0
gdma_origin   [ 0.0,  0.0,  0.0 ]
}
molecule test {
    units Angstrom
    0 1
    --
    0 1
    C                1.944838008981609     2.870455705670049     0.675507264921358
    C                0.342838008981608     1.121455705670050     1.763507264921358
    C                1.631838008981608     1.697455705670049     1.532507264921358
    C                0.524838008981608     0.003455705670050     2.616507264921358
    C                2.517838008981609     0.947455705670050     2.236507264921357
    C               -0.942161991018392     1.399455705670050     1.288507264921358
    C               -0.548161991018392    -0.784544294329950     3.042507264921357
    C               -2.007161991018392     0.610455705670049     1.696507264921358
    C               -1.811161991018392    -0.464544294329950     2.575507264921357
    N                1.863838008981608    -0.061544294329950     2.903507264921357
    H               -1.073161991018392     2.190455705670049     0.580507264921358
    H                1.415838008981608     2.768455705670049    -0.271492735078642
    H                3.012838008981608     2.845455705670049     0.453507264921358
    H                3.590838008981608     1.103455705670050     2.254507264921357
    H                2.325838008981608    -0.856544294329950     3.351507264921358
    H               -0.387161991018392    -1.623544294329950     3.705507264921358
    H               -3.005161991018392     0.826455705670050     1.339507264921358
    H               -2.661161991018392    -1.062544294329951     2.878507264921358
    H                1.699638008981609     3.844065705670049     1.124917264921358
    C               -2.808161991018391    -1.990544294329951    -2.785492735078642
    C                0.388838008981608    -0.174544294329950    -1.821492735078642
    C                1.162838008981609    -0.372544294329950    -2.965492735078643
    C               -0.915161991018392    -0.684544294329950    -1.761492735078642
    C               -1.431161991018392    -1.407544294329950    -2.843492735078642
    C                0.652838008981608    -1.091544294329950    -4.035492735078643
    C               -0.641161991018392    -1.601544294329950    -3.978492735078643
    H                0.795838008981608     0.373455705670050    -0.983492735078642
    H                2.171838008981609     0.015455705670050    -3.006492735078643
    H               -1.505161991018392    -0.541544294329950    -0.867492735078642
    H                1.270838008981608    -1.278544294329951    -4.902492735078642
    H               -2.976161991018392    -2.372544294329950    -1.776492735078642
    H               -2.866161991018392    -2.841544294329951    -3.463492735078642
    H               -1.023161991018392    -2.181544294329951    -4.806492735078642
    H               -3.612451991018392    -1.285984294329950    -3.043782735078643

}
e, wfn = energy('scf', return_wfn=True)
gdma(wfn)
dmavals = variable('DMA DISTRIBUTED MULTIPOLES')
charges = np.array(dmavals)
print(charges)
np.save('SSI-008TRP-035PHE-1-dimer.npy', np.array(charges))--------------------------------------------------------------------------

*** tstart() called on ds3
*** at Tue Apr 28 00:42:39 2020

   => Loading Basis Set <=

    Name: CC-PVDZ
    Role: ORBITAL
    Keyword: BASIS
    atoms 1-9, 20-26   entry C          line   138 file /theoryfs2/ds/metcalf/miniconda2/envs/tf2gpu/share/psi4/basis/cc-pvdz.gbs
    atoms 10           entry N          line   168 file /theoryfs2/ds/metcalf/miniconda2/envs/tf2gpu/share/psi4/basis/cc-pvdz.gbs
    atoms 11-19, 27-34 entry H          line    22 file /theoryfs2/ds/metcalf/miniconda2/envs/tf2gpu/share/psi4/basis/cc-pvdz.gbs

         ---------------------------------------------------------
                                   SCF
               by Justin Turney, Rob Parrish, Andy Simmonett
                          and Daniel G. A. Smith
                              RHF Reference
                        1 Threads,    500 MiB Core
         ---------------------------------------------------------

  ==> Geometry <==

    Molecular point group: c1
    Full point group: C1

    Geometry (in Angstrom), charge = 0, multiplicity = 1:

       Center              X                  Y                   Z               Mass
    ------------   -----------------  -----------------  -----------------  -----------------
         C            1.944838008982     2.870455705670     0.675507264921    12.000000000000
         C            0.342838008982     1.121455705670     1.763507264921    12.000000000000
         C            1.631838008982     1.697455705670     1.532507264921    12.000000000000
         C            0.524838008982     0.003455705670     2.616507264921    12.000000000000
         C            2.517838008982     0.947455705670     2.236507264921    12.000000000000
         C           -0.942161991018     1.399455705670     1.288507264921    12.000000000000
         C           -0.548161991018    -0.784544294330     3.042507264921    12.000000000000
         C           -2.007161991018     0.610455705670     1.696507264921    12.000000000000
         C           -1.811161991018    -0.464544294330     2.575507264921    12.000000000000
         N            1.863838008982    -0.061544294330     2.903507264921    14.003074004430
         H           -1.073161991018     2.190455705670     0.580507264921     1.007825032230
         H            1.415838008982     2.768455705670    -0.271492735079     1.007825032230
         H            3.012838008982     2.845455705670     0.453507264921     1.007825032230
         H            3.590838008982     1.103455705670     2.254507264921     1.007825032230
         H            2.325838008982    -0.856544294330     3.351507264921     1.007825032230
         H           -0.387161991018    -1.623544294330     3.705507264921     1.007825032230
         H           -3.005161991018     0.826455705670     1.339507264921     1.007825032230
         H           -2.661161991018    -1.062544294330     2.878507264921     1.007825032230
         H            1.699638008982     3.844065705670     1.124917264921     1.007825032230
         C           -2.808161991018    -1.990544294330    -2.785492735079    12.000000000000
         C            0.388838008982    -0.174544294330    -1.821492735079    12.000000000000
         C            1.162838008982    -0.372544294330    -2.965492735079    12.000000000000
         C           -0.915161991018    -0.684544294330    -1.761492735079    12.000000000000
         C           -1.431161991018    -1.407544294330    -2.843492735079    12.000000000000
         C            0.652838008982    -1.091544294330    -4.035492735079    12.000000000000
         C           -0.641161991018    -1.601544294330    -3.978492735079    12.000000000000
         H            0.795838008982     0.373455705670    -0.983492735079     1.007825032230
         H            2.171838008982     0.015455705670    -3.006492735079     1.007825032230
         H           -1.505161991018    -0.541544294330    -0.867492735079     1.007825032230
         H            1.270838008982    -1.278544294330    -4.902492735079     1.007825032230
         H           -2.976161991018    -2.372544294330    -1.776492735079     1.007825032230
         H           -2.866161991018    -2.841544294330    -3.463492735079     1.007825032230
         H           -1.023161991018    -2.181544294330    -4.806492735079     1.007825032230
         H           -3.612451991018    -1.285984294330    -3.043782735079     1.007825032230

  Running in c1 symmetry.

  Rotational constants: A =      0.02295  B =      0.00921  C =      0.00753 [cm^-1]
  Rotational constants: A =    687.87485  B =    276.00154  C =    225.71575 [MHz]
  Nuclear repulsion = 1083.269684490705458

  Charge       = 0
  Multiplicity = 1
  Electrons    = 120
  Nalpha       = 60
  Nbeta        = 60

  ==> Algorithm <==

  SCF Algorithm Type is PK.
  DIIS enabled.
  MOM disabled.
  Fractional occupation disabled.
  Guess Type is SAD.
  Energy threshold   = 1.00e-06
  Density threshold  = 1.00e-10
  Integral threshold = 0.00e+00

  ==> Primary Basis <==

  Basis Set: CC-PVDZ
    Blend: CC-PVDZ
    Number of shells: 153
    Number of basis function: 323
    Number of Cartesian functions: 340
    Spherical Harmonics?: true
    Max angular momentum: 2

  ==> Pre-Iterations <==

   -------------------------------------------------------
    Irrep   Nso     Nmo     Nalpha   Nbeta   Ndocc  Nsocc
   -------------------------------------------------------
     A        323     323       0       0       0       0
   -------------------------------------------------------
    Total     323     323      60      60      60       0
   -------------------------------------------------------

  ==> Integral Setup <==

  Using integral reordering PK algorithm.
  Sizing the integral batches needed.
  Building batch lookup table.
   Calculation information:
      Number of atoms:                  34
      Number of AO shells:             153
      Number of primitives:            459
      Number of atomic orbitals:       340
      Number of basis functions:       323

      Integral cutoff                 1.00e-12
      Number of threads:                 1

	Batch   1 pq = [       0,    9405] index = [             0,44231715] size =     44231715
	Batch   2 pq = [    9405,   13301] index = [      44231715,88464951] size =     44233236
	Batch   3 pq = [   13301,   16290] index = [      88464951,132690195] size =     44225244
	Batch   4 pq = [   16290,   18810] index = [     132690195,176917455] size =     44227260
	Batch   5 pq = [   18810,   21030] index = [     176917455,221140965] size =     44223510
	Batch   6 pq = [   21030,   23037] index = [     221140965,265363203] size =     44222238
	Batch   7 pq = [   23037,   24883] index = [     265363203,309594286] size =     44231083
	Batch   8 pq = [   24883,   26601] index = [     309594286,353819901] size =     44225615
	Batch   9 pq = [   26601,   28214] index = [     353819901,398029005] size =     44209104
	Batch  10 pq = [   28214,   29740] index = [     398029005,442248670] size =     44219665
	Batch  11 pq = [   29740,   31191] index = [     442248670,486454836] size =     44206166
	Batch  12 pq = [   31191,   32578] index = [     486454836,530679331] size =     44224495
	Batch  13 pq = [   32578,   33908] index = [     530679331,574893186] size =     44213855
	Batch  14 pq = [   33908,   35188] index = [     574893186,619115266] size =     44222080
	Batch  15 pq = [   35188,   36423] index = [     619115266,663335676] size =     44220410
	Batch  16 pq = [   36423,   37617] index = [     663335676,707538153] size =     44202477
	Batch  17 pq = [   37617,   38775] index = [     707538153,751769700] size =     44231547
	Batch  18 pq = [   38775,   39899] index = [     751769700,795985050] size =     44215350
	Batch  19 pq = [   39899,   40992] index = [     795985050,840192528] size =     44207478
	Batch  20 pq = [   40992,   42057] index = [     840192528,884416653] size =     44224125
	Batch  21 pq = [   42057,   43095] index = [     884416653,928611060] size =     44194407
	Batch  22 pq = [   43095,   44109] index = [     928611060,972823995] size =     44212935
	Batch  23 pq = [   44109,   45100] index = [     972823995,1017027550] size =     44203555
	Batch  24 pq = [   45100,   46070] index = [    1017027550,1061245485] size =     44217935
	Batch  25 pq = [   46070,   47020] index = [    1061245485,1105463710] size =     44218225
	Batch  26 pq = [   47020,   47951] index = [    1105463710,1149673176] size =     44209466
	Batch  27 pq = [   47951,   48864] index = [    1149673176,1193869680] size =     44196504
	Batch  28 pq = [   48864,   49761] index = [    1193869680,1238103441] size =     44233761
	Batch  29 pq = [   49761,   50642] index = [    1238103441,1282331403] size =     44227962
	Batch  30 pq = [   50642,   51508] index = [    1282331403,1326562786] size =     44231383
	Batch  31 pq = [   51508,   52326] index = [    1326562786,1369031301] size =     42468515
  Task number: 124
  Buffer size: 11059200
  Buffer per thread: 2
  We computed 76297749 shell quartets total.
  Whereas there are 69401871 unique shell quartets.
     9.94 percent of shell quartets recomputed by reordering.

  ==> DiskJK: Disk-Based J/K Matrices <==

    J tasked:                  Yes
    K tasked:                  Yes
    wK tasked:                  No
    Memory [MiB]:              375
    Schwarz Cutoff:          1E-12

    OpenMP threads:              1

  Minimum eigenvalue in the overlap matrix is 2.4099160587E-04.
  Using Symmetric Orthogonalization.

  SCF Guess: Superposition of Atomic Densities via on-the-fly atomic UHF.

  ==> Iterations <==

                        Total Energy        Delta E     RMS |[F,P]|

   @RHF iter SAD:  -669.59816311886027   -6.69598e+02   0.00000e+00
   @RHF iter   1:  -669.94909085289555   -3.50928e-01   2.15279e-03 DIIS
   @RHF iter   2:  -670.24116469674630   -2.92074e-01   9.32082e-04 DIIS
   @RHF iter   3:  -670.28936549086256   -4.82008e-02   2.54306e-04 DIIS
   @RHF iter   4:  -670.29396898826781   -4.60350e-03   1.14543e-04 DIIS
   @RHF iter   5:  -670.29473429493999   -7.65307e-04   1.68437e-05 DIIS
   @RHF iter   6:  -670.29476752891321   -3.32340e-05   7.53294e-06 DIIS
   @RHF iter   7:  -670.29477449791602   -6.96900e-06   2.98785e-06 DIIS
   @RHF iter   8:  -670.29477628594896   -1.78803e-06   1.26059e-06 DIIS
   @RHF iter   9:  -670.29477666380478   -3.77856e-07   5.54502e-07 DIIS
   @RHF iter  10:  -670.29477674189991   -7.80951e-08   2.45874e-07 DIIS
   @RHF iter  11:  -670.29477676100760   -1.91077e-08   1.03439e-07 DIIS
   @RHF iter  12:  -670.29477676386921   -2.86161e-09   4.10853e-08 DIIS
   @RHF iter  13:  -670.29477676417514   -3.05931e-10   1.20164e-08 DIIS
   @RHF iter  14:  -670.29477676419640   -2.12594e-11   4.52038e-09 DIIS
   @RHF iter  15:  -670.29477676420481   -8.41283e-12   1.80434e-09 DIIS
   @RHF iter  16:  -670.29477676420879   -3.97904e-12   8.64074e-10 DIIS
   @RHF iter  17:  -670.29477676420083    7.95808e-12   4.56079e-10 DIIS
   @RHF iter  18:  -670.29477676420981   -8.98126e-12   1.59904e-10 DIIS
   @RHF iter  19:  -670.29477676419197    1.78488e-11   6.43239e-11 DIIS
  Energy and wave function converged.

  ==> Post-Iterations <==

    Orbital Energies [Eh]
    ---------------------

    Doubly Occupied:

       1A    -15.604421     2A    -11.266927     3A    -11.266609
       4A    -11.234335     5A    -11.232571     6A    -11.231762
       7A    -11.231595     8A    -11.228087     9A    -11.226624
      10A    -11.225330    11A    -11.224135    12A    -11.222332
      13A    -11.222156    14A    -11.221762    15A    -11.221529
      16A    -11.220048    17A    -11.219084    18A     -1.297880
      19A     -1.142032    20A     -1.132022    21A     -1.078629
      22A     -1.036653    23A     -1.001549    24A     -0.999736
      25A     -0.991418    26A     -0.934316    27A     -0.922590
      28A     -0.842773    29A     -0.815715    30A     -0.806561
      31A     -0.784856    32A     -0.755984    33A     -0.721236
      34A     -0.681432    35A     -0.666414    36A     -0.646368
      37A     -0.622489    38A     -0.621406    39A     -0.605730
      40A     -0.598534    41A     -0.590638    42A     -0.572125
      43A     -0.570020    44A     -0.569801    45A     -0.555981
      46A     -0.553677    47A     -0.541816    48A     -0.530473
      49A     -0.526119    50A     -0.498110    51A     -0.477608
      52A     -0.475610    53A     -0.473873    54A     -0.473332
      55A     -0.463208    56A     -0.375954    57A     -0.321793
      58A     -0.312996    59A     -0.298506    60A     -0.279468

    Virtual:

      61A      0.122254    62A      0.143157    63A      0.148701
      64A      0.164262    65A      0.177648    66A      0.181520
      67A      0.194417    68A      0.202232    69A      0.212317
      70A      0.220636    71A      0.230597    72A      0.232092
      73A      0.240390    74A      0.260186    75A      0.265824
      76A      0.270197    77A      0.271083    78A      0.280036
      79A      0.285846    80A      0.300276    81A      0.308501
      82A      0.327945    83A      0.372088    84A      0.374875
      85A      0.384084    86A      0.387719    87A      0.412075
      88A      0.417005    89A      0.442075    90A      0.460998
      91A      0.466085    92A      0.473298    93A      0.482891
      94A      0.486562    95A      0.493443    96A      0.507428
      97A      0.521461    98A      0.569110    99A      0.595887
     100A      0.598915   101A      0.614639   102A      0.634189
     103A      0.642861   104A      0.651336   105A      0.662721
     106A      0.683397   107A      0.692297   108A      0.693357
     109A      0.704075   110A      0.706107   111A      0.712326
     112A      0.720672   113A      0.729178   114A      0.731975
     115A      0.735574   116A      0.742742   117A      0.745487
     118A      0.749804   119A      0.752533   120A      0.760699
     121A      0.768671   122A      0.771974   123A      0.773243
     124A      0.782963   125A      0.789626   126A      0.790280
     127A      0.795159   128A      0.811087   129A      0.835726
     130A      0.844101   131A      0.854483   132A      0.859857
     133A      0.874216   134A      0.878797   135A      0.880969
     136A      0.883812   137A      0.884597   138A      0.894048
     139A      0.897621   140A      0.900708   141A      0.910957
     142A      0.920675   143A      0.932844   144A      0.936601
     145A      0.942350   146A      0.948715   147A      0.957153
     148A      0.958838   149A      0.969384   150A      0.972064
     151A      0.988853   152A      0.999112   153A      1.008487
     154A      1.049146   155A      1.056935   156A      1.059174
     157A      1.064327   158A      1.082706   159A      1.096988
     160A      1.120356   161A      1.129141   162A      1.138781
     163A      1.148305   164A      1.155931   165A      1.162514
     166A      1.169901   167A      1.190727   168A      1.200517
     169A      1.209730   170A      1.216923   171A      1.227968
     172A      1.230375   173A      1.238750   174A      1.253102
     175A      1.259224   176A      1.259980   177A      1.272628
     178A      1.280034   179A      1.288759   180A      1.303722
     181A      1.310157   182A      1.319451   183A      1.323267
     184A      1.327499   185A      1.328643   186A      1.352495
     187A      1.364697   188A      1.375334   189A      1.391049
     190A      1.420957   191A      1.433784   192A      1.445533
     193A      1.519893   194A      1.534664   195A      1.547004
     196A      1.564420   197A      1.570981   198A      1.574166
     199A      1.598839   200A      1.623002   201A      1.626902
     202A      1.645898   203A      1.649697   204A      1.691373
     205A      1.697472   206A      1.700971   207A      1.711189
     208A      1.737340   209A      1.742146   210A      1.758148
     211A      1.764221   212A      1.766499   213A      1.772020
     214A      1.786929   215A      1.797877   216A      1.809682
     217A      1.817373   218A      1.826240   219A      1.838979
     220A      1.866946   221A      1.881839   222A      1.892130
     223A      1.894548   224A      1.902191   225A      1.913633
     226A      1.915828   227A      1.920343   228A      1.925257
     229A      1.929482   230A      1.937111   231A      1.942063
     232A      1.948082   233A      1.953842   234A      1.962303
     235A      1.968671   236A      1.974604   237A      1.987686
     238A      1.997385   239A      2.001448   240A      2.005207
     241A      2.006629   242A      2.015852   243A      2.046747
     244A      2.063616   245A      2.069032   246A      2.072713
     247A      2.077287   248A      2.085429   249A      2.092240
     250A      2.107150   251A      2.111226   252A      2.121449
     253A      2.125044   254A      2.142512   255A      2.152874
     256A      2.158029   257A      2.166114   258A      2.170202
     259A      2.179484   260A      2.182861   261A      2.201816
     262A      2.213486   263A      2.226468   264A      2.249660
     265A      2.271734   266A      2.287569   267A      2.294876
     268A      2.298088   269A      2.305656   270A      2.319288
     271A      2.321638   272A      2.328672   273A      2.338396
     274A      2.349124   275A      2.356022   276A      2.397896
     277A      2.424573   278A      2.454036   279A      2.471044
     280A      2.479265   281A      2.496966   282A      2.514275
     283A      2.529316   284A      2.552762   285A      2.589090
     286A      2.606130   287A      2.626199   288A      2.635658
     289A      2.654540   290A      2.681603   291A      2.718973
     292A      2.748116   293A      2.764046   294A      2.771536
     295A      2.775116   296A      2.779999   297A      2.787200
     298A      2.797505   299A      2.813356   300A      2.838064
     301A      2.855528   302A      2.864072   303A      2.875010
     304A      2.884486   305A      2.894122   306A      2.916042
     307A      2.979962   308A      2.988789   309A      3.019294
     310A      3.027185   311A      3.042971   312A      3.061476
     313A      3.077216   314A      3.125846   315A      3.163719
     316A      3.202265   317A      3.213792   318A      3.314083
     319A      3.317606   320A      3.372928   321A      3.713079
     322A      3.954428   323A      3.974381

    Final Occupation by Irrep:
              A
    DOCC [    60 ]

  @RHF Final Energy:  -670.29477676419197

   => Energetics <=

    Nuclear Repulsion Energy =           1083.2696844907054583
    One-Electron Energy =               -3058.1954430321429754
    Two-Electron Energy =                1304.6309817772455517
    Total Energy =                       -670.2947767641919654

Computation Completed

Properties will be evaluated at   0.000000,   0.000000,   0.000000 [a0]

Properties computed using the SCF density matrix

  Nuclear Dipole Moment: [e a0]
     X:    -2.6549      Y:    -0.0721      Z:    -6.9769

  Electronic Dipole Moment: [e a0]
     X:     3.2651      Y:    -0.3053      Z:     7.4036

  Dipole Moment: [e a0]
     X:     0.6102      Y:    -0.3774      Z:     0.4267     Total:     0.8348

  Dipole Moment: [D]
     X:     1.5509      Y:    -0.9593      Z:     1.0845     Total:     2.1218

*** tstop() called on ds3 at Tue Apr 28 03:07:12 2020
Module time:
	user time   =     696.68 seconds =      11.61 minutes
	system time =     284.99 seconds =       4.75 minutes
	total time  =       8673 seconds =     144.55 minutes
Total time:
	user time   =     696.68 seconds =      11.61 minutes
	system time =     284.99 seconds =       4.75 minutes
	total time  =       8673 seconds =     144.55 minutes
                                     G D M A

                                 by Anthony Stone

                           version 2.2.06, 22 June 2011

               Distributed Multipoles from Gaussian wavefunctions

Starting at 3:7:12 on 28 Apr 2020

Using SCF density matrix from file ./SSI/SSI-008TRP-035PHE-1-dimer.test.11427.fchk

                         Distributed Multipole Analysis

Standard DMA

Positions and radii in angstrom
Multipole moments in atomic units, ea_0^k for rank k

C          x =  1.944838  y =  2.870456  z =  0.675507 angstrom
           Maximum rank =  0   Radius =  0.650 angstrom
                   Q00  =  -0.205369

C          x =  0.342838  y =  1.121456  z =  1.763507 angstrom
           Maximum rank =  0   Radius =  0.650 angstrom
                   Q00  =  -0.051601

C          x =  1.631838  y =  1.697456  z =  1.532507 angstrom
           Maximum rank =  0   Radius =  0.650 angstrom
                   Q00  =  -0.126447

C          x =  0.524838  y =  0.003456  z =  2.616507 angstrom
           Maximum rank =  0   Radius =  0.650 angstrom
                   Q00  =   0.256317

C          x =  2.517838  y =  0.947456  z =  2.236507 angstrom
           Maximum rank =  0   Radius =  0.650 angstrom
                   Q00  =   0.073840

C          x = -0.942162  y =  1.399456  z =  1.288507 angstrom
           Maximum rank =  0   Radius =  0.650 angstrom
                   Q00  =  -0.096011

C          x = -0.548162  y = -0.784544  z =  3.042507 angstrom
           Maximum rank =  0   Radius =  0.650 angstrom
                   Q00  =  -0.115950

C          x = -2.007162  y =  0.610456  z =  1.696507 angstrom
           Maximum rank =  0   Radius =  0.650 angstrom
                   Q00  =  -0.094382

C          x = -1.811162  y = -0.464544  z =  2.575507 angstrom
           Maximum rank =  0   Radius =  0.650 angstrom
                   Q00  =  -0.034996

N          x =  1.863838  y = -0.061544  z =  2.903507 angstrom
           Maximum rank =  0   Radius =  0.650 angstrom
                   Q00  =  -0.492103

H          x = -1.073162  y =  2.190456  z =  0.580507 angstrom
           Maximum rank =  0   Radius =  0.325 angstrom
                   Q00  =   0.072342

H          x =  1.415838  y =  2.768456  z = -0.271493 angstrom
           Maximum rank =  0   Radius =  0.325 angstrom
                   Q00  =   0.096376

H          x =  3.012838  y =  2.845456  z =  0.453507 angstrom
           Maximum rank =  0   Radius =  0.325 angstrom
                   Q00  =   0.100921

H          x =  3.590838  y =  1.103456  z =  2.254507 angstrom
           Maximum rank =  0   Radius =  0.325 angstrom
                   Q00  =   0.100935

H          x =  2.325838  y = -0.856544  z =  3.351507 angstrom
           Maximum rank =  0   Radius =  0.325 angstrom
                   Q00  =   0.218102

H          x = -0.387162  y = -1.623544  z =  3.705507 angstrom
           Maximum rank =  0   Radius =  0.325 angstrom
                   Q00  =   0.074276

H          x = -3.005162  y =  0.826456  z =  1.339507 angstrom
           Maximum rank =  0   Radius =  0.325 angstrom
                   Q00  =   0.061288

H          x = -2.661162  y = -1.062544  z =  2.878507 angstrom
           Maximum rank =  0   Radius =  0.325 angstrom
                   Q00  =   0.065820

H          x =  1.699638  y =  3.844066  z =  1.124917 angstrom
           Maximum rank =  0   Radius =  0.325 angstrom
                   Q00  =   0.101867

C          x = -2.808162  y = -1.990544  z = -2.785493 angstrom
           Maximum rank =  0   Radius =  0.650 angstrom
                   Q00  =  -0.203150

C          x =  0.388838  y = -0.174544  z = -1.821493 angstrom
           Maximum rank =  0   Radius =  0.650 angstrom
                   Q00  =  -0.068778

C          x =  1.162838  y = -0.372544  z = -2.965493 angstrom
           Maximum rank =  0   Radius =  0.650 angstrom
                   Q00  =  -0.053065

C          x = -0.915162  y = -0.684544  z = -1.761493 angstrom
           Maximum rank =  0   Radius =  0.650 angstrom
                   Q00  =  -0.089825

C          x = -1.431162  y = -1.407544  z = -2.843493 angstrom
           Maximum rank =  0   Radius =  0.650 angstrom
                   Q00  =  -0.099034

C          x =  0.652838  y = -1.091544  z = -4.035493 angstrom
           Maximum rank =  0   Radius =  0.650 angstrom
                   Q00  =  -0.079200

C          x = -0.641162  y = -1.601544  z = -3.978493 angstrom
           Maximum rank =  0   Radius =  0.650 angstrom
                   Q00  =  -0.012868

H          x =  0.795838  y =  0.373456  z = -0.983493 angstrom
           Maximum rank =  0   Radius =  0.325 angstrom
                   Q00  =   0.069780

H          x =  2.171838  y =  0.015456  z = -3.006493 angstrom
           Maximum rank =  0   Radius =  0.325 angstrom
                   Q00  =   0.052973

H          x = -1.505162  y = -0.541544  z = -0.867493 angstrom
           Maximum rank =  0   Radius =  0.325 angstrom
                   Q00  =   0.068890

H          x =  1.270838  y = -1.278544  z = -4.902493 angstrom
           Maximum rank =  0   Radius =  0.325 angstrom
                   Q00  =   0.060554

H          x = -2.976162  y = -2.372544  z = -1.776493 angstrom
           Maximum rank =  0   Radius =  0.325 angstrom
                   Q00  =   0.097475

H          x = -2.866162  y = -2.841544  z = -3.463493 angstrom
           Maximum rank =  0   Radius =  0.325 angstrom
                   Q00  =   0.094346

H          x = -1.023162  y = -2.181544  z = -4.806493 angstrom
           Maximum rank =  0   Radius =  0.325 angstrom
                   Q00  =   0.053945

H          x = -3.612452  y = -1.285984  z = -3.043783 angstrom
           Maximum rank =  0   Radius =  0.325 angstrom
                   Q00  =   0.102733

Total multipoles referred to origin at
           x =   0.000000,  y =    0.000000,  z =    0.000000 angstrom
                   Q00  =  -0.000000

Finished at 3:7:12 on 28 Apr 2020

  DMA results are available in the Python driver through the
	  variable('DMA DISTRIBUTED MULTIPOLES')
  and
	  variable('DMA TOTAL MULTIPOLES')
  commands.

    Psi4 stopped on: Tuesday, 28 April 2020 03:07AM
    Psi4 wall time for execution: 2:24:33.26

*** Psi4 exiting successfully. Buy a developer a beer!
