                               Psi4 1.3.2 release

  ==> Input File <==

--------------------------------------------------------------------------
import numpy as np
set {scf_type pk
basis cc-pvdz
d_convergence 10
gdma_switch   0
gdma_limit    0
gdma_origin   [ 0.0,  0.0,  0.0 ]
}
molecule test {
    units Angstrom
    0 1
    --
    0 1
    C               -0.493648417333242     0.698340249722743     2.354347605048995
    S               -0.058648417333242    -0.464659750277257     1.092347605048994
    H               -0.187648417333242    -1.574659750277256     1.835347605048995
    H                0.132351582666758     0.528340249722743     3.234347605048994
    H               -1.520648417333242     0.465340249722743     2.646347605048994
    H               -0.414598417333242     1.751320249722743     2.046141605048994
    C                0.253351582666758    -0.491659750277257    -2.091652394951006
    C                0.393351582666758     0.850340249722743    -2.767652394951006
    H               -0.685648417333242    -0.654659750277257    -1.574652394951005
    H                0.365351582666758    -1.296659750277257    -2.818652394951006
    H                1.073351582666758    -0.595659750277257    -1.382652394951005
    H                1.368351582666758     1.280340249722744    -2.532652394951006
    H               -0.403288417333242     1.526340249722743    -2.423583394951006
    H                0.310581582666758     0.724980249722743    -3.857346394951005

}
e, wfn = energy('scf', return_wfn=True)
gdma(wfn)
dmavals = variable('DMA DISTRIBUTED MULTIPOLES')
charges = np.array(dmavals)
print(charges)
np.save('SSI-051CYS-156THR-1-dimer.npy', np.array(charges))--------------------------------------------------------------------------

*** tstart() called on ds3
*** at Sun Apr 26 17:16:22 2020

   => Loading Basis Set <=

    Name: CC-PVDZ
    Role: ORBITAL
    Keyword: BASIS
    atoms 1, 7-8    entry C          line   138 file /theoryfs2/ds/metcalf/miniconda2/envs/tf2gpu/share/psi4/basis/cc-pvdz.gbs
    atoms 2         entry S          line   598 file /theoryfs2/ds/metcalf/miniconda2/envs/tf2gpu/share/psi4/basis/cc-pvdz.gbs
    atoms 3-6, 9-14 entry H          line    22 file /theoryfs2/ds/metcalf/miniconda2/envs/tf2gpu/share/psi4/basis/cc-pvdz.gbs

         ---------------------------------------------------------
                                   SCF
               by Justin Turney, Rob Parrish, Andy Simmonett
                          and Daniel G. A. Smith
                              RHF Reference
                        1 Threads,    500 MiB Core
         ---------------------------------------------------------

  ==> Geometry <==

    Molecular point group: c1
    Full point group: C1

    Geometry (in Angstrom), charge = 0, multiplicity = 1:

       Center              X                  Y                   Z               Mass
    ------------   -----------------  -----------------  -----------------  -----------------
         C           -0.493648417333     0.698340249723     2.354347605049    12.000000000000
         S           -0.058648417333    -0.464659750277     1.092347605049    31.972071174400
         H           -0.187648417333    -1.574659750277     1.835347605049     1.007825032230
         H            0.132351582667     0.528340249723     3.234347605049     1.007825032230
         H           -1.520648417333     0.465340249723     2.646347605049     1.007825032230
         H           -0.414598417333     1.751320249723     2.046141605049     1.007825032230
         C            0.253351582667    -0.491659750277    -2.091652394951    12.000000000000
         C            0.393351582667     0.850340249723    -2.767652394951    12.000000000000
         H           -0.685648417333    -0.654659750277    -1.574652394951     1.007825032230
         H            0.365351582667    -1.296659750277    -2.818652394951     1.007825032230
         H            1.073351582667    -0.595659750277    -1.382652394951     1.007825032230
         H            1.368351582667     1.280340249723    -2.532652394951     1.007825032230
         H           -0.403288417333     1.526340249723    -2.423583394951     1.007825032230
         H            0.310581582667     0.724980249723    -3.857346394951     1.007825032230

  Running in c1 symmetry.

  Rotational constants: A =      0.39829  B =      0.05163  C =      0.04702 [cm^-1]
  Rotational constants: A =  11940.51524  B =   1547.71791  C =   1409.66222 [MHz]
  Nuclear repulsion =  161.032871352113631

  Charge       = 0
  Multiplicity = 1
  Electrons    = 44
  Nalpha       = 22
  Nbeta        = 22

  ==> Algorithm <==

  SCF Algorithm Type is PK.
  DIIS enabled.
  MOM disabled.
  Fractional occupation disabled.
  Guess Type is SAD.
  Energy threshold   = 1.00e-06
  Density threshold  = 1.00e-10
  Integral threshold = 0.00e+00

  ==> Primary Basis <==

  Basis Set: CC-PVDZ
    Blend: CC-PVDZ
    Number of shells: 56
    Number of basis function: 110
    Number of Cartesian functions: 114
    Spherical Harmonics?: true
    Max angular momentum: 2

  ==> Pre-Iterations <==

   -------------------------------------------------------
    Irrep   Nso     Nmo     Nalpha   Nbeta   Ndocc  Nsocc
   -------------------------------------------------------
     A        110     110       0       0       0       0
   -------------------------------------------------------
    Total     110     110      22      22      22       0
   -------------------------------------------------------

  ==> Integral Setup <==

  Using in-core PK algorithm.
   Calculation information:
      Number of atoms:                  14
      Number of AO shells:              56
      Number of primitives:            166
      Number of atomic orbitals:       114
      Number of basis functions:       110

      Integral cutoff                 1.00e-12
      Number of threads:                 1

  Performing in-core PK
  Using 37277130 doubles for integral storage.
  We computed 1020960 shell quartets total.
  Whereas there are 1274406 unique shell quartets.

  ==> DiskJK: Disk-Based J/K Matrices <==

    J tasked:                  Yes
    K tasked:                  Yes
    wK tasked:                  No
    Memory [MiB]:              375
    Schwarz Cutoff:          1E-12

    OpenMP threads:              1

  Minimum eigenvalue in the overlap matrix is 7.2013554542E-03.
  Using Symmetric Orthogonalization.

  SCF Guess: Superposition of Atomic Densities via on-the-fly atomic UHF.

  ==> Iterations <==

                        Total Energy        Delta E     RMS |[F,P]|

   @RHF iter SAD:  -516.11017313653542   -5.16110e+02   0.00000e+00
   @RHF iter   1:  -516.80948503289528   -6.99312e-01   3.95018e-03 DIIS
   @RHF iter   2:  -516.92145354126183   -1.11969e-01   1.64404e-03 DIIS
   @RHF iter   3:  -516.93956708261396   -1.81135e-02   3.57651e-04 DIIS
   @RHF iter   4:  -516.94124049230254   -1.67341e-03   5.90608e-05 DIIS
   @RHF iter   5:  -516.94128249116454   -4.19989e-05   1.57185e-05 DIIS
   @RHF iter   6:  -516.94128527022247   -2.77906e-06   4.01968e-06 DIIS
   @RHF iter   7:  -516.94128546622369   -1.96001e-07   1.02202e-06 DIIS
   @RHF iter   8:  -516.94128548063998   -1.44163e-08   2.86414e-07 DIIS
   @RHF iter   9:  -516.94128548193146   -1.29148e-09   7.01177e-08 DIIS
   @RHF iter  10:  -516.94128548202536   -9.39053e-11   1.45881e-08 DIIS
   @RHF iter  11:  -516.94128548202968   -4.32010e-12   4.79456e-09 DIIS
   @RHF iter  12:  -516.94128548203116   -1.47793e-12   1.92211e-09 DIIS
   @RHF iter  13:  -516.94128548203173   -5.68434e-13   5.91596e-10 DIIS
   @RHF iter  14:  -516.94128548203105    6.82121e-13   1.45882e-10 DIIS
   @RHF iter  15:  -516.94128548203048    5.68434e-13   3.63257e-11 DIIS
  Energy and wave function converged.

  ==> Post-Iterations <==

    Orbital Energies [Eh]
    ---------------------

    Doubly Occupied:

       1A    -91.942725     2A    -11.260354     3A    -11.208278
       4A    -11.196429     5A     -8.947310     6A     -6.629264
       7A     -6.627977     8A     -6.625356     9A     -1.047214
      10A     -1.011100    11A     -0.860865    12A     -0.824455
      13A     -0.608158    14A     -0.591722    15A     -0.587426
      16A     -0.585721    17A     -0.540481    18A     -0.500409
      19A     -0.475987    20A     -0.470594    21A     -0.433572
      22A     -0.348612

    Virtual:

      23A      0.152646    24A      0.197892    25A      0.203828
      26A      0.240092    27A      0.243751    28A      0.246382
      29A      0.250949    30A      0.253857    31A      0.278611
      32A      0.331403    33A      0.340648    34A      0.415044
      35A      0.503211    36A      0.557618    37A      0.587850
      38A      0.590501    39A      0.600459    40A      0.616812
      41A      0.627743    42A      0.709505    43A      0.736987
      44A      0.756876    45A      0.780372    46A      0.805155
      47A      0.826076    48A      0.852055    49A      0.857882
      50A      0.868980    51A      0.878630    52A      0.884295
      53A      0.888261    54A      0.891293    55A      0.908835
      56A      0.927162    57A      0.937601    58A      0.963919
      59A      0.978148    60A      1.001062    61A      1.094845
      62A      1.176176    63A      1.209189    64A      1.225736
      65A      1.274821    66A      1.318613    67A      1.354145
      68A      1.474494    69A      1.510422    70A      1.540529
      71A      1.627617    72A      1.660885    73A      1.690562
      74A      1.709988    75A      1.728770    76A      1.731395
      77A      1.838740    78A      1.846600    79A      1.884949
      80A      1.892307    81A      1.913805    82A      1.923724
      83A      1.932202    84A      1.936723    85A      1.977933
      86A      1.984696    87A      1.999010    88A      2.015015
      89A      2.066997    90A      2.221460    91A      2.248228
      92A      2.285268    93A      2.299833    94A      2.344041
      95A      2.365039    96A      2.375151    97A      2.391156
      98A      2.405269    99A      2.435035   100A      2.663661
     101A      2.680647   102A      2.727048   103A      2.761063
     104A      2.772925   105A      2.781624   106A      2.796425
     107A      2.811644   108A      2.819405   109A      2.955305
     110A      2.982473

    Final Occupation by Irrep:
              A
    DOCC [    22 ]

  @RHF Final Energy:  -516.94128548203048

   => Energetics <=

    Nuclear Repulsion Energy =            161.0328713521136308
    One-Electron Energy =               -1029.3003029812330169
    Two-Electron Energy =                 351.3261461470888776
    Total Energy =                       -516.9412854820304801

Computation Completed

Properties will be evaluated at   0.000000,   0.000000,   0.000000 [a0]

Properties computed using the SCF density matrix

  Nuclear Dipole Moment: [e a0]
     X:     0.0342      Y:     2.0080      Z:    -4.4967

  Electronic Dipole Moment: [e a0]
     X:    -0.2199      Y:    -1.9480      Z:     5.1794

  Dipole Moment: [e a0]
     X:    -0.1857      Y:     0.0600      Z:     0.6827     Total:     0.7101

  Dipole Moment: [D]
     X:    -0.4720      Y:     0.1526      Z:     1.7353     Total:     1.8048

*** tstop() called on ds3 at Sun Apr 26 17:16:31 2020
Module time:
	user time   =       9.19 seconds =       0.15 minutes
	system time =       0.31 seconds =       0.01 minutes
	total time  =          9 seconds =       0.15 minutes
Total time:
	user time   =       9.19 seconds =       0.15 minutes
	system time =       0.31 seconds =       0.01 minutes
	total time  =          9 seconds =       0.15 minutes
                                     G D M A

                                 by Anthony Stone

                           version 2.2.06, 22 June 2011

               Distributed Multipoles from Gaussian wavefunctions

Starting at 17:16:31 on 26 Apr 2020

Using SCF density matrix from file ./SSI/SSI-051CYS-156THR-1-dimer.test.18028.fchk

                         Distributed Multipole Analysis

Standard DMA

Positions and radii in angstrom
Multipole moments in atomic units, ea_0^k for rank k

C          x = -0.493648  y =  0.698340  z =  2.354348 angstrom
           Maximum rank =  0   Radius =  0.650 angstrom
                   Q00  =  -0.322067

S          x = -0.058648  y = -0.464660  z =  1.092348 angstrom
           Maximum rank =  0   Radius =  0.650 angstrom
                   Q00  =  -0.101696

H          x = -0.187648  y = -1.574660  z =  1.835348 angstrom
           Maximum rank =  0   Radius =  0.325 angstrom
                   Q00  =   0.108476

H          x =  0.132352  y =  0.528340  z =  3.234348 angstrom
           Maximum rank =  0   Radius =  0.325 angstrom
                   Q00  =   0.091715

H          x = -1.520648  y =  0.465340  z =  2.646348 angstrom
           Maximum rank =  0   Radius =  0.325 angstrom
                   Q00  =   0.086710

H          x = -0.414598  y =  1.751320  z =  2.046142 angstrom
           Maximum rank =  0   Radius =  0.325 angstrom
                   Q00  =   0.121362

C          x =  0.253352  y = -0.491660  z = -2.091652 angstrom
           Maximum rank =  0   Radius =  0.650 angstrom
                   Q00  =  -0.224420

C          x =  0.393352  y =  0.850340  z = -2.767652 angstrom
           Maximum rank =  0   Radius =  0.650 angstrom
                   Q00  =  -0.242709

H          x = -0.685648  y = -0.654660  z = -1.574652 angstrom
           Maximum rank =  0   Radius =  0.325 angstrom
                   Q00  =   0.090351

H          x =  0.365352  y = -1.296660  z = -2.818652 angstrom
           Maximum rank =  0   Radius =  0.325 angstrom
                   Q00  =   0.069770

H          x =  1.073352  y = -0.595660  z = -1.382652 angstrom
           Maximum rank =  0   Radius =  0.325 angstrom
                   Q00  =   0.085269

H          x =  1.368352  y =  1.280340  z = -2.532652 angstrom
           Maximum rank =  0   Radius =  0.325 angstrom
                   Q00  =   0.081410

H          x = -0.403288  y =  1.526340  z = -2.423583 angstrom
           Maximum rank =  0   Radius =  0.325 angstrom
                   Q00  =   0.078206

H          x =  0.310582  y =  0.724980  z = -3.857346 angstrom
           Maximum rank =  0   Radius =  0.325 angstrom
                   Q00  =   0.077623

Total multipoles referred to origin at
           x =   0.000000,  y =    0.000000,  z =    0.000000 angstrom
                   Q00  =   0.000000

Finished at 17:16:31 on 26 Apr 2020

  DMA results are available in the Python driver through the
	  variable('DMA DISTRIBUTED MULTIPOLES')
  and
	  variable('DMA TOTAL MULTIPOLES')
  commands.

    Psi4 stopped on: Sunday, 26 April 2020 05:16PM
    Psi4 wall time for execution: 0:00:09.70

*** Psi4 exiting successfully. Buy a developer a beer!
