                               Psi4 1.3.2 release

  ==> Input File <==

--------------------------------------------------------------------------
import numpy as np
set {scf_type pk
basis cc-pvdz
d_convergence 10
gdma_switch   0
gdma_limit    0
gdma_origin   [ 0.0,  0.0,  0.0 ]
}
molecule test {
    units Angstrom
    0 1
    --
    0 1
    C                2.005719154302727    -2.555933412184412     0.541359641183767
    C               -0.558280845697273     0.260066587815588     0.614359641183767
    C                0.629719154302727    -0.445933412184412     0.427359641183767
    C               -1.688280845697273    -0.398933412184412     1.073359641183766
    C                0.704719154302727    -1.810933412184412     0.707359641183766
    C               -1.634280845697273    -1.765933412184412     1.352359641183767
    C               -0.433280845697273    -2.463933412184412     1.178359641183767
    O               -2.830280845697272     0.312066587815588     1.238359641183767
    H               -0.597280845697273     1.319066587815588     0.411359641183767
    H                1.514719154302727     0.075066587815588     0.089359641183767
    H               -2.698280845697273     1.248066587815588     1.083359641183766
    H               -2.518280845697273    -2.271933412184412     1.708359641183766
    H                2.481719154302727    -2.252933412184412    -0.386640358816233
    H                1.783719154302727    -3.619933412184412     0.446359641183767
    H               -0.391280845697273    -3.519933412184412     1.406359641183767
    H                2.692749154302727    -2.422245412184412     1.389959641183766
    C                1.104719154302727     2.122066587815588    -2.063640358816234
    C                1.431719154302727     2.558066587815588    -3.494640358816234
    C                1.176719154302727     3.236066587815588    -1.025640358816233
    H                0.101719154302727     1.694066587815588    -2.038640358816234
    H                1.801719154302727     1.350066587815588    -1.756640358816233
    H                2.428719154302728     2.991066587815588    -3.502640358816234
    H                0.356719154302727     3.938066587815588    -1.155640358816233
    H                1.096719154302727     2.797066587815588    -0.036640358816233
    H                2.122719154302728     3.770066587815588    -1.097640358816233
    H                1.399619154302727     1.687772587815588    -4.166620358816234
    H                0.727809154302727     3.330000587815588    -3.839070358816234

}
e, wfn = energy('scf', return_wfn=True)
gdma(wfn)
dmavals = variable('DMA DISTRIBUTED MULTIPOLES')
charges = np.array(dmavals)
print(charges)
np.save('SSI-090TYR-095ILE-1-dimer.npy', np.array(charges))--------------------------------------------------------------------------

*** tstart() called on ds3
*** at Tue Apr 28 08:42:31 2020

   => Loading Basis Set <=

    Name: CC-PVDZ
    Role: ORBITAL
    Keyword: BASIS
    atoms 1-7, 17-19  entry C          line   138 file /theoryfs2/ds/metcalf/miniconda2/envs/tf2gpu/share/psi4/basis/cc-pvdz.gbs
    atoms 8           entry O          line   198 file /theoryfs2/ds/metcalf/miniconda2/envs/tf2gpu/share/psi4/basis/cc-pvdz.gbs
    atoms 9-16, 20-27 entry H          line    22 file /theoryfs2/ds/metcalf/miniconda2/envs/tf2gpu/share/psi4/basis/cc-pvdz.gbs

         ---------------------------------------------------------
                                   SCF
               by Justin Turney, Rob Parrish, Andy Simmonett
                          and Daniel G. A. Smith
                              RHF Reference
                        1 Threads,    500 MiB Core
         ---------------------------------------------------------

  ==> Geometry <==

    Molecular point group: c1
    Full point group: C1

    Geometry (in Angstrom), charge = 0, multiplicity = 1:

       Center              X                  Y                   Z               Mass
    ------------   -----------------  -----------------  -----------------  -----------------
         C            2.005719154303    -2.555933412184     0.541359641184    12.000000000000
         C           -0.558280845697     0.260066587816     0.614359641184    12.000000000000
         C            0.629719154303    -0.445933412184     0.427359641184    12.000000000000
         C           -1.688280845697    -0.398933412184     1.073359641184    12.000000000000
         C            0.704719154303    -1.810933412184     0.707359641184    12.000000000000
         C           -1.634280845697    -1.765933412184     1.352359641184    12.000000000000
         C           -0.433280845697    -2.463933412184     1.178359641184    12.000000000000
         O           -2.830280845697     0.312066587816     1.238359641184    15.994914619570
         H           -0.597280845697     1.319066587816     0.411359641184     1.007825032230
         H            1.514719154303     0.075066587816     0.089359641184     1.007825032230
         H           -2.698280845697     1.248066587816     1.083359641184     1.007825032230
         H           -2.518280845697    -2.271933412184     1.708359641184     1.007825032230
         H            2.481719154303    -2.252933412184    -0.386640358816     1.007825032230
         H            1.783719154303    -3.619933412184     0.446359641184     1.007825032230
         H           -0.391280845697    -3.519933412184     1.406359641184     1.007825032230
         H            2.692749154303    -2.422245412184     1.389959641184     1.007825032230
         C            1.104719154303     2.122066587816    -2.063640358816    12.000000000000
         C            1.431719154303     2.558066587816    -3.494640358816    12.000000000000
         C            1.176719154303     3.236066587816    -1.025640358816    12.000000000000
         H            0.101719154303     1.694066587816    -2.038640358816     1.007825032230
         H            1.801719154303     1.350066587816    -1.756640358816     1.007825032230
         H            2.428719154303     2.991066587816    -3.502640358816     1.007825032230
         H            0.356719154303     3.938066587816    -1.155640358816     1.007825032230
         H            1.096719154303     2.797066587816    -0.036640358816     1.007825032230
         H            2.122719154303     3.770066587816    -1.097640358816     1.007825032230
         H            1.399619154303     1.687772587816    -4.166620358816     1.007825032230
         H            0.727809154303     3.330000587816    -3.839070358816     1.007825032230

  Running in c1 symmetry.

  Rotational constants: A =      0.04150  B =      0.01716  C =      0.01312 [cm^-1]
  Rotational constants: A =   1244.11062  B =    514.37864  C =    393.46951 [MHz]
  Nuclear repulsion =  575.777454794572009

  Charge       = 0
  Multiplicity = 1
  Electrons    = 84
  Nalpha       = 42
  Nbeta        = 42

  ==> Algorithm <==

  SCF Algorithm Type is PK.
  DIIS enabled.
  MOM disabled.
  Fractional occupation disabled.
  Guess Type is SAD.
  Energy threshold   = 1.00e-06
  Density threshold  = 1.00e-10
  Integral threshold = 0.00e+00

  ==> Primary Basis <==

  Basis Set: CC-PVDZ
    Blend: CC-PVDZ
    Number of shells: 114
    Number of basis function: 234
    Number of Cartesian functions: 245
    Spherical Harmonics?: true
    Max angular momentum: 2

  ==> Pre-Iterations <==

   -------------------------------------------------------
    Irrep   Nso     Nmo     Nalpha   Nbeta   Ndocc  Nsocc
   -------------------------------------------------------
     A        234     234       0       0       0       0
   -------------------------------------------------------
    Total     234     234      42      42      42       0
   -------------------------------------------------------

  ==> Integral Setup <==

  Using integral reordering PK algorithm.
  Sizing the integral batches needed.
  Building batch lookup table.
   Calculation information:
      Number of atoms:                  27
      Number of AO shells:             114
      Number of primitives:            322
      Number of atomic orbitals:       245
      Number of basis functions:       234

      Integral cutoff                 1.00e-12
      Number of threads:                 1

	Batch   1 pq = [       0,    9405] index = [             0,44231715] size =     44231715
	Batch   2 pq = [    9405,   13301] index = [      44231715,88464951] size =     44233236
	Batch   3 pq = [   13301,   16290] index = [      88464951,132690195] size =     44225244
	Batch   4 pq = [   16290,   18810] index = [     132690195,176917455] size =     44227260
	Batch   5 pq = [   18810,   21030] index = [     176917455,221140965] size =     44223510
	Batch   6 pq = [   21030,   23037] index = [     221140965,265363203] size =     44222238
	Batch   7 pq = [   23037,   24883] index = [     265363203,309594286] size =     44231083
	Batch   8 pq = [   24883,   26601] index = [     309594286,353819901] size =     44225615
	Batch   9 pq = [   26601,   27495] index = [     353819901,378001260] size =     24181359
  Task number: 35
  Buffer size: 11059200
  Buffer per thread: 2
  We computed 18741939 shell quartets total.
  Whereas there are 21487290 unique shell quartets.

  ==> DiskJK: Disk-Based J/K Matrices <==

    J tasked:                  Yes
    K tasked:                  Yes
    wK tasked:                  No
    Memory [MiB]:              375
    Schwarz Cutoff:          1E-12

    OpenMP threads:              1

  Minimum eigenvalue in the overlap matrix is 3.1913103459E-04.
  Using Symmetric Orthogonalization.

  SCF Guess: Superposition of Atomic Densities via on-the-fly atomic UHF.

  ==> Iterations <==

                        Total Energy        Delta E     RMS |[F,P]|

   @RHF iter SAD:  -461.74879662795843   -4.61749e+02   0.00000e+00
   @RHF iter   1:  -462.60520193603134   -8.56405e-01   2.81762e-03 DIIS
   @RHF iter   2:  -462.84853471724199   -2.43333e-01   1.18686e-03 DIIS
   @RHF iter   3:  -462.88760444604389   -3.90697e-02   2.70084e-04 DIIS
   @RHF iter   4:  -462.89087000153773   -3.26556e-03   1.05930e-04 DIIS
   @RHF iter   5:  -462.89122840742937   -3.58406e-04   2.02201e-05 DIIS
   @RHF iter   6:  -462.89124773748256   -1.93301e-05   6.30236e-06 DIIS
   @RHF iter   7:  -462.89124969155972   -1.95408e-06   1.88786e-06 DIIS
   @RHF iter   8:  -462.89124994373503   -2.52175e-07   7.31454e-07 DIIS
   @RHF iter   9:  -462.89124998756813   -4.38331e-08   3.20125e-07 DIIS
   @RHF iter  10:  -462.89124999696651   -9.39838e-09   1.39862e-07 DIIS
   @RHF iter  11:  -462.89125000008636   -3.11985e-09   5.83070e-08 DIIS
   @RHF iter  12:  -462.89125000061802   -5.31656e-10   2.60961e-08 DIIS
   @RHF iter  13:  -462.89125000068827   -7.02585e-11   8.20039e-09 DIIS
   @RHF iter  14:  -462.89125000069293   -4.66116e-12   1.86715e-09 DIIS
   @RHF iter  15:  -462.89125000069134    1.59162e-12   6.28127e-10 DIIS
   @RHF iter  16:  -462.89125000069225   -9.09495e-13   1.84941e-10 DIIS
   @RHF iter  17:  -462.89125000069123    1.02318e-12   6.19113e-11 DIIS
  Energy and wave function converged.

  ==> Post-Iterations <==

    Orbital Energies [Eh]
    ---------------------

    Doubly Occupied:

       1A    -20.581803     2A    -11.298493     3A    -11.238660
       4A    -11.237747     5A    -11.232190     6A    -11.230855
       7A    -11.230759     8A    -11.227254     9A    -11.222118
      10A    -11.220343    11A    -11.219890    12A     -1.403585
      13A     -1.148993    14A     -1.058438    15A     -1.036664
      16A     -1.015869    17A     -0.931622    18A     -0.925934
      19A     -0.844883    20A     -0.804407    21A     -0.799550
      22A     -0.733525    23A     -0.668534    24A     -0.643047
      25A     -0.630550    26A     -0.607172    27A     -0.602946
      28A     -0.587985    29A     -0.582643    30A     -0.572060
      31A     -0.565790    32A     -0.555745    33A     -0.537465
      34A     -0.524608    35A     -0.496916    36A     -0.486215
      37A     -0.476338    38A     -0.475119    39A     -0.470071
      40A     -0.464483    41A     -0.336689    42A     -0.300872

    Virtual:

      43A      0.128617    44A      0.155486    45A      0.168383
      46A      0.182162    47A      0.197476    48A      0.213214
      49A      0.219175    50A      0.230226    51A      0.236329
      52A      0.255264    53A      0.259988    54A      0.268899
      55A      0.278835    56A      0.284867    57A      0.291769
      58A      0.301159    59A      0.326453    60A      0.340471
      61A      0.354333    62A      0.378286    63A      0.397628
      64A      0.420910    65A      0.434675    66A      0.461387
      67A      0.491989    68A      0.495918    69A      0.511479
      70A      0.569710    71A      0.600964    72A      0.606069
      73A      0.608126    74A      0.634960    75A      0.643778
      76A      0.656637    77A      0.660602    78A      0.684382
      79A      0.695197    80A      0.704634    81A      0.709658
      82A      0.730060    83A      0.745514    84A      0.763032
      85A      0.772350    86A      0.775764    87A      0.785363
      88A      0.792520    89A      0.799360    90A      0.814661
      91A      0.831756    92A      0.841179    93A      0.849147
      94A      0.864727    95A      0.878267    96A      0.886564
      97A      0.888764    98A      0.894179    99A      0.898044
     100A      0.904499   101A      0.905947   102A      0.914622
     103A      0.919863   104A      0.930522   105A      0.938556
     106A      0.947451   107A      0.956481   108A      0.963748
     109A      0.986516   110A      0.995100   111A      1.012628
     112A      1.023065   113A      1.059205   114A      1.061531
     115A      1.113429   116A      1.120921   117A      1.135131
     118A      1.147561   119A      1.157761   120A      1.203744
     121A      1.206649   122A      1.212746   123A      1.245257
     124A      1.259423   125A      1.270988   126A      1.285819
     127A      1.296318   128A      1.315636   129A      1.324144
     130A      1.357819   131A      1.361981   132A      1.385762
     133A      1.396207   134A      1.463512   135A      1.487168
     136A      1.491636   137A      1.517058   138A      1.529189
     139A      1.554123   140A      1.562284   141A      1.625359
     142A      1.626720   143A      1.642997   144A      1.680775
     145A      1.681938   146A      1.684872   147A      1.704861
     148A      1.707810   149A      1.733031   150A      1.753474
     151A      1.783253   152A      1.803127   153A      1.804719
     154A      1.859242   155A      1.869935   156A      1.875863
     157A      1.883704   158A      1.886834   159A      1.898425
     160A      1.909577   161A      1.918823   162A      1.923468
     163A      1.931108   164A      1.934583   165A      1.942320
     166A      1.957419   167A      1.958401   168A      1.967684
     169A      1.975641   170A      1.983911   171A      1.985836
     172A      1.998470   173A      2.004252   174A      2.024961
     175A      2.036455   176A      2.037577   177A      2.052362
     178A      2.064099   179A      2.080075   180A      2.095935
     181A      2.130519   182A      2.138979   183A      2.155121
     184A      2.158559   185A      2.188593   186A      2.226656
     187A      2.231556   188A      2.271394   189A      2.278024
     190A      2.293427   191A      2.307803   192A      2.318652
     193A      2.333853   194A      2.338562   195A      2.359054
     196A      2.369236   197A      2.421182   198A      2.467267
     199A      2.476933   200A      2.490162   201A      2.493516
     202A      2.532411   203A      2.535745   204A      2.546824
     205A      2.589221   206A      2.607867   207A      2.618789
     208A      2.648246   209A      2.654334   210A      2.752590
     211A      2.762601   212A      2.771409   213A      2.778024
     214A      2.790752   215A      2.804412   216A      2.825414
     217A      2.829963   218A      2.845083   219A      2.904684
     220A      2.920062   221A      2.956844   222A      2.966920
     223A      2.981570   224A      3.011421   225A      3.069803
     226A      3.089797   227A      3.110684   228A      3.257057
     229A      3.286344   230A      3.354188   231A      3.584656
     232A      3.671151   233A      3.988352   234A      4.194190

    Final Occupation by Irrep:
              A
    DOCC [    42 ]

  @RHF Final Energy:  -462.89125000069123

   => Energetics <=

    Nuclear Repulsion Energy =            575.7774547945720087
    One-Electron Energy =               -1768.8797471893426518
    Two-Electron Energy =                 730.2110423940795272
    Total Energy =                       -462.8912500006912296

Computation Completed

Properties will be evaluated at   0.000000,   0.000000,   0.000000 [a0]

Properties computed using the SCF density matrix

  Nuclear Dipole Moment: [e a0]
     X:    11.5206      Y:     9.4825      Z:   -10.7234

  Electronic Dipole Moment: [e a0]
     X:   -11.0999      Y:    -9.1494      Z:    10.5854

  Dipole Moment: [e a0]
     X:     0.4206      Y:     0.3331      Z:    -0.1380     Total:     0.5540

  Dipole Moment: [D]
     X:     1.0692      Y:     0.8467      Z:    -0.3507     Total:     1.4082

*** tstop() called on ds3 at Tue Apr 28 08:49:39 2020
Module time:
	user time   =     134.23 seconds =       2.24 minutes
	system time =      61.70 seconds =       1.03 minutes
	total time  =        428 seconds =       7.13 minutes
Total time:
	user time   =     134.23 seconds =       2.24 minutes
	system time =      61.70 seconds =       1.03 minutes
	total time  =        428 seconds =       7.13 minutes
                                     G D M A

                                 by Anthony Stone

                           version 2.2.06, 22 June 2011

               Distributed Multipoles from Gaussian wavefunctions

Starting at 8:49:39 on 28 Apr 2020

Using SCF density matrix from file ./SSI/SSI-090TYR-095ILE-1-dimer.test.15900.fchk

                         Distributed Multipole Analysis

Standard DMA

Positions and radii in angstrom
Multipole moments in atomic units, ea_0^k for rank k

C          x =  2.005719  y = -2.555933  z =  0.541360 angstrom
           Maximum rank =  0   Radius =  0.650 angstrom
                   Q00  =  -0.194674

C          x = -0.558281  y =  0.260067  z =  0.614360 angstrom
           Maximum rank =  0   Radius =  0.650 angstrom
                   Q00  =  -0.189888

C          x =  0.629719  y = -0.445933  z =  0.427360 angstrom
           Maximum rank =  0   Radius =  0.650 angstrom
                   Q00  =   0.047560

C          x = -1.688281  y = -0.398933  z =  1.073360 angstrom
           Maximum rank =  0   Radius =  0.650 angstrom
                   Q00  =   0.298488

C          x =  0.704719  y = -1.810933  z =  0.707360 angstrom
           Maximum rank =  0   Radius =  0.650 angstrom
                   Q00  =  -0.140144

C          x = -1.634281  y = -1.765933  z =  1.352360 angstrom
           Maximum rank =  0   Radius =  0.650 angstrom
                   Q00  =  -0.108639

C          x = -0.433281  y = -2.463933  z =  1.178360 angstrom
           Maximum rank =  0   Radius =  0.650 angstrom
                   Q00  =  -0.049787

O          x = -2.830281  y =  0.312067  z =  1.238360 angstrom
           Maximum rank =  0   Radius =  0.650 angstrom
                   Q00  =  -0.645983

H          x = -0.597281  y =  1.319067  z =  0.411360 angstrom
           Maximum rank =  0   Radius =  0.325 angstrom
                   Q00  =   0.068481

H          x =  1.514719  y =  0.075067  z =  0.089360 angstrom
           Maximum rank =  0   Radius =  0.325 angstrom
                   Q00  =   0.066221

H          x = -2.698281  y =  1.248067  z =  1.083360 angstrom
           Maximum rank =  0   Radius =  0.325 angstrom
                   Q00  =   0.405646

H          x = -2.518281  y = -2.271933  z =  1.708360 angstrom
           Maximum rank =  0   Radius =  0.325 angstrom
                   Q00  =   0.082188

H          x =  2.481719  y = -2.252933  z = -0.386640 angstrom
           Maximum rank =  0   Radius =  0.325 angstrom
                   Q00  =   0.097912

H          x =  1.783719  y = -3.619933  z =  0.446360 angstrom
           Maximum rank =  0   Radius =  0.325 angstrom
                   Q00  =   0.094760

H          x = -0.391281  y = -3.519933  z =  1.406360 angstrom
           Maximum rank =  0   Radius =  0.325 angstrom
                   Q00  =   0.065420

H          x =  2.692749  y = -2.422245  z =  1.389960 angstrom
           Maximum rank =  0   Radius =  0.325 angstrom
                   Q00  =   0.099850

C          x =  1.104719  y =  2.122067  z = -2.063640 angstrom
           Maximum rank =  0   Radius =  0.650 angstrom
                   Q00  =  -0.081460

C          x =  1.431719  y =  2.558067  z = -3.494640 angstrom
           Maximum rank =  0   Radius =  0.650 angstrom
                   Q00  =  -0.231499

C          x =  1.176719  y =  3.236067  z = -1.025640 angstrom
           Maximum rank =  0   Radius =  0.650 angstrom
                   Q00  =  -0.253785

H          x =  0.101719  y =  1.694067  z = -2.038640 angstrom
           Maximum rank =  0   Radius =  0.325 angstrom
                   Q00  =   0.049940

H          x =  1.801719  y =  1.350067  z = -1.756640 angstrom
           Maximum rank =  0   Radius =  0.325 angstrom
                   Q00  =   0.040925

H          x =  2.428719  y =  2.991067  z = -3.502640 angstrom
           Maximum rank =  0   Radius =  0.325 angstrom
                   Q00  =   0.076597

H          x =  0.356719  y =  3.938067  z = -1.155640 angstrom
           Maximum rank =  0   Radius =  0.325 angstrom
                   Q00  =   0.077643

H          x =  1.096719  y =  2.797067  z = -0.036640 angstrom
           Maximum rank =  0   Radius =  0.325 angstrom
                   Q00  =   0.078335

H          x =  2.122719  y =  3.770067  z = -1.097640 angstrom
           Maximum rank =  0   Radius =  0.325 angstrom
                   Q00  =   0.080698

H          x =  1.399619  y =  1.687773  z = -4.166620 angstrom
           Maximum rank =  0   Radius =  0.325 angstrom
                   Q00  =   0.088392

H          x =  0.727809  y =  3.330001  z = -3.839070 angstrom
           Maximum rank =  0   Radius =  0.325 angstrom
                   Q00  =   0.076803

Total multipoles referred to origin at
           x =   0.000000,  y =    0.000000,  z =    0.000000 angstrom
                   Q00  =  -0.000000

Finished at 8:49:39 on 28 Apr 2020

  DMA results are available in the Python driver through the
	  variable('DMA DISTRIBUTED MULTIPOLES')
  and
	  variable('DMA TOTAL MULTIPOLES')
  commands.

    Psi4 stopped on: Tuesday, 28 April 2020 08:49AM
    Psi4 wall time for execution: 0:07:08.31

*** Psi4 exiting successfully. Buy a developer a beer!
