                               Psi4 1.3.2 release

  ==> Input File <==

--------------------------------------------------------------------------
import numpy as np
set {scf_type pk
basis cc-pvdz
d_convergence 10
gdma_switch   0
gdma_limit    0
gdma_origin   [ 0.0,  0.0,  0.0 ]
}
molecule test {
    units Angstrom
    0 1
    --
    0 1
    C               -2.127115162956045     1.925516317441468    -0.840574760747488
    O               -1.428115162956045     0.831516317441468    -1.400574760747488
    H               -0.830115162956045     1.182516317441468    -2.075574760747488
    H               -2.351115162956045     2.636516317441468    -1.633574760747488
    H               -3.076445162956045     1.604086317441468    -0.387293760747488
    H               -1.493185162956045     2.428716317441468    -0.095638760747488
    C                1.809884837043955    -0.252483682558532    -0.424574760747488
    C                0.866884837043955    -0.748483682558532     0.636425239252512
    O               -0.354115162956045    -0.641483682558532     0.530425239252512
    N                1.441884837043955    -1.331483682558532     1.679425239252512
    H                2.833884837043955    -0.394483682558532    -0.092574760747488
    H                1.644884837043955     0.818516317441468    -0.554574760747488
    H                0.854884837043955    -1.709483682558532     2.417425239252512
    H                2.452884837043955    -1.320483682558532     1.768425239252512
    H                1.670914837043955    -0.770201682558532    -1.385124760747488

}
e, wfn = energy('scf', return_wfn=True)
gdma(wfn)
dmavals = variable('DMA DISTRIBUTED MULTIPOLES')
charges = np.array(dmavals)
print(charges)
np.save('SSI-070THR-120ASN-1-dimer.npy', np.array(charges))--------------------------------------------------------------------------

*** tstart() called on ds3
*** at Mon Apr 27 15:54:41 2020

   => Loading Basis Set <=

    Name: CC-PVDZ
    Role: ORBITAL
    Keyword: BASIS
    atoms 1, 7-8     entry C          line   138 file /theoryfs2/ds/metcalf/miniconda2/envs/tf2gpu/share/psi4/basis/cc-pvdz.gbs
    atoms 2, 9       entry O          line   198 file /theoryfs2/ds/metcalf/miniconda2/envs/tf2gpu/share/psi4/basis/cc-pvdz.gbs
    atoms 3-6, 11-15 entry H          line    22 file /theoryfs2/ds/metcalf/miniconda2/envs/tf2gpu/share/psi4/basis/cc-pvdz.gbs
    atoms 10         entry N          line   168 file /theoryfs2/ds/metcalf/miniconda2/envs/tf2gpu/share/psi4/basis/cc-pvdz.gbs

         ---------------------------------------------------------
                                   SCF
               by Justin Turney, Rob Parrish, Andy Simmonett
                          and Daniel G. A. Smith
                              RHF Reference
                        1 Threads,    500 MiB Core
         ---------------------------------------------------------

  ==> Geometry <==

    Molecular point group: c1
    Full point group: C1

    Geometry (in Angstrom), charge = 0, multiplicity = 1:

       Center              X                  Y                   Z               Mass
    ------------   -----------------  -----------------  -----------------  -----------------
         C           -2.127115162956     1.925516317441    -0.840574760747    12.000000000000
         O           -1.428115162956     0.831516317441    -1.400574760747    15.994914619570
         H           -0.830115162956     1.182516317441    -2.075574760747     1.007825032230
         H           -2.351115162956     2.636516317441    -1.633574760747     1.007825032230
         H           -3.076445162956     1.604086317441    -0.387293760747     1.007825032230
         H           -1.493185162956     2.428716317441    -0.095638760747     1.007825032230
         C            1.809884837044    -0.252483682559    -0.424574760747    12.000000000000
         C            0.866884837044    -0.748483682559     0.636425239253    12.000000000000
         O           -0.354115162956    -0.641483682559     0.530425239253    15.994914619570
         N            1.441884837044    -1.331483682559     1.679425239253    14.003074004430
         H            2.833884837044    -0.394483682559    -0.092574760747     1.007825032230
         H            1.644884837044     0.818516317441    -0.554574760747     1.007825032230
         H            0.854884837044    -1.709483682559     2.417425239253     1.007825032230
         H            2.452884837044    -1.320483682559     1.768425239253     1.007825032230
         H            1.670914837044    -0.770201682559    -1.385124760747     1.007825032230

  Running in c1 symmetry.

  Rotational constants: A =      0.23787  B =      0.04498  C =      0.04034 [cm^-1]
  Rotational constants: A =   7131.18056  B =   1348.56028  C =   1209.47100 [MHz]
  Nuclear repulsion =  240.113280471061188

  Charge       = 0
  Multiplicity = 1
  Electrons    = 50
  Nalpha       = 25
  Nbeta        = 25

  ==> Algorithm <==

  SCF Algorithm Type is PK.
  DIIS enabled.
  MOM disabled.
  Fractional occupation disabled.
  Guess Type is SAD.
  Energy threshold   = 1.00e-06
  Density threshold  = 1.00e-10
  Integral threshold = 0.00e+00

  ==> Primary Basis <==

  Basis Set: CC-PVDZ
    Blend: CC-PVDZ
    Number of shells: 63
    Number of basis function: 129
    Number of Cartesian functions: 135
    Spherical Harmonics?: true
    Max angular momentum: 2

  ==> Pre-Iterations <==

   -------------------------------------------------------
    Irrep   Nso     Nmo     Nalpha   Nbeta   Ndocc  Nsocc
   -------------------------------------------------------
     A        129     129       0       0       0       0
   -------------------------------------------------------
    Total     129     129      25      25      25       0
   -------------------------------------------------------

  ==> Integral Setup <==

  Using integral reordering PK algorithm.
  Sizing the integral batches needed.
  Building batch lookup table.
   Calculation information:
      Number of atoms:                  15
      Number of AO shells:              63
      Number of primitives:            177
      Number of atomic orbitals:       135
      Number of basis functions:       129

      Integral cutoff                 1.00e-12
      Number of threads:                 1

	Batch   1 pq = [       0,    8385] index = [             0,35158305] size =     35158305
  Task number: 4
  Buffer size: 11059200
  Buffer per thread: 2
  We computed 1755602 shell quartets total.
  Whereas there are 2033136 unique shell quartets.

  ==> DiskJK: Disk-Based J/K Matrices <==

    J tasked:                  Yes
    K tasked:                  Yes
    wK tasked:                  No
    Memory [MiB]:              375
    Schwarz Cutoff:          1E-12

    OpenMP threads:              1

  Minimum eigenvalue in the overlap matrix is 4.3274614531E-03.
  Using Symmetric Orthogonalization.

  SCF Guess: Superposition of Atomic Densities via on-the-fly atomic UHF.

  ==> Iterations <==

                        Total Energy        Delta E     RMS |[F,P]|

   @RHF iter SAD:  -321.68941917198674   -3.21689e+02   0.00000e+00
   @RHF iter   1:  -322.79882321859890   -1.10940e+00   5.18120e-03 DIIS
   @RHF iter   2:  -322.96473271788022   -1.65909e-01   3.14842e-03 DIIS
   @RHF iter   3:  -323.02406085856586   -5.93281e-02   5.77932e-04 DIIS
   @RHF iter   4:  -323.02728541927991   -3.22456e-03   2.30120e-04 DIIS
   @RHF iter   5:  -323.02784133293574   -5.55914e-04   4.88467e-05 DIIS
   @RHF iter   6:  -323.02787992012429   -3.85872e-05   2.19804e-05 DIIS
   @RHF iter   7:  -323.02788846418343   -8.54406e-06   8.20791e-06 DIIS
   @RHF iter   8:  -323.02789010265968   -1.63848e-06   2.84463e-06 DIIS
   @RHF iter   9:  -323.02789029709174   -1.94432e-07   8.63658e-07 DIIS
   @RHF iter  10:  -323.02789031207510   -1.49834e-08   3.01959e-07 DIIS
   @RHF iter  11:  -323.02789031365228   -1.57718e-09   5.40396e-08 DIIS
   @RHF iter  12:  -323.02789031371560   -6.33236e-11   1.42712e-08 DIIS
   @RHF iter  13:  -323.02789031371958   -3.97904e-12   4.07853e-09 DIIS
   @RHF iter  14:  -323.02789031372089   -1.30740e-12   1.51304e-09 DIIS
   @RHF iter  15:  -323.02789031372015    7.38964e-13   4.52563e-10 DIIS
   @RHF iter  16:  -323.02789031371879    1.36424e-12   1.85350e-10 DIIS
   @RHF iter  17:  -323.02789031372043   -1.64846e-12   6.03927e-11 DIIS
  Energy and wave function converged.

  ==> Post-Iterations <==

    Orbital Energies [Eh]
    ---------------------

    Doubly Occupied:

       1A    -20.522177     2A    -20.487113     3A    -15.581904
       4A    -11.335139     5A    -11.255670     6A    -11.236407
       7A     -1.352661     8A     -1.324947     9A     -1.207013
      10A     -0.996161    11A     -0.897301    12A     -0.789593
      13A     -0.718804    14A     -0.657914    15A     -0.644309
      16A     -0.605534    17A     -0.594483    18A     -0.570686
      19A     -0.556346    20A     -0.549074    21A     -0.512775
      22A     -0.468388    23A     -0.419831    24A     -0.390503
      25A     -0.387205

    Virtual:

      26A      0.165692    27A      0.192084    28A      0.206169
      29A      0.224156    30A      0.230249    31A      0.243054
      32A      0.276056    33A      0.286254    34A      0.290435
      35A      0.312062    36A      0.381084    37A      0.392754
      38A      0.479336    39A      0.582812    40A      0.639656
      41A      0.651589    42A      0.658978    43A      0.673690
      44A      0.704815    45A      0.715685    46A      0.743424
      47A      0.751761    48A      0.767257    49A      0.826161
      50A      0.854047    51A      0.861126    52A      0.878064
      53A      0.895114    54A      0.914502    55A      0.922794
      56A      0.935932    57A      0.955915    58A      1.003802
      59A      1.012391    60A      1.051613    61A      1.111013
      62A      1.134405    63A      1.161287    64A      1.181711
      65A      1.194654    66A      1.278717    67A      1.331854
      68A      1.342723    69A      1.383089    70A      1.408156
      71A      1.416923    72A      1.448517    73A      1.457547
      74A      1.522610    75A      1.546767    76A      1.636824
      77A      1.665842    78A      1.676174    79A      1.688237
      80A      1.708583    81A      1.791591    82A      1.827619
      83A      1.866832    84A      1.882204    85A      1.886772
      86A      1.909974    87A      1.924476    88A      1.931441
      89A      1.935190    90A      1.951669    91A      1.989501
      92A      1.998979    93A      2.065998    94A      2.071072
      95A      2.097171    96A      2.129969    97A      2.156747
      98A      2.234552    99A      2.310094   100A      2.328353
     101A      2.385133   102A      2.404916   103A      2.420108
     104A      2.428103   105A      2.461525   106A      2.531429
     107A      2.555301   108A      2.575446   109A      2.642103
     110A      2.751314   111A      2.760079   112A      2.779331
     113A      2.792686   114A      2.799110   115A      2.807429
     116A      2.852883   117A      2.969204   118A      3.105468
     119A      3.146135   120A      3.286935   121A      3.341807
     122A      3.414223   123A      3.486980   124A      3.510789
     125A      3.539793   126A      3.620356   127A      3.895678
     128A      3.923814   129A      4.119533

    Final Occupation by Irrep:
              A
    DOCC [    25 ]

  @RHF Final Energy:  -323.02789031372043

   => Energetics <=

    Nuclear Repulsion Energy =            240.1132804710611879
    One-Electron Energy =                -918.1584630783631837
    Two-Electron Energy =                 355.0172922935815336
    Total Energy =                       -323.0278903137204338

Computation Completed

Properties will be evaluated at   0.000000,   0.000000,   0.000000 [a0]

Properties computed using the SCF density matrix

  Nuclear Dipole Moment: [e a0]
     X:     1.5871      Y:     4.2006      Z:    -1.9201

  Electronic Dipole Moment: [e a0]
     X:     0.0162      Y:    -3.8443      Z:     2.1714

  Dipole Moment: [e a0]
     X:     1.6034      Y:     0.3563      Z:     0.2513     Total:     1.6616

  Dipole Moment: [D]
     X:     4.0753      Y:     0.9056      Z:     0.6388     Total:     4.2233

*** tstop() called on ds3 at Mon Apr 27 15:54:58 2020
Module time:
	user time   =      12.38 seconds =       0.21 minutes
	system time =       5.17 seconds =       0.09 minutes
	total time  =         17 seconds =       0.28 minutes
Total time:
	user time   =      12.38 seconds =       0.21 minutes
	system time =       5.17 seconds =       0.09 minutes
	total time  =         17 seconds =       0.28 minutes
                                     G D M A

                                 by Anthony Stone

                           version 2.2.06, 22 June 2011

               Distributed Multipoles from Gaussian wavefunctions

Starting at 15:54:58 on 27 Apr 2020

Using SCF density matrix from file ./SSI/SSI-070THR-120ASN-1-dimer.test.20773.fchk

                         Distributed Multipole Analysis

Standard DMA

Positions and radii in angstrom
Multipole moments in atomic units, ea_0^k for rank k

C          x = -2.127115  y =  1.925516  z = -0.840575 angstrom
           Maximum rank =  0   Radius =  0.650 angstrom
                   Q00  =  -0.030453

O          x = -1.428115  y =  0.831516  z = -1.400575 angstrom
           Maximum rank =  0   Radius =  0.650 angstrom
                   Q00  =  -0.547779

H          x = -0.830115  y =  1.182516  z = -2.075575 angstrom
           Maximum rank =  0   Radius =  0.325 angstrom
                   Q00  =   0.358448

H          x = -2.351115  y =  2.636516  z = -1.633575 angstrom
           Maximum rank =  0   Radius =  0.325 angstrom
                   Q00  =   0.049835

H          x = -3.076445  y =  1.604086  z = -0.387294 angstrom
           Maximum rank =  0   Radius =  0.325 angstrom
                   Q00  =   0.111252

H          x = -1.493185  y =  2.428716  z = -0.095639 angstrom
           Maximum rank =  0   Radius =  0.325 angstrom
                   Q00  =   0.059178

C          x =  1.809885  y = -0.252484  z = -0.424575 angstrom
           Maximum rank =  0   Radius =  0.650 angstrom
                   Q00  =  -0.266331

C          x =  0.866885  y = -0.748484  z =  0.636425 angstrom
           Maximum rank =  0   Radius =  0.650 angstrom
                   Q00  =   0.826316

O          x = -0.354115  y = -0.641484  z =  0.530425 angstrom
           Maximum rank =  0   Radius =  0.650 angstrom
                   Q00  =  -0.776391

N          x =  1.441885  y = -1.331484  z =  1.679425 angstrom
           Maximum rank =  0   Radius =  0.650 angstrom
                   Q00  =  -0.529253

H          x =  2.833885  y = -0.394484  z = -0.092575 angstrom
           Maximum rank =  0   Radius =  0.325 angstrom
                   Q00  =   0.065606

H          x =  1.644885  y =  0.818516  z = -0.554575 angstrom
           Maximum rank =  0   Radius =  0.325 angstrom
                   Q00  =   0.123171

H          x =  0.854885  y = -1.709484  z =  2.417425 angstrom
           Maximum rank =  0   Radius =  0.325 angstrom
                   Q00  =   0.220366

H          x =  2.452885  y = -1.320484  z =  1.768425 angstrom
           Maximum rank =  0   Radius =  0.325 angstrom
                   Q00  =   0.200598

H          x =  1.670915  y = -0.770202  z = -1.385125 angstrom
           Maximum rank =  0   Radius =  0.325 angstrom
                   Q00  =   0.135439

Total multipoles referred to origin at
           x =   0.000000,  y =    0.000000,  z =    0.000000 angstrom
                   Q00  =  -0.000000

Finished at 15:54:58 on 27 Apr 2020

  DMA results are available in the Python driver through the
	  variable('DMA DISTRIBUTED MULTIPOLES')
  and
	  variable('DMA TOTAL MULTIPOLES')
  commands.

    Psi4 stopped on: Monday, 27 April 2020 03:54PM
    Psi4 wall time for execution: 0:00:17.46

*** Psi4 exiting successfully. Buy a developer a beer!
