                               Psi4 1.3.2 release

  ==> Input File <==

--------------------------------------------------------------------------
import numpy as np
set {scf_type pk
basis cc-pvdz
d_convergence 10
gdma_switch   0
gdma_limit    0
gdma_origin   [ 0.0,  0.0,  0.0 ]
}
molecule test {
    units Angstrom
    -1 1
    --
    -1 1
    C                0.273259582293102    -2.064737666281942     1.129885602083527
    C                0.783259582293102    -0.676737666281942     1.507885602083527
    O                2.011259582293103    -0.426737666281942     1.512885602083527
    O               -0.100740417706898     0.177262333718058     1.783885602083527
    H               -0.509740417706898    -1.980737666281942     0.372885602083527
    H               -0.185740417706898    -2.504737666281942     2.017885602083527
    H                1.050259582293102    -2.758697666281941     0.776765602083527
    C               -0.822740417706898     0.538262333718058    -1.701114397916473
    C                0.155259582293102     1.518262333718058    -2.308114397916473
    C               -2.290740417706898     0.919262333718058    -1.936114397916473
    H               -0.634740417706898    -0.449737666281942    -2.119114397916473
    H               -0.646740417706898     0.497262333718058    -0.631114397916473
    H               -0.080740417706898     2.517262333718059    -1.941114397916473
    H                0.051259582293102     1.507262333718058    -3.393114397916473
    H               -2.504740417706897     1.839262333718058    -1.380114397916473
    H               -2.446740417706898     1.116262333718058    -3.003114397916473
    H                1.192659582293102     1.269712333718058    -2.039734397916473
    H               -2.963080417706898     0.116332333718058    -1.599574397916473

}
e, wfn = energy('scf', return_wfn=True)
gdma(wfn)
dmavals = variable('DMA DISTRIBUTED MULTIPOLES')
charges = np.array(dmavals)
print(charges)
np.save('SSI-221GLU-226LYS-1-dimer.npy', np.array(charges))--------------------------------------------------------------------------

*** tstart() called on ds3
*** at Tue Apr 28 10:37:29 2020

   => Loading Basis Set <=

    Name: CC-PVDZ
    Role: ORBITAL
    Keyword: BASIS
    atoms 1-2, 8-10  entry C          line   138 file /theoryfs2/ds/metcalf/miniconda2/envs/tf2gpu/share/psi4/basis/cc-pvdz.gbs
    atoms 3-4        entry O          line   198 file /theoryfs2/ds/metcalf/miniconda2/envs/tf2gpu/share/psi4/basis/cc-pvdz.gbs
    atoms 5-7, 11-18 entry H          line    22 file /theoryfs2/ds/metcalf/miniconda2/envs/tf2gpu/share/psi4/basis/cc-pvdz.gbs

         ---------------------------------------------------------
                                   SCF
               by Justin Turney, Rob Parrish, Andy Simmonett
                          and Daniel G. A. Smith
                              RHF Reference
                        1 Threads,    500 MiB Core
         ---------------------------------------------------------

  ==> Geometry <==

    Molecular point group: c1
    Full point group: C1

    Geometry (in Angstrom), charge = -1, multiplicity = 1:

       Center              X                  Y                   Z               Mass
    ------------   -----------------  -----------------  -----------------  -----------------
         C            0.273259582293    -2.064737666282     1.129885602084    12.000000000000
         C            0.783259582293    -0.676737666282     1.507885602084    12.000000000000
         O            2.011259582293    -0.426737666282     1.512885602084    15.994914619570
         O           -0.100740417707     0.177262333718     1.783885602084    15.994914619570
         H           -0.509740417707    -1.980737666282     0.372885602084     1.007825032230
         H           -0.185740417707    -2.504737666282     2.017885602084     1.007825032230
         H            1.050259582293    -2.758697666282     0.776765602084     1.007825032230
         C           -0.822740417707     0.538262333718    -1.701114397916    12.000000000000
         C            0.155259582293     1.518262333718    -2.308114397916    12.000000000000
         C           -2.290740417707     0.919262333718    -1.936114397916    12.000000000000
         H           -0.634740417707    -0.449737666282    -2.119114397916     1.007825032230
         H           -0.646740417707     0.497262333718    -0.631114397916     1.007825032230
         H           -0.080740417707     2.517262333718    -1.941114397916     1.007825032230
         H            0.051259582293     1.507262333718    -3.393114397916     1.007825032230
         H           -2.504740417707     1.839262333718    -1.380114397916     1.007825032230
         H           -2.446740417707     1.116262333718    -3.003114397916     1.007825032230
         H            1.192659582293     1.269712333718    -2.039734397916     1.007825032230
         H           -2.963080417707     0.116332333718    -1.599574397916     1.007825032230

  Running in c1 symmetry.

  Rotational constants: A =      0.11783  B =      0.03201  C =      0.02948 [cm^-1]
  Rotational constants: A =   3532.45599  B =    959.60044  C =    883.64172 [MHz]
  Nuclear repulsion =  290.227579915554031

  Charge       = -1
  Multiplicity = 1
  Electrons    = 58
  Nalpha       = 29
  Nbeta        = 29

  ==> Algorithm <==

  SCF Algorithm Type is PK.
  DIIS enabled.
  MOM disabled.
  Fractional occupation disabled.
  Guess Type is SAD.
  Energy threshold   = 1.00e-06
  Density threshold  = 1.00e-10
  Integral threshold = 0.00e+00

  ==> Primary Basis <==

  Basis Set: CC-PVDZ
    Blend: CC-PVDZ
    Number of shells: 75
    Number of basis function: 153
    Number of Cartesian functions: 160
    Spherical Harmonics?: true
    Max angular momentum: 2

  ==> Pre-Iterations <==

   -------------------------------------------------------
    Irrep   Nso     Nmo     Nalpha   Nbeta   Ndocc  Nsocc
   -------------------------------------------------------
     A        153     153       0       0       0       0
   -------------------------------------------------------
    Total     153     153      29      29      29       0
   -------------------------------------------------------

  ==> Integral Setup <==

  Using integral reordering PK algorithm.
  Sizing the integral batches needed.
  Building batch lookup table.
   Calculation information:
      Number of atoms:                  18
      Number of AO shells:              75
      Number of primitives:            209
      Number of atomic orbitals:       160
      Number of basis functions:       153

      Integral cutoff                 1.00e-12
      Number of threads:                 1

	Batch   1 pq = [       0,    9405] index = [             0,44231715] size =     44231715
	Batch   2 pq = [    9405,   11781] index = [      44231715,69401871] size =     25170156
  Task number: 7
  Buffer size: 11059200
  Buffer per thread: 2
  We computed 3518171 shell quartets total.
  Whereas there are 4062675 unique shell quartets.

  ==> DiskJK: Disk-Based J/K Matrices <==

    J tasked:                  Yes
    K tasked:                  Yes
    wK tasked:                  No
    Memory [MiB]:              375
    Schwarz Cutoff:          1E-12

    OpenMP threads:              1

  Minimum eigenvalue in the overlap matrix is 5.1985319997E-03.
  Using Symmetric Orthogonalization.

  SCF Guess: Superposition of Atomic Densities via on-the-fly atomic UHF.

  ==> Iterations <==

                        Total Energy        Delta E     RMS |[F,P]|

   @RHF iter SAD:  -343.85115890063059   -3.43851e+02   0.00000e+00
   @RHF iter   1:  -345.21580552210753   -1.36465e+00   4.97184e-03 DIIS
   @RHF iter   2:  -345.44324770333742   -2.27442e-01   2.77312e-03 DIIS
   @RHF iter   3:  -345.51089955714281   -6.76519e-02   4.31170e-04 DIIS
   @RHF iter   4:  -345.51390762376752   -3.00807e-03   1.62401e-04 DIIS
   @RHF iter   5:  -345.51433389067699   -4.26267e-04   2.41930e-05 DIIS
   @RHF iter   6:  -345.51434621686764   -1.23262e-05   6.56519e-06 DIIS
   @RHF iter   7:  -345.51434711210993   -8.95242e-07   1.82813e-06 DIIS
   @RHF iter   8:  -345.51434720539464   -9.32847e-08   7.34149e-07 DIIS
   @RHF iter   9:  -345.51434722029018   -1.48955e-08   3.02554e-07 DIIS
   @RHF iter  10:  -345.51434722353463   -3.24445e-09   1.66877e-07 DIIS
   @RHF iter  11:  -345.51434722430844   -7.73809e-10   3.40008e-08 DIIS
   @RHF iter  12:  -345.51434722435374   -4.53042e-11   9.48478e-09 DIIS
   @RHF iter  13:  -345.51434722435613   -2.38742e-12   2.82091e-09 DIIS
   @RHF iter  14:  -345.51434722435721   -1.08002e-12   8.20970e-10 DIIS
   @RHF iter  15:  -345.51434722435584    1.36424e-12   2.81156e-10 DIIS
   @RHF iter  16:  -345.51434722435897   -3.12639e-12   1.07011e-10 DIIS
   @RHF iter  17:  -345.51434722435732    1.64846e-12   4.80461e-11 DIIS
  Energy and wave function converged.

  ==> Post-Iterations <==

    Orbital Energies [Eh]
    ---------------------

    Doubly Occupied:

       1A    -20.261271     2A    -20.257389     3A    -11.117784
       4A    -11.108970     5A    -11.099598     6A    -11.088061
       7A    -11.050865     8A     -1.144634     9A     -1.033197
      10A     -0.936254    11A     -0.810840    12A     -0.794907
      13A     -0.675579    14A     -0.508883    15A     -0.501289
      16A     -0.481523    17A     -0.433578    18A     -0.420223
      19A     -0.409625    20A     -0.405910    21A     -0.400591
      22A     -0.358691    23A     -0.349217    24A     -0.345471
      25A     -0.338540    26A     -0.299163    27A     -0.182223
      28A     -0.172028    29A     -0.159474

    Virtual:

      30A      0.291249    31A      0.327484    32A      0.339351
      33A      0.350038    34A      0.371080    35A      0.382983
      36A      0.400353    37A      0.404070    38A      0.408642
      39A      0.428167    40A      0.466241    41A      0.481110
      42A      0.512205    43A      0.545024    44A      0.576844
      45A      0.683293    46A      0.693418    47A      0.718176
      48A      0.723523    49A      0.734278    50A      0.749291
      51A      0.776895    52A      0.852569    53A      0.883702
      54A      0.905312    55A      0.920821    56A      0.959891
      57A      0.966978    58A      0.994566    59A      0.998914
      60A      1.002817    61A      1.011717    62A      1.015948
      63A      1.020874    64A      1.035447    65A      1.038150
      66A      1.049226    67A      1.054289    68A      1.065828
      69A      1.079800    70A      1.096797    71A      1.147182
      72A      1.156479    73A      1.237058    74A      1.248247
      75A      1.263798    76A      1.317621    77A      1.344130
      78A      1.348932    79A      1.404426    80A      1.496762
      81A      1.553798    82A      1.569567    83A      1.581235
      84A      1.598188    85A      1.605810    86A      1.630955
      87A      1.654314    88A      1.677320    89A      1.689535
      90A      1.732834    91A      1.781665    92A      1.787296
      93A      1.795929    94A      1.823361    95A      1.848204
      96A      1.861458    97A      1.980740    98A      1.989992
      99A      1.998472   100A      2.019314   101A      2.035586
     102A      2.043200   103A      2.076826   104A      2.084203
     105A      2.091964   106A      2.102308   107A      2.109581
     108A      2.116696   109A      2.123153   110A      2.128415
     111A      2.146530   112A      2.152559   113A      2.220117
     114A      2.253626   115A      2.279385   116A      2.286104
     117A      2.324807   118A      2.395700   119A      2.412136
     120A      2.433710   121A      2.439721   122A      2.449436
     123A      2.462568   124A      2.608469   125A      2.628304
     126A      2.644990   127A      2.658048   128A      2.706084
     129A      2.712649   130A      2.747652   131A      2.760456
     132A      2.782445   133A      2.865080   134A      2.872645
     135A      2.896986   136A      2.918707   137A      2.925814
     138A      2.970690   139A      3.000763   140A      3.046942
     141A      3.076394   142A      3.091756   143A      3.205969
     144A      3.246496   145A      3.286082   146A      3.294500
     147A      3.368560   148A      3.627023   149A      3.787691
     150A      3.826639   151A      4.054304   152A      4.079071
     153A      4.182628

    Final Occupation by Irrep:
              A
    DOCC [    29 ]

  @RHF Final Energy:  -345.51434722435732

   => Energetics <=

    Nuclear Repulsion Energy =            290.2275799155540312
    One-Electron Energy =               -1057.1923004448985921
    Two-Electron Energy =                 421.4503733049871812
    Total Energy =                       -345.5143472243573228

Computation Completed

Properties will be evaluated at   0.000000,   0.000000,   0.000000 [a0]

Properties computed using the SCF density matrix

  Nuclear Dipole Moment: [e a0]
     X:    -7.1888      Y:     1.0951      Z:   -12.1145

  Electronic Dipole Moment: [e a0]
     X:     5.5761      Y:    -1.2265      Z:     9.4737

  Dipole Moment: [e a0]
     X:    -1.6127      Y:    -0.1314      Z:    -2.6408     Total:     3.0971

  Dipole Moment: [D]
     X:    -4.0990      Y:    -0.3340      Z:    -6.7123     Total:     7.8720

*** tstop() called on ds3 at Tue Apr 28 10:38:00 2020
Module time:
	user time   =      22.30 seconds =       0.37 minutes
	system time =       9.66 seconds =       0.16 minutes
	total time  =         31 seconds =       0.52 minutes
Total time:
	user time   =      22.30 seconds =       0.37 minutes
	system time =       9.66 seconds =       0.16 minutes
	total time  =         31 seconds =       0.52 minutes
                                     G D M A

                                 by Anthony Stone

                           version 2.2.06, 22 June 2011

               Distributed Multipoles from Gaussian wavefunctions

Starting at 10:38:0 on 28 Apr 2020

Using SCF density matrix from file ./SSI/SSI-221GLU-226LYS-1-dimer.test.4919.fchk

                         Distributed Multipole Analysis

Standard DMA

Positions and radii in angstrom
Multipole moments in atomic units, ea_0^k for rank k

C          x =  0.273260  y = -2.064738  z =  1.129886 angstrom
           Maximum rank =  0   Radius =  0.650 angstrom
                   Q00  =  -0.284289

C          x =  0.783260  y = -0.676738  z =  1.507886 angstrom
           Maximum rank =  0   Radius =  0.650 angstrom
                   Q00  =   0.957944

O          x =  2.011260  y = -0.426738  z =  1.512886 angstrom
           Maximum rank =  0   Radius =  0.650 angstrom
                   Q00  =  -0.917509

O          x = -0.100740  y =  0.177262  z =  1.783886 angstrom
           Maximum rank =  0   Radius =  0.650 angstrom
                   Q00  =  -0.930303

H          x = -0.509740  y = -1.980738  z =  0.372886 angstrom
           Maximum rank =  0   Radius =  0.325 angstrom
                   Q00  =   0.071884

H          x = -0.185740  y = -2.504738  z =  2.017886 angstrom
           Maximum rank =  0   Radius =  0.325 angstrom
                   Q00  =   0.071201

H          x =  1.050260  y = -2.758698  z =  0.776766 angstrom
           Maximum rank =  0   Radius =  0.325 angstrom
                   Q00  =   0.044519

C          x = -0.822740  y =  0.538262  z = -1.701114 angstrom
           Maximum rank =  0   Radius =  0.650 angstrom
                   Q00  =  -0.052891

C          x =  0.155260  y =  1.518262  z = -2.308114 angstrom
           Maximum rank =  0   Radius =  0.650 angstrom
                   Q00  =  -0.219370

C          x = -2.290740  y =  0.919262  z = -1.936114 angstrom
           Maximum rank =  0   Radius =  0.650 angstrom
                   Q00  =  -0.236999

H          x = -0.634740  y = -0.449738  z = -2.119114 angstrom
           Maximum rank =  0   Radius =  0.325 angstrom
                   Q00  =   0.019180

H          x = -0.646740  y =  0.497262  z = -0.631114 angstrom
           Maximum rank =  0   Radius =  0.325 angstrom
                   Q00  =   0.083419

H          x = -0.080740  y =  2.517262  z = -1.941114 angstrom
           Maximum rank =  0   Radius =  0.325 angstrom
                   Q00  =   0.066535

H          x =  0.051260  y =  1.507262  z = -3.393114 angstrom
           Maximum rank =  0   Radius =  0.325 angstrom
                   Q00  =   0.033436

H          x = -2.504740  y =  1.839262  z = -1.380114 angstrom
           Maximum rank =  0   Radius =  0.325 angstrom
                   Q00  =   0.076142

H          x = -2.446740  y =  1.116262  z = -3.003114 angstrom
           Maximum rank =  0   Radius =  0.325 angstrom
                   Q00  =   0.038328

H          x =  1.192660  y =  1.269712  z = -2.039734 angstrom
           Maximum rank =  0   Radius =  0.325 angstrom
                   Q00  =   0.099623

H          x = -2.963080  y =  0.116332  z = -1.599574 angstrom
           Maximum rank =  0   Radius =  0.325 angstrom
                   Q00  =   0.079150

Total multipoles referred to origin at
           x =   0.000000,  y =    0.000000,  z =    0.000000 angstrom
                   Q00  =  -1.000000

Finished at 10:38:0 on 28 Apr 2020

  DMA results are available in the Python driver through the
	  variable('DMA DISTRIBUTED MULTIPOLES')
  and
	  variable('DMA TOTAL MULTIPOLES')
  commands.

    Psi4 stopped on: Tuesday, 28 April 2020 10:38AM
    Psi4 wall time for execution: 0:00:31.47

*** Psi4 exiting successfully. Buy a developer a beer!
