                               Psi4 1.3.2 release

  ==> Input File <==

--------------------------------------------------------------------------
import numpy as np
set {scf_type pk
basis cc-pvdz
d_convergence 10
gdma_switch   0
gdma_limit    0
gdma_origin   [ 0.0,  0.0,  0.0 ]
}
molecule test {
    units Angstrom
    0 1
    --
    0 1
    C               -1.344171893214583     2.702682837622147    -0.690091918705798
    C               -2.781171893214583     2.880682837622146    -0.269091918705798
    C               -0.613171893214583     2.295682837622147     0.558908081294202
    H               -0.952171893214583     3.660682837622146    -1.036091918705798
    H               -1.250171893214583     1.955682837622147    -1.478091918705797
    H               -3.248171893214583     3.678682837622147    -0.845091918705798
    H               -3.320171893214583     1.941682837622147    -0.395091918705798
    H                0.427828106785416     2.557682837622147     0.560908081294202
    H               -0.716171893214583     1.219682837622147     0.677908081294202
    H               -2.718191893214584     3.118362837622147     0.803078081294202
    H               -1.162068893214584     2.762862837622146     1.389848081294202
    C                0.638828106785416    -0.315317162377853    -1.844091918705798
    C                1.705828106785417    -1.043317162377853    -2.666091918705798
    C                0.544828106785416    -0.796317162377853    -0.421091918705798
    C                1.543828106785417    -0.475317162377853     0.495908081294202
    C               -0.540171893214584    -1.557317162377853    -0.001091918705798
    C                1.459828106785417    -0.913317162377853     1.812908081294202
    C               -0.627171893214584    -1.996317162377853     1.315908081294203
    C                0.373828106785417    -1.674317162377853     2.222908081294202
    H                0.891828106785416     0.745682837622147    -1.813091918705798
    H               -0.331171893214583    -0.404317162377853    -2.336091918705798
    H                2.606828106785417    -1.129317162377853    -2.058091918705797
    H                2.389828106785417     0.122682837622147     0.186908081294202
    H               -1.327171893214583    -1.811317162377853    -0.696091918705798
    H                2.242828106785416    -0.669317162377853     2.513908081294202
    H               -1.478171893214583    -2.580317162377853     1.637908081294203
    H                0.308828106785417    -2.015317162377853     3.247908081294202
    H                1.955523106785417    -0.465237162377853    -3.568021918705798
    H                1.380479106785417    -2.061837162377853    -2.924501918705798

}
e, wfn = energy('scf', return_wfn=True)
gdma(wfn)
dmavals = variable('DMA DISTRIBUTED MULTIPOLES')
charges = np.array(dmavals)
print(charges)
np.save('SSI-050PRO-058PHE-1-dimer.npy', np.array(charges))--------------------------------------------------------------------------

*** tstart() called on ds3
*** at Sun Apr 26 23:08:58 2020

   => Loading Basis Set <=

    Name: CC-PVDZ
    Role: ORBITAL
    Keyword: BASIS
    atoms 1-3, 12-19  entry C          line   138 file /theoryfs2/ds/metcalf/miniconda2/envs/tf2gpu/share/psi4/basis/cc-pvdz.gbs
    atoms 4-11, 20-29 entry H          line    22 file /theoryfs2/ds/metcalf/miniconda2/envs/tf2gpu/share/psi4/basis/cc-pvdz.gbs

         ---------------------------------------------------------
                                   SCF
               by Justin Turney, Rob Parrish, Andy Simmonett
                          and Daniel G. A. Smith
                              RHF Reference
                        1 Threads,    500 MiB Core
         ---------------------------------------------------------

  ==> Geometry <==

    Molecular point group: c1
    Full point group: C1

    Geometry (in Angstrom), charge = 0, multiplicity = 1:

       Center              X                  Y                   Z               Mass
    ------------   -----------------  -----------------  -----------------  -----------------
         C           -1.344171893215     2.702682837622    -0.690091918706    12.000000000000
         C           -2.781171893215     2.880682837622    -0.269091918706    12.000000000000
         C           -0.613171893215     2.295682837622     0.558908081294    12.000000000000
         H           -0.952171893215     3.660682837622    -1.036091918706     1.007825032230
         H           -1.250171893215     1.955682837622    -1.478091918706     1.007825032230
         H           -3.248171893215     3.678682837622    -0.845091918706     1.007825032230
         H           -3.320171893215     1.941682837622    -0.395091918706     1.007825032230
         H            0.427828106785     2.557682837622     0.560908081294     1.007825032230
         H           -0.716171893215     1.219682837622     0.677908081294     1.007825032230
         H           -2.718191893215     3.118362837622     0.803078081294     1.007825032230
         H           -1.162068893215     2.762862837622     1.389848081294     1.007825032230
         C            0.638828106785    -0.315317162378    -1.844091918706    12.000000000000
         C            1.705828106785    -1.043317162378    -2.666091918706    12.000000000000
         C            0.544828106785    -0.796317162378    -0.421091918706    12.000000000000
         C            1.543828106785    -0.475317162378     0.495908081294    12.000000000000
         C           -0.540171893215    -1.557317162378    -0.001091918706    12.000000000000
         C            1.459828106785    -0.913317162378     1.812908081294    12.000000000000
         C           -0.627171893215    -1.996317162378     1.315908081294    12.000000000000
         C            0.373828106785    -1.674317162378     2.222908081294    12.000000000000
         H            0.891828106785     0.745682837622    -1.813091918706     1.007825032230
         H           -0.331171893215    -0.404317162378    -2.336091918706     1.007825032230
         H            2.606828106785    -1.129317162378    -2.058091918706     1.007825032230
         H            2.389828106785     0.122682837622     0.186908081294     1.007825032230
         H           -1.327171893215    -1.811317162378    -0.696091918706     1.007825032230
         H            2.242828106785    -0.669317162378     2.513908081294     1.007825032230
         H           -1.478171893215    -2.580317162378     1.637908081294     1.007825032230
         H            0.308828106785    -2.015317162378     3.247908081294     1.007825032230
         H            1.955523106785    -0.465237162378    -3.568021918706     1.007825032230
         H            1.380479106785    -2.061837162378    -2.924501918706     1.007825032230

  Running in c1 symmetry.

  Rotational constants: A =      0.03750  B =      0.02232  C =      0.01732 [cm^-1]
  Rotational constants: A =   1124.09211  B =    669.17288  C =    519.23412 [MHz]
  Nuclear repulsion =  595.198678523423041

  Charge       = 0
  Multiplicity = 1
  Electrons    = 84
  Nalpha       = 42
  Nbeta        = 42

  ==> Algorithm <==

  SCF Algorithm Type is PK.
  DIIS enabled.
  MOM disabled.
  Fractional occupation disabled.
  Guess Type is SAD.
  Energy threshold   = 1.00e-06
  Density threshold  = 1.00e-10
  Integral threshold = 0.00e+00

  ==> Primary Basis <==

  Basis Set: CC-PVDZ
    Blend: CC-PVDZ
    Number of shells: 120
    Number of basis function: 244
    Number of Cartesian functions: 255
    Spherical Harmonics?: true
    Max angular momentum: 2

  ==> Pre-Iterations <==

   -------------------------------------------------------
    Irrep   Nso     Nmo     Nalpha   Nbeta   Ndocc  Nsocc
   -------------------------------------------------------
     A        244     244       0       0       0       0
   -------------------------------------------------------
    Total     244     244      42      42      42       0
   -------------------------------------------------------

  ==> Integral Setup <==

  Using integral reordering PK algorithm.
  Sizing the integral batches needed.
  Building batch lookup table.
   Calculation information:
      Number of atoms:                  29
      Number of AO shells:             120
      Number of primitives:            332
      Number of atomic orbitals:       255
      Number of basis functions:       244

      Integral cutoff                 1.00e-12
      Number of threads:                 1

	Batch   1 pq = [       0,    9405] index = [             0,44231715] size =     44231715
	Batch   2 pq = [    9405,   13301] index = [      44231715,88464951] size =     44233236
	Batch   3 pq = [   13301,   16290] index = [      88464951,132690195] size =     44225244
	Batch   4 pq = [   16290,   18810] index = [     132690195,176917455] size =     44227260
	Batch   5 pq = [   18810,   21030] index = [     176917455,221140965] size =     44223510
	Batch   6 pq = [   21030,   23037] index = [     221140965,265363203] size =     44222238
	Batch   7 pq = [   23037,   24883] index = [     265363203,309594286] size =     44231083
	Batch   8 pq = [   24883,   26601] index = [     309594286,353819901] size =     44225615
	Batch   9 pq = [   26601,   28214] index = [     353819901,398029005] size =     44209104
	Batch  10 pq = [   28214,   29740] index = [     398029005,442248670] size =     44219665
	Batch  11 pq = [   29740,   29890] index = [     442248670,446720995] size =      4472325
  Task number: 41
  Buffer size: 11059200
  Buffer per thread: 2
  We computed 28241285 shell quartets total.
  Whereas there are 26357430 unique shell quartets.
     7.15 percent of shell quartets recomputed by reordering.

  ==> DiskJK: Disk-Based J/K Matrices <==

    J tasked:                  Yes
    K tasked:                  Yes
    wK tasked:                  No
    Memory [MiB]:              375
    Schwarz Cutoff:          1E-12

    OpenMP threads:              1

  Minimum eigenvalue in the overlap matrix is 3.0239594882E-04.
  Using Symmetric Orthogonalization.

  SCF Guess: Superposition of Atomic Densities via on-the-fly atomic UHF.

  ==> Iterations <==

                        Total Energy        Delta E     RMS |[F,P]|

   @RHF iter SAD:  -426.14244338395031   -4.26142e+02   0.00000e+00
   @RHF iter   1:  -426.75506706032360   -6.12624e-01   2.64893e-03 DIIS
   @RHF iter   2:  -427.00039082231410   -2.45324e-01   1.12588e-03 DIIS
   @RHF iter   3:  -427.04125116868306   -4.08603e-02   2.43440e-04 DIIS
   @RHF iter   4:  -427.04451333932974   -3.26217e-03   5.90786e-05 DIIS
   @RHF iter   5:  -427.04464179605992   -1.28457e-04   2.02162e-05 DIIS
   @RHF iter   6:  -427.04465776488121   -1.59688e-05   4.45201e-06 DIIS
   @RHF iter   7:  -427.04465876223537   -9.97354e-07   1.20473e-06 DIIS
   @RHF iter   8:  -427.04465884461354   -8.23782e-08   3.44859e-07 DIIS
   @RHF iter   9:  -427.04465885847321   -1.38597e-08   1.49727e-07 DIIS
   @RHF iter  10:  -427.04465886211665   -3.64344e-09   7.78593e-08 DIIS
   @RHF iter  11:  -427.04465886320463   -1.08798e-09   2.80588e-08 DIIS
   @RHF iter  12:  -427.04465886333907   -1.34435e-10   1.11354e-08 DIIS
   @RHF iter  13:  -427.04465886334935   -1.02887e-11   4.68669e-09 DIIS
   @RHF iter  14:  -427.04465886335208   -2.72848e-12   1.24363e-09 DIIS
   @RHF iter  15:  -427.04465886334981    2.27374e-12   4.69349e-10 DIIS
   @RHF iter  16:  -427.04465886335237   -2.55795e-12   2.30457e-10 DIIS
   @RHF iter  17:  -427.04465886335436   -1.98952e-12   9.41481e-11 DIIS
  Energy and wave function converged.

  ==> Post-Iterations <==

    Orbital Energies [Eh]
    ---------------------

    Doubly Occupied:

       1A    -11.237509     2A    -11.235770     3A    -11.235578
       4A    -11.231538     5A    -11.230679     6A    -11.230565
       7A    -11.229610     8A    -11.223849     9A    -11.207049
      10A    -11.206370    11A    -11.197464    12A     -1.156652
      13A     -1.065339    14A     -1.062426    15A     -1.013421
      16A     -0.982410    17A     -0.910589    18A     -0.863062
      19A     -0.826395    20A     -0.792632    21A     -0.786209
      22A     -0.692713    23A     -0.641165    24A     -0.635350
      25A     -0.629343    26A     -0.611122    27A     -0.593624
      28A     -0.587625    29A     -0.577170    30A     -0.543989
      31A     -0.535649    32A     -0.519619    33A     -0.504653
      34A     -0.500056    35A     -0.486567    36A     -0.477222
      37A     -0.476273    38A     -0.468603    39A     -0.459723
      40A     -0.450373    41A     -0.333738    42A     -0.322045

    Virtual:

      43A      0.132701    44A      0.139530    45A      0.175955
      46A      0.194560    47A      0.200492    48A      0.205100
      49A      0.227802    50A      0.234928    51A      0.238131
      52A      0.240084    53A      0.252871    54A      0.261447
      55A      0.271462    56A      0.278888    57A      0.288642
      58A      0.294470    59A      0.305795    60A      0.318729
      61A      0.336330    62A      0.348796    63A      0.355827
      64A      0.385914    65A      0.397662    66A      0.412912
      67A      0.449087    68A      0.454155    69A      0.468619
      70A      0.490659    71A      0.505102    72A      0.564837
      73A      0.573447    74A      0.580509    75A      0.597556
      76A      0.611941    77A      0.623871    78A      0.633579
      79A      0.642109    80A      0.657772    81A      0.682958
      82A      0.704093    83A      0.715193    84A      0.730382
      85A      0.738771    86A      0.741333    87A      0.745293
      88A      0.752756    89A      0.760368    90A      0.780680
      91A      0.793048    92A      0.809402    93A      0.834169
      94A      0.839945    95A      0.849651    96A      0.859559
      97A      0.873723    98A      0.876352    99A      0.883456
     100A      0.886600   101A      0.894004   102A      0.895400
     103A      0.897520   104A      0.910584   105A      0.916772
     106A      0.919922   107A      0.926751   108A      0.928363
     109A      0.932122   110A      0.947008   111A      0.952256
     112A      0.971378   113A      0.977515   114A      0.982907
     115A      0.999766   116A      1.003464   117A      1.029622
     118A      1.033670   119A      1.060133   120A      1.092796
     121A      1.118268   122A      1.121680   123A      1.123061
     124A      1.144225   125A      1.156788   126A      1.165702
     127A      1.204171   128A      1.218742   129A      1.234617
     130A      1.247602   131A      1.253137   132A      1.289323
     133A      1.298196   134A      1.306482   135A      1.314752
     136A      1.325185   137A      1.394767   138A      1.421646
     139A      1.425813   140A      1.441593   141A      1.485268
     142A      1.505664   143A      1.520100   144A      1.531247
     145A      1.605189   146A      1.617398   147A      1.622917
     148A      1.633879   149A      1.653734   150A      1.679829
     151A      1.697587   152A      1.720017   153A      1.741979
     154A      1.749352   155A      1.756332   156A      1.768450
     157A      1.781034   158A      1.801541   159A      1.848728
     160A      1.853626   161A      1.875334   162A      1.877244
     163A      1.886624   164A      1.894803   165A      1.904851
     166A      1.907748   167A      1.910989   168A      1.930658
     169A      1.933829   170A      1.938759   171A      1.942884
     172A      1.949260   173A      1.950909   174A      1.959120
     175A      1.965898   176A      1.974993   177A      1.991914
     178A      1.996569   179A      2.001345   180A      2.010212
     181A      2.020971   182A      2.027109   183A      2.036305
     184A      2.050760   185A      2.074144   186A      2.078470
     187A      2.089206   188A      2.101295   189A      2.116964
     190A      2.126150   191A      2.156845   192A      2.163843
     193A      2.173644   194A      2.181509   195A      2.185923
     196A      2.194521   197A      2.234464   198A      2.245231
     199A      2.256865   200A      2.269115   201A      2.274956
     202A      2.315065   203A      2.316705   204A      2.329934
     205A      2.350161   206A      2.376280   207A      2.386723
     208A      2.450140   209A      2.467058   210A      2.481511
     211A      2.489715   212A      2.510326   213A      2.514451
     214A      2.526607   215A      2.551212   216A      2.584272
     217A      2.594851   218A      2.635736   219A      2.656583
     220A      2.726813   221A      2.750810   222A      2.765465
     223A      2.767868   224A      2.773196   225A      2.792125
     226A      2.801763   227A      2.805294   228A      2.827632
     229A      2.843578   230A      2.867759   231A      2.878046
     232A      2.894745   233A      2.902884   234A      2.939778
     235A      2.962796   236A      2.979264   237A      3.010908
     238A      3.042866   239A      3.059891   240A      3.087657
     241A      3.189113   242A      3.207433   243A      3.310929
     244A      3.979814

    Final Occupation by Irrep:
              A
    DOCC [    42 ]

  @RHF Final Energy:  -427.04465886335436

   => Energetics <=

    Nuclear Repulsion Energy =            595.1986785234230410
    One-Electron Energy =               -1756.5431941166334582
    Two-Electron Energy =                 734.2998567298560602
    Total Energy =                       -427.0446588633543570

Computation Completed

Properties will be evaluated at   0.000000,   0.000000,   0.000000 [a0]

Properties computed using the SCF density matrix

  Nuclear Dipole Moment: [e a0]
     X:    -4.0308      Y:     9.9622      Z:    -5.7485

  Electronic Dipole Moment: [e a0]
     X:     4.1147      Y:   -10.0091      Z:     5.6627

  Dipole Moment: [e a0]
     X:     0.0839      Y:    -0.0469      Z:    -0.0858     Total:     0.1288

  Dipole Moment: [D]
     X:     0.2133      Y:    -0.1193      Z:    -0.2180     Total:     0.3275

*** tstop() called on ds3 at Sun Apr 26 23:16:21 2020
Module time:
	user time   =     192.22 seconds =       3.20 minutes
	system time =      61.18 seconds =       1.02 minutes
	total time  =        443 seconds =       7.38 minutes
Total time:
	user time   =     192.22 seconds =       3.20 minutes
	system time =      61.18 seconds =       1.02 minutes
	total time  =        443 seconds =       7.38 minutes
                                     G D M A

                                 by Anthony Stone

                           version 2.2.06, 22 June 2011

               Distributed Multipoles from Gaussian wavefunctions

Starting at 23:16:21 on 26 Apr 2020

Using SCF density matrix from file ./SSI/SSI-050PRO-058PHE-1-dimer.test.24759.fchk

                         Distributed Multipole Analysis

Standard DMA

Positions and radii in angstrom
Multipole moments in atomic units, ea_0^k for rank k

C          x = -1.344172  y =  2.702683  z = -0.690092 angstrom
           Maximum rank =  0   Radius =  0.650 angstrom
                   Q00  =  -0.109030

C          x = -2.781172  y =  2.880683  z = -0.269092 angstrom
           Maximum rank =  0   Radius =  0.650 angstrom
                   Q00  =  -0.227510

C          x = -0.613172  y =  2.295683  z =  0.558908 angstrom
           Maximum rank =  0   Radius =  0.650 angstrom
                   Q00  =  -0.204214

H          x = -0.952172  y =  3.660683  z = -1.036092 angstrom
           Maximum rank =  0   Radius =  0.325 angstrom
                   Q00  =   0.045404

H          x = -1.250172  y =  1.955683  z = -1.478092 angstrom
           Maximum rank =  0   Radius =  0.325 angstrom
                   Q00  =   0.049158

H          x = -3.248172  y =  3.678683  z = -0.845092 angstrom
           Maximum rank =  0   Radius =  0.325 angstrom
                   Q00  =   0.084246

H          x = -3.320172  y =  1.941683  z = -0.395092 angstrom
           Maximum rank =  0   Radius =  0.325 angstrom
                   Q00  =   0.080991

H          x =  0.427828  y =  2.557683  z =  0.560908 angstrom
           Maximum rank =  0   Radius =  0.325 angstrom
                   Q00  =   0.076266

H          x = -0.716172  y =  1.219683  z =  0.677908 angstrom
           Maximum rank =  0   Radius =  0.325 angstrom
                   Q00  =   0.085308

H          x = -2.718192  y =  3.118363  z =  0.803078 angstrom
           Maximum rank =  0   Radius =  0.325 angstrom
                   Q00  =   0.062161

H          x = -1.162069  y =  2.762863  z =  1.389848 angstrom
           Maximum rank =  0   Radius =  0.325 angstrom
                   Q00  =   0.046944

C          x =  0.638828  y = -0.315317  z = -1.844092 angstrom
           Maximum rank =  0   Radius =  0.650 angstrom
                   Q00  =  -0.041883

C          x =  1.705828  y = -1.043317  z = -2.666092 angstrom
           Maximum rank =  0   Radius =  0.650 angstrom
                   Q00  =  -0.228446

C          x =  0.544828  y = -0.796317  z = -0.421092 angstrom
           Maximum rank =  0   Radius =  0.650 angstrom
                   Q00  =  -0.102009

C          x =  1.543828  y = -0.475317  z =  0.495908 angstrom
           Maximum rank =  0   Radius =  0.650 angstrom
                   Q00  =  -0.060623

C          x = -0.540172  y = -1.557317  z = -0.001092 angstrom
           Maximum rank =  0   Radius =  0.650 angstrom
                   Q00  =  -0.008332

C          x =  1.459828  y = -0.913317  z =  1.812908 angstrom
           Maximum rank =  0   Radius =  0.650 angstrom
                   Q00  =  -0.076940

C          x = -0.627172  y = -1.996317  z =  1.315908 angstrom
           Maximum rank =  0   Radius =  0.650 angstrom
                   Q00  =  -0.078328

C          x =  0.373828  y = -1.674317  z =  2.222908 angstrom
           Maximum rank =  0   Radius =  0.650 angstrom
                   Q00  =  -0.079090

H          x =  0.891828  y =  0.745683  z = -1.813092 angstrom
           Maximum rank =  0   Radius =  0.325 angstrom
                   Q00  =   0.066597

H          x = -0.331172  y = -0.404317  z = -2.336092 angstrom
           Maximum rank =  0   Radius =  0.325 angstrom
                   Q00  =   0.065109

H          x =  2.606828  y = -1.129317  z = -2.058092 angstrom
           Maximum rank =  0   Radius =  0.325 angstrom
                   Q00  =   0.083200

H          x =  2.389828  y =  0.122683  z =  0.186908 angstrom
           Maximum rank =  0   Radius =  0.325 angstrom
                   Q00  =   0.056791

H          x = -1.327172  y = -1.811317  z = -0.696092 angstrom
           Maximum rank =  0   Radius =  0.325 angstrom
                   Q00  =   0.055755

H          x =  2.242828  y = -0.669317  z =  2.513908 angstrom
           Maximum rank =  0   Radius =  0.325 angstrom
                   Q00  =   0.064800

H          x = -1.478172  y = -2.580317  z =  1.637908 angstrom
           Maximum rank =  0   Radius =  0.325 angstrom
                   Q00  =   0.064522

H          x =  0.308828  y = -2.015317  z =  3.247908 angstrom
           Maximum rank =  0   Radius =  0.325 angstrom
                   Q00  =   0.061640

H          x =  1.955523  y = -0.465237  z = -3.568022 angstrom
           Maximum rank =  0   Radius =  0.325 angstrom
                   Q00  =   0.083620

H          x =  1.380479  y = -2.061837  z = -2.924502 angstrom
           Maximum rank =  0   Radius =  0.325 angstrom
                   Q00  =   0.083892

Total multipoles referred to origin at
           x =   0.000000,  y =    0.000000,  z =    0.000000 angstrom
                   Q00  =  -0.000000

Finished at 23:16:21 on 26 Apr 2020

  DMA results are available in the Python driver through the
	  variable('DMA DISTRIBUTED MULTIPOLES')
  and
	  variable('DMA TOTAL MULTIPOLES')
  commands.

    Psi4 stopped on: Sunday, 26 April 2020 11:16PM
    Psi4 wall time for execution: 0:07:23.17

*** Psi4 exiting successfully. Buy a developer a beer!
