                               Psi4 1.3.2 release

  ==> Input File <==

--------------------------------------------------------------------------
import numpy as np
set {scf_type pk
basis cc-pvdz
d_convergence 10
gdma_switch   0
gdma_limit    0
gdma_origin   [ 0.0,  0.0,  0.0 ]
}
molecule test {
    units Angstrom
    0 1
    --
    0 1
    C                1.658770617344799     0.702313638484322    -1.929652344122080
    C                2.672770617344799    -0.223686361515678    -2.622652344122080
    C                0.670770617344799     1.316313638484322    -2.895652344122080
    O                0.515770617344799     0.869313638484322    -4.030652344122080
    N               -0.023229382655201     2.349313638484323    -2.448652344122080
    H                1.109770617344799     0.181313638484322    -1.150652344122080
    H                2.162770617344799     1.543313638484322    -1.456652344122080
    H                2.902770617344799     0.193313638484322    -3.606652344122080
    H               -0.692229382655201     2.786313638484322    -3.065652344122080
    H                0.131770617344799     2.705313638484322    -1.516652344122080
    H                2.253680617344799    -1.229044361515678    -2.776352344122080
    H                3.637630617344799    -0.222243361515678    -2.094352344122079
    C                1.779770617344799    -0.342686361515678     3.345347655877920
    C                0.143770617344799     0.339313638484322     1.560347655877920
    C                0.474770617344799    -0.509686361515678     2.618347655877920
    C               -1.045229382655201     0.164313638484322     0.852347655877920
    C               -1.911229382655201    -0.869686361515678     1.202347655877920
    C               -0.400229382655201    -1.541686361515678     2.961347655877921
    C               -1.589229382655201    -1.729686361515678     2.254347655877921
    O               -3.075229382655201    -1.028686361515678     0.511347655877920
    H                0.816770617344799     1.142313638484322     1.287347655877920
    H               -1.296229382655201     0.832313638484322     0.040347655877920
    H                1.750770617344799    -0.901686361515678     4.281347655877919
    H                1.898770617344799     0.714313638484322     3.589347655877920
    H               -0.152229382655201    -2.205686361515678     3.779347655877920
    H               -3.182229382655201    -0.358686361515678    -0.173652344122080
    H               -2.266229382655201    -2.529686361515678     2.519347655877920
    H                2.639900617344799    -0.677022361515678     2.746647655877920

}
e, wfn = energy('scf', return_wfn=True)
gdma(wfn)
dmavals = variable('DMA DISTRIBUTED MULTIPOLES')
charges = np.array(dmavals)
print(charges)
np.save('SSI-085ASN-099TYR-1-dimer.npy', np.array(charges))--------------------------------------------------------------------------

*** tstart() called on ds3
*** at Sun Apr 26 17:16:29 2020

   => Loading Basis Set <=

    Name: CC-PVDZ
    Role: ORBITAL
    Keyword: BASIS
    atoms 1-3, 13-19  entry C          line   138 file /theoryfs2/ds/metcalf/miniconda2/envs/tf2gpu/share/psi4/basis/cc-pvdz.gbs
    atoms 4, 20       entry O          line   198 file /theoryfs2/ds/metcalf/miniconda2/envs/tf2gpu/share/psi4/basis/cc-pvdz.gbs
    atoms 5           entry N          line   168 file /theoryfs2/ds/metcalf/miniconda2/envs/tf2gpu/share/psi4/basis/cc-pvdz.gbs
    atoms 6-12, 21-28 entry H          line    22 file /theoryfs2/ds/metcalf/miniconda2/envs/tf2gpu/share/psi4/basis/cc-pvdz.gbs

         ---------------------------------------------------------
                                   SCF
               by Justin Turney, Rob Parrish, Andy Simmonett
                          and Daniel G. A. Smith
                              RHF Reference
                        1 Threads,    500 MiB Core
         ---------------------------------------------------------

  ==> Geometry <==

    Molecular point group: c1
    Full point group: C1

    Geometry (in Angstrom), charge = 0, multiplicity = 1:

       Center              X                  Y                   Z               Mass
    ------------   -----------------  -----------------  -----------------  -----------------
         C            1.658770617345     0.702313638484    -1.929652344122    12.000000000000
         C            2.672770617345    -0.223686361516    -2.622652344122    12.000000000000
         C            0.670770617345     1.316313638484    -2.895652344122    12.000000000000
         O            0.515770617345     0.869313638484    -4.030652344122    15.994914619570
         N           -0.023229382655     2.349313638484    -2.448652344122    14.003074004430
         H            1.109770617345     0.181313638484    -1.150652344122     1.007825032230
         H            2.162770617345     1.543313638484    -1.456652344122     1.007825032230
         H            2.902770617345     0.193313638484    -3.606652344122     1.007825032230
         H           -0.692229382655     2.786313638484    -3.065652344122     1.007825032230
         H            0.131770617345     2.705313638484    -1.516652344122     1.007825032230
         H            2.253680617345    -1.229044361516    -2.776352344122     1.007825032230
         H            3.637630617345    -0.222243361516    -2.094352344122     1.007825032230
         C            1.779770617345    -0.342686361516     3.345347655878    12.000000000000
         C            0.143770617345     0.339313638484     1.560347655878    12.000000000000
         C            0.474770617345    -0.509686361516     2.618347655878    12.000000000000
         C           -1.045229382655     0.164313638484     0.852347655878    12.000000000000
         C           -1.911229382655    -0.869686361516     1.202347655878    12.000000000000
         C           -0.400229382655    -1.541686361516     2.961347655878    12.000000000000
         C           -1.589229382655    -1.729686361516     2.254347655878    12.000000000000
         O           -3.075229382655    -1.028686361516     0.511347655878    15.994914619570
         H            0.816770617345     1.142313638484     1.287347655878     1.007825032230
         H           -1.296229382655     0.832313638484     0.040347655878     1.007825032230
         H            1.750770617345    -0.901686361516     4.281347655878     1.007825032230
         H            1.898770617345     0.714313638484     3.589347655878     1.007825032230
         H           -0.152229382655    -2.205686361516     3.779347655878     1.007825032230
         H           -3.182229382655    -0.358686361516    -0.173652344122     1.007825032230
         H           -2.266229382655    -2.529686361516     2.519347655878     1.007825032230
         H            2.639900617345    -0.677022361516     2.746647655878     1.007825032230

  Running in c1 symmetry.

  Rotational constants: A =      0.03267  B =      0.01178  C =      0.00975 [cm^-1]
  Rotational constants: A =    979.32291  B =    353.02265  C =    292.18946 [MHz]
  Nuclear repulsion =  742.219041260219001

  Charge       = 0
  Multiplicity = 1
  Electrons    = 98
  Nalpha       = 49
  Nbeta        = 49

  ==> Algorithm <==

  SCF Algorithm Type is PK.
  DIIS enabled.
  MOM disabled.
  Fractional occupation disabled.
  Guess Type is SAD.
  Energy threshold   = 1.00e-06
  Density threshold  = 1.00e-10
  Integral threshold = 0.00e+00

  ==> Primary Basis <==

  Basis Set: CC-PVDZ
    Blend: CC-PVDZ
    Number of shells: 123
    Number of basis function: 257
    Number of Cartesian functions: 270
    Spherical Harmonics?: true
    Max angular momentum: 2

  ==> Pre-Iterations <==

   -------------------------------------------------------
    Irrep   Nso     Nmo     Nalpha   Nbeta   Ndocc  Nsocc
   -------------------------------------------------------
     A        257     257       0       0       0       0
   -------------------------------------------------------
    Total     257     257      49      49      49       0
   -------------------------------------------------------

  ==> Integral Setup <==

  Using integral reordering PK algorithm.
  Sizing the integral batches needed.
  Building batch lookup table.
   Calculation information:
      Number of atoms:                  28
      Number of AO shells:             123
      Number of primitives:            361
      Number of atomic orbitals:       270
      Number of basis functions:       257

      Integral cutoff                 1.00e-12
      Number of threads:                 1

	Batch   1 pq = [       0,    9405] index = [             0,44231715] size =     44231715
	Batch   2 pq = [    9405,   13301] index = [      44231715,88464951] size =     44233236
	Batch   3 pq = [   13301,   16290] index = [      88464951,132690195] size =     44225244
	Batch   4 pq = [   16290,   18810] index = [     132690195,176917455] size =     44227260
	Batch   5 pq = [   18810,   21030] index = [     176917455,221140965] size =     44223510
	Batch   6 pq = [   21030,   23037] index = [     221140965,265363203] size =     44222238
	Batch   7 pq = [   23037,   24883] index = [     265363203,309594286] size =     44231083
	Batch   8 pq = [   24883,   26601] index = [     309594286,353819901] size =     44225615
	Batch   9 pq = [   26601,   28214] index = [     353819901,398029005] size =     44209104
	Batch  10 pq = [   28214,   29740] index = [     398029005,442248670] size =     44219665
	Batch  11 pq = [   29740,   31191] index = [     442248670,486454836] size =     44206166
	Batch  12 pq = [   31191,   32578] index = [     486454836,530679331] size =     44224495
	Batch  13 pq = [   32578,   33153] index = [     530679331,549577281] size =     18897950
  Task number: 50
  Buffer size: 11059200
  Buffer per thread: 2
  We computed 25863070 shell quartets total.
  Whereas there are 29081751 unique shell quartets.

  ==> DiskJK: Disk-Based J/K Matrices <==

    J tasked:                  Yes
    K tasked:                  Yes
    wK tasked:                  No
    Memory [MiB]:              375
    Schwarz Cutoff:          1E-12

    OpenMP threads:              1

  Minimum eigenvalue in the overlap matrix is 3.2637399356E-04.
  Using Symmetric Orthogonalization.

  SCF Guess: Superposition of Atomic Densities via on-the-fly atomic UHF.

  ==> Iterations <==

                        Total Energy        Delta E     RMS |[F,P]|

   @RHF iter SAD:  -590.26212833848490   -5.90262e+02   0.00000e+00
   @RHF iter   1:  -591.29799338114219   -1.03587e+00   3.02859e-03 DIIS
   @RHF iter   2:  -591.57772819312538   -2.79735e-01   1.59456e-03 DIIS
   @RHF iter   3:  -591.64524175661063   -6.75136e-02   3.75066e-04 DIIS
   @RHF iter   4:  -591.65057909265761   -5.33734e-03   1.50733e-04 DIIS
   @RHF iter   5:  -591.65146022217164   -8.81130e-04   2.22276e-05 DIIS
   @RHF iter   6:  -591.65150158145980   -4.13593e-05   9.84073e-06 DIIS
   @RHF iter   7:  -591.65150784812784   -6.26667e-06   3.90843e-06 DIIS
   @RHF iter   8:  -591.65150918546658   -1.33734e-06   1.60086e-06 DIIS
   @RHF iter   9:  -591.65150939395517   -2.08489e-07   5.76311e-07 DIIS
   @RHF iter  10:  -591.65150942121545   -2.72603e-08   2.04245e-07 DIIS
   @RHF iter  11:  -591.65150942466596   -3.45051e-09   6.46126e-08 DIIS
   @RHF iter  12:  -591.65150942505363   -3.87672e-10   2.80355e-08 DIIS
   @RHF iter  13:  -591.65150942513731   -8.36735e-11   1.14610e-08 DIIS
   @RHF iter  14:  -591.65150942515822   -2.09184e-11   5.31187e-09 DIIS
   @RHF iter  15:  -591.65150942516300   -4.77485e-12   2.18760e-09 DIIS
   @RHF iter  16:  -591.65150942516550   -2.50111e-12   6.84148e-10 DIIS
   @RHF iter  17:  -591.65150942515970    5.79803e-12   2.41969e-10 DIIS
   @RHF iter  18:  -591.65150942515709    2.61480e-12   8.47756e-11 DIIS
  Energy and wave function converged.

  ==> Post-Iterations <==

    Orbital Energies [Eh]
    ---------------------

    Doubly Occupied:

       1A    -20.587330     2A    -20.506228     3A    -15.593148
       4A    -11.344885     5A    -11.306784     6A    -11.247946
       7A    -11.245310     8A    -11.241972     9A    -11.240084
      10A    -11.239496    11A    -11.237718    12A    -11.233729
      13A    -11.222211    14A     -1.403909    15A     -1.370500
      16A     -1.221657    17A     -1.156695    18A     -1.044832
      19A     -1.043756    20A     -1.024767    21A     -0.931553
      22A     -0.891039    23A     -0.851269    24A     -0.808333
      25A     -0.787178    26A     -0.737736    27A     -0.726366
      28A     -0.674420    29A     -0.665407    30A     -0.648546
      31A     -0.635756    32A     -0.614363    33A     -0.594870
      34A     -0.591579    35A     -0.585350    36A     -0.576888
      37A     -0.572085    38A     -0.554859    39A     -0.532091
      40A     -0.515829    41A     -0.505058    42A     -0.502477
      43A     -0.493687    44A     -0.491546    45A     -0.471678
      46A     -0.410933    47A     -0.407080    48A     -0.345709
      49A     -0.306976

    Virtual:

      50A      0.121175    51A      0.143499    52A      0.146396
      53A      0.176167    54A      0.189550    55A      0.197323
      56A      0.203936    57A      0.212575    58A      0.216731
      59A      0.248327    60A      0.251215    61A      0.257558
      62A      0.267329    63A      0.275096    64A      0.278919
      65A      0.286489    66A      0.290568    67A      0.322764
      68A      0.363276    69A      0.366574    70A      0.386704
      71A      0.420639    72A      0.424529    73A      0.448892
      74A      0.471761    75A      0.479716    76A      0.488814
      77A      0.504688    78A      0.545663    79A      0.603361
      80A      0.614742    81A      0.625587    82A      0.627667
      83A      0.646797    84A      0.652587    85A      0.657793
      86A      0.683994    87A      0.689573    88A      0.702810
      89A      0.713621    90A      0.721497    91A      0.725957
      92A      0.729102    93A      0.747543    94A      0.758170
      95A      0.766019    96A      0.776260    97A      0.780331
      98A      0.790575    99A      0.800087   100A      0.823221
     101A      0.831650   102A      0.838510   103A      0.846454
     104A      0.865941   105A      0.873806   106A      0.878288
     107A      0.886648   108A      0.889055   109A      0.891661
     110A      0.898811   111A      0.902679   112A      0.913979
     113A      0.922085   114A      0.928844   115A      0.939395
     116A      0.941869   117A      0.946022   118A      0.962210
     119A      0.977796   120A      0.993776   121A      1.015278
     122A      1.042366   123A      1.063128   124A      1.074778
     125A      1.086618   126A      1.107166   127A      1.112386
     128A      1.127044   129A      1.142544   130A      1.150798
     131A      1.196258   132A      1.212824   133A      1.235631
     134A      1.246135   135A      1.266847   136A      1.281008
     137A      1.284147   138A      1.294474   139A      1.300564
     140A      1.314911   141A      1.321098   142A      1.343367
     143A      1.353863   144A      1.372196   145A      1.382533
     146A      1.384056   147A      1.402998   148A      1.430482
     149A      1.460013   150A      1.481374   151A      1.497773
     152A      1.505607   153A      1.524517   154A      1.555218
     155A      1.611260   156A      1.616041   157A      1.623509
     158A      1.663174   159A      1.677559   160A      1.689536
     161A      1.692768   162A      1.721743   163A      1.733739
     164A      1.737651   165A      1.772597   166A      1.775281
     167A      1.792918   168A      1.795271   169A      1.801417
     170A      1.828069   171A      1.857523   172A      1.868401
     173A      1.878175   174A      1.885044   175A      1.899612
     176A      1.901991   177A      1.911538   178A      1.912437
     179A      1.921980   180A      1.936028   181A      1.941563
     182A      1.954823   183A      1.956525   184A      1.960912
     185A      1.979664   186A      1.988484   187A      2.000138
     188A      2.009727   189A      2.021716   190A      2.035327
     191A      2.045940   192A      2.055386   193A      2.062185
     194A      2.063386   195A      2.107104   196A      2.120959
     197A      2.131191   198A      2.140986   199A      2.165494
     200A      2.177793   201A      2.198020   202A      2.211846
     203A      2.222776   204A      2.255409   205A      2.265193
     206A      2.290460   207A      2.295341   208A      2.314550
     209A      2.334254   210A      2.360510   211A      2.379223
     212A      2.402859   213A      2.419795   214A      2.438340
     215A      2.452640   216A      2.472474   217A      2.493982
     218A      2.521238   219A      2.535842   220A      2.547426
     221A      2.561640   222A      2.581697   223A      2.602993
     224A      2.610282   225A      2.628865   226A      2.635902
     227A      2.738415   228A      2.748646   229A      2.766051
     230A      2.767348   231A      2.786043   232A      2.801676
     233A      2.825593   234A      2.833007   235A      2.866923
     236A      2.888903   237A      2.894705   238A      2.947991
     239A      2.965465   240A      2.992657   241A      3.028642
     242A      3.077804   243A      3.098143   244A      3.106660
     245A      3.152532   246A      3.245203   247A      3.269349
     248A      3.302010   249A      3.340851   250A      3.510447
     251A      3.531252   252A      3.570033   253A      3.662043
     254A      3.862618   255A      3.904847   256A      3.965701
     257A      4.182331

    Final Occupation by Irrep:
              A
    DOCC [    49 ]

  @RHF Final Energy:  -591.65150942515709

   => Energetics <=

    Nuclear Repulsion Energy =            742.2190412602190008
    One-Electron Energy =               -2277.8538610231835264
    Two-Electron Energy =                 943.9833103378074384
    Total Energy =                       -591.6515094251570872

Computation Completed

Properties will be evaluated at   0.000000,   0.000000,   0.000000 [a0]

Properties computed using the SCF density matrix

  Nuclear Dipole Moment: [e a0]
     X:    10.9707      Y:     1.8434      Z:     2.2430

  Electronic Dipole Moment: [e a0]
     X:   -10.7410      Y:    -0.6827      Z:    -0.9966

  Dipole Moment: [e a0]
     X:     0.2296      Y:     1.1607      Z:     1.2464     Total:     1.7186

  Dipole Moment: [D]
     X:     0.5837      Y:     2.9503      Z:     3.1681     Total:     4.3682

*** tstop() called on ds3 at Sun Apr 26 17:22:34 2020
Module time:
	user time   =     222.92 seconds =       3.72 minutes
	system time =      94.44 seconds =       1.57 minutes
	total time  =        365 seconds =       6.08 minutes
Total time:
	user time   =     222.92 seconds =       3.72 minutes
	system time =      94.44 seconds =       1.57 minutes
	total time  =        365 seconds =       6.08 minutes
                                     G D M A

                                 by Anthony Stone

                           version 2.2.06, 22 June 2011

               Distributed Multipoles from Gaussian wavefunctions

Starting at 17:22:34 on 26 Apr 2020

Using SCF density matrix from file ./SSI/SSI-085ASN-099TYR-1-dimer.test.18034.fchk

                         Distributed Multipole Analysis

Standard DMA

Positions and radii in angstrom
Multipole moments in atomic units, ea_0^k for rank k

C          x =  1.658771  y =  0.702314  z = -1.929652 angstrom
           Maximum rank =  0   Radius =  0.650 angstrom
                   Q00  =  -0.178936

C          x =  2.672771  y = -0.223686  z = -2.622652 angstrom
           Maximum rank =  0   Radius =  0.650 angstrom
                   Q00  =  -0.210789

C          x =  0.670771  y =  1.316314  z = -2.895652 angstrom
           Maximum rank =  0   Radius =  0.650 angstrom
                   Q00  =   0.875768

O          x =  0.515771  y =  0.869314  z = -4.030652 angstrom
           Maximum rank =  0   Radius =  0.650 angstrom
                   Q00  =  -0.817582

N          x = -0.023229  y =  2.349314  z = -2.448652 angstrom
           Maximum rank =  0   Radius =  0.650 angstrom
                   Q00  =  -0.558161

H          x =  1.109771  y =  0.181314  z = -1.150652 angstrom
           Maximum rank =  0   Radius =  0.325 angstrom
                   Q00  =   0.118845

H          x =  2.162771  y =  1.543314  z = -1.456652 angstrom
           Maximum rank =  0   Radius =  0.325 angstrom
                   Q00  =   0.061950

H          x =  2.902771  y =  0.193314  z = -3.606652 angstrom
           Maximum rank =  0   Radius =  0.325 angstrom
                   Q00  =   0.106001

H          x = -0.692229  y =  2.786314  z = -3.065652 angstrom
           Maximum rank =  0   Radius =  0.325 angstrom
                   Q00  =   0.219617

H          x =  0.131771  y =  2.705314  z = -1.516652 angstrom
           Maximum rank =  0   Radius =  0.325 angstrom
                   Q00  =   0.204521

H          x =  2.253681  y = -1.229044  z = -2.776352 angstrom
           Maximum rank =  0   Radius =  0.325 angstrom
                   Q00  =   0.104095

H          x =  3.637631  y = -0.222243  z = -2.094352 angstrom
           Maximum rank =  0   Radius =  0.325 angstrom
                   Q00  =   0.077574

C          x =  1.779771  y = -0.342686  z =  3.345348 angstrom
           Maximum rank =  0   Radius =  0.650 angstrom
                   Q00  =  -0.187389

C          x =  0.143771  y =  0.339314  z =  1.560348 angstrom
           Maximum rank =  0   Radius =  0.650 angstrom
                   Q00  =   0.009890

C          x =  0.474771  y = -0.509686  z =  2.618348 angstrom
           Maximum rank =  0   Radius =  0.650 angstrom
                   Q00  =  -0.133814

C          x = -1.045229  y =  0.164314  z =  0.852348 angstrom
           Maximum rank =  0   Radius =  0.650 angstrom
                   Q00  =  -0.175883

C          x = -1.911229  y = -0.869686  z =  1.202348 angstrom
           Maximum rank =  0   Radius =  0.650 angstrom
                   Q00  =   0.325015

C          x = -0.400229  y = -1.541686  z =  2.961348 angstrom
           Maximum rank =  0   Radius =  0.650 angstrom
                   Q00  =  -0.011818

C          x = -1.589229  y = -1.729686  z =  2.254348 angstrom
           Maximum rank =  0   Radius =  0.650 angstrom
                   Q00  =  -0.120956

O          x = -3.075229  y = -1.028686  z =  0.511348 angstrom
           Maximum rank =  0   Radius =  0.650 angstrom
                   Q00  =  -0.675940

H          x =  0.816771  y =  1.142314  z =  1.287348 angstrom
           Maximum rank =  0   Radius =  0.325 angstrom
                   Q00  =   0.060879

H          x = -1.296229  y =  0.832314  z =  0.040348 angstrom
           Maximum rank =  0   Radius =  0.325 angstrom
                   Q00  =   0.052754

H          x =  1.750771  y = -0.901686  z =  4.281348 angstrom
           Maximum rank =  0   Radius =  0.325 angstrom
                   Q00  =   0.098421

H          x =  1.898771  y =  0.714314  z =  3.589348 angstrom
           Maximum rank =  0   Radius =  0.325 angstrom
                   Q00  =   0.093418

H          x = -0.152229  y = -2.205686  z =  3.779348 angstrom
           Maximum rank =  0   Radius =  0.325 angstrom
                   Q00  =   0.068228

H          x = -3.182229  y = -0.358686  z = -0.173652 angstrom
           Maximum rank =  0   Radius =  0.325 angstrom
                   Q00  =   0.408987

H          x = -2.266229  y = -2.529686  z =  2.519348 angstrom
           Maximum rank =  0   Radius =  0.325 angstrom
                   Q00  =   0.085267

H          x =  2.639901  y = -0.677022  z =  2.746648 angstrom
           Maximum rank =  0   Radius =  0.325 angstrom
                   Q00  =   0.100040

Total multipoles referred to origin at
           x =   0.000000,  y =    0.000000,  z =    0.000000 angstrom
                   Q00  =  -0.000000

Finished at 17:22:35 on 26 Apr 2020

  DMA results are available in the Python driver through the
	  variable('DMA DISTRIBUTED MULTIPOLES')
  and
	  variable('DMA TOTAL MULTIPOLES')
  commands.

    Psi4 stopped on: Sunday, 26 April 2020 05:22PM
    Psi4 wall time for execution: 0:06:05.81

*** Psi4 exiting successfully. Buy a developer a beer!
