                               Psi4 1.3.2 release

  ==> Input File <==

--------------------------------------------------------------------------
import numpy as np
set {scf_type pk
basis cc-pvdz
d_convergence 10
gdma_switch   0
gdma_limit    0
gdma_origin   [ 0.0,  0.0,  0.0 ]
}
molecule test {
    units Angstrom
    0 1
    --
    0 1
    C               -0.265463487051737     3.826470116878816    -1.203589220202638
    C               -1.249463487051736     0.686470116878816     0.797410779797362
    C               -1.239463487051736     1.698470116878816    -0.197589220202638
    C               -0.243463487051736     0.676470116878816     1.786410779797362
    C               -0.248463487051736     2.695470116878816    -0.189589220202638
    C                0.748536512948264     1.668470116878816     1.771410779797362
    C                0.742536512948264     2.663470116878816     0.794410779797362
    O               -0.179463487051736    -0.275529883121184     2.776410779797362
    H               -2.018463487051736    -0.075529883121184     0.810410779797362
    H               -1.997463487051737     1.710470116878816    -0.971589220202638
    H               -0.892463487051736    -0.931529883121184     2.725410779797361
    H                1.523536512948263     1.658470116878816     2.525410779797362
    H               -0.495463487051736     3.416470116878816    -2.186589220202638
    H                0.720536512948264     4.293470116878815    -1.234589220202638
    H                1.510536512948264     3.420470116878816     0.794410779797362
    H               -1.011773487051737     4.616340116878816    -1.032899220202638
    C                1.664536512948263    -0.741529883121184    -0.889589220202638
    C                2.787536512948264    -1.318529883121184    -1.747589220202638
    C                0.461536512948264    -1.625529883121184    -0.787589220202638
    C                0.066536512948264    -2.459529883121184     0.211410779797362
    C               -1.511463487051736    -2.437529883121184    -1.328589220202638
    N               -0.543463487051736    -1.636529883121184    -1.744589220202638
    N               -1.168463487051737    -2.942529883121184    -0.143589220202638
    H                1.976536512948263    -0.491529883121184     0.121410779797362
    H                1.338536512948264     0.168470116878816    -1.397589220202638
    H                2.344536512948264    -1.851529883121184    -2.590589220202638
    H                0.545536512948264    -2.741529883121185     1.135410779797362
    H               -2.408463487051736    -2.605529883121184    -1.915589220202638
    H               -1.724463487051737    -3.579529883121185     0.409410779797362
    H                3.421326512948264    -2.013589883121184    -1.177329220202638
    H                3.400186512948264    -0.492789883121184    -2.138499220202638

}
e, wfn = energy('scf', return_wfn=True)
gdma(wfn)
dmavals = variable('DMA DISTRIBUTED MULTIPOLES')
charges = np.array(dmavals)
print(charges)
np.save('SSI-043TYR-185HIE-1-dimer.npy', np.array(charges))--------------------------------------------------------------------------

*** tstart() called on ds3
*** at Mon Apr 27 16:20:46 2020

   => Loading Basis Set <=

    Name: CC-PVDZ
    Role: ORBITAL
    Keyword: BASIS
    atoms 1-7, 17-21  entry C          line   138 file /theoryfs2/ds/metcalf/miniconda2/envs/tf2gpu/share/psi4/basis/cc-pvdz.gbs
    atoms 8           entry O          line   198 file /theoryfs2/ds/metcalf/miniconda2/envs/tf2gpu/share/psi4/basis/cc-pvdz.gbs
    atoms 9-16, 24-31 entry H          line    22 file /theoryfs2/ds/metcalf/miniconda2/envs/tf2gpu/share/psi4/basis/cc-pvdz.gbs
    atoms 22-23       entry N          line   168 file /theoryfs2/ds/metcalf/miniconda2/envs/tf2gpu/share/psi4/basis/cc-pvdz.gbs

         ---------------------------------------------------------
                                   SCF
               by Justin Turney, Rob Parrish, Andy Simmonett
                          and Daniel G. A. Smith
                              RHF Reference
                        1 Threads,    500 MiB Core
         ---------------------------------------------------------

  ==> Geometry <==

    Molecular point group: c1
    Full point group: C1

    Geometry (in Angstrom), charge = 0, multiplicity = 1:

       Center              X                  Y                   Z               Mass
    ------------   -----------------  -----------------  -----------------  -----------------
         C           -0.265463487052     3.826470116879    -1.203589220203    12.000000000000
         C           -1.249463487052     0.686470116879     0.797410779797    12.000000000000
         C           -1.239463487052     1.698470116879    -0.197589220203    12.000000000000
         C           -0.243463487052     0.676470116879     1.786410779797    12.000000000000
         C           -0.248463487052     2.695470116879    -0.189589220203    12.000000000000
         C            0.748536512948     1.668470116879     1.771410779797    12.000000000000
         C            0.742536512948     2.663470116879     0.794410779797    12.000000000000
         O           -0.179463487052    -0.275529883121     2.776410779797    15.994914619570
         H           -2.018463487052    -0.075529883121     0.810410779797     1.007825032230
         H           -1.997463487052     1.710470116879    -0.971589220203     1.007825032230
         H           -0.892463487052    -0.931529883121     2.725410779797     1.007825032230
         H            1.523536512948     1.658470116879     2.525410779797     1.007825032230
         H           -0.495463487052     3.416470116879    -2.186589220203     1.007825032230
         H            0.720536512948     4.293470116879    -1.234589220203     1.007825032230
         H            1.510536512948     3.420470116879     0.794410779797     1.007825032230
         H           -1.011773487052     4.616340116879    -1.032899220203     1.007825032230
         C            1.664536512948    -0.741529883121    -0.889589220203    12.000000000000
         C            2.787536512948    -1.318529883121    -1.747589220203    12.000000000000
         C            0.461536512948    -1.625529883121    -0.787589220203    12.000000000000
         C            0.066536512948    -2.459529883121     0.211410779797    12.000000000000
         C           -1.511463487052    -2.437529883121    -1.328589220203    12.000000000000
         N           -0.543463487052    -1.636529883121    -1.744589220203    14.003074004430
         N           -1.168463487052    -2.942529883121    -0.143589220203    14.003074004430
         H            1.976536512948    -0.491529883121     0.121410779797     1.007825032230
         H            1.338536512948     0.168470116879    -1.397589220203     1.007825032230
         H            2.344536512948    -1.851529883121    -2.590589220203     1.007825032230
         H            0.545536512948    -2.741529883121     1.135410779797     1.007825032230
         H           -2.408463487052    -2.605529883121    -1.915589220203     1.007825032230
         H           -1.724463487052    -3.579529883121     0.409410779797     1.007825032230
         H            3.421326512948    -2.013589883121    -1.177329220203     1.007825032230
         H            3.400186512948    -0.492789883121    -2.138499220203     1.007825032230

  Running in c1 symmetry.

  Rotational constants: A =      0.02568  B =      0.01412  C =      0.01282 [cm^-1]
  Rotational constants: A =    769.95176  B =    423.19677  C =    384.42296 [MHz]
  Nuclear repulsion =  977.345673218926663

  Charge       = 0
  Multiplicity = 1
  Electrons    = 110
  Nalpha       = 55
  Nbeta        = 55

  ==> Algorithm <==

  SCF Algorithm Type is PK.
  DIIS enabled.
  MOM disabled.
  Fractional occupation disabled.
  Guess Type is SAD.
  Energy threshold   = 1.00e-06
  Density threshold  = 1.00e-10
  Integral threshold = 0.00e+00

  ==> Primary Basis <==

  Basis Set: CC-PVDZ
    Blend: CC-PVDZ
    Number of shells: 138
    Number of basis function: 290
    Number of Cartesian functions: 305
    Spherical Harmonics?: true
    Max angular momentum: 2

  ==> Pre-Iterations <==

   -------------------------------------------------------
    Irrep   Nso     Nmo     Nalpha   Nbeta   Ndocc  Nsocc
   -------------------------------------------------------
     A        290     290       0       0       0       0
   -------------------------------------------------------
    Total     290     290      55      55      55       0
   -------------------------------------------------------

  ==> Integral Setup <==

  Using integral reordering PK algorithm.
  Sizing the integral batches needed.
  Building batch lookup table.
   Calculation information:
      Number of atoms:                  31
      Number of AO shells:             138
      Number of primitives:            410
      Number of atomic orbitals:       305
      Number of basis functions:       290

      Integral cutoff                 1.00e-12
      Number of threads:                 1

	Batch   1 pq = [       0,    9405] index = [             0,44231715] size =     44231715
	Batch   2 pq = [    9405,   13301] index = [      44231715,88464951] size =     44233236
	Batch   3 pq = [   13301,   16290] index = [      88464951,132690195] size =     44225244
	Batch   4 pq = [   16290,   18810] index = [     132690195,176917455] size =     44227260
	Batch   5 pq = [   18810,   21030] index = [     176917455,221140965] size =     44223510
	Batch   6 pq = [   21030,   23037] index = [     221140965,265363203] size =     44222238
	Batch   7 pq = [   23037,   24883] index = [     265363203,309594286] size =     44231083
	Batch   8 pq = [   24883,   26601] index = [     309594286,353819901] size =     44225615
	Batch   9 pq = [   26601,   28214] index = [     353819901,398029005] size =     44209104
	Batch  10 pq = [   28214,   29740] index = [     398029005,442248670] size =     44219665
	Batch  11 pq = [   29740,   31191] index = [     442248670,486454836] size =     44206166
	Batch  12 pq = [   31191,   32578] index = [     486454836,530679331] size =     44224495
	Batch  13 pq = [   32578,   33908] index = [     530679331,574893186] size =     44213855
	Batch  14 pq = [   33908,   35188] index = [     574893186,619115266] size =     44222080
	Batch  15 pq = [   35188,   36423] index = [     619115266,663335676] size =     44220410
	Batch  16 pq = [   36423,   37617] index = [     663335676,707538153] size =     44202477
	Batch  17 pq = [   37617,   38775] index = [     707538153,751769700] size =     44231547
	Batch  18 pq = [   38775,   39899] index = [     751769700,795985050] size =     44215350
	Batch  19 pq = [   39899,   40992] index = [     795985050,840192528] size =     44207478
	Batch  20 pq = [   40992,   42057] index = [     840192528,884416653] size =     44224125
	Batch  21 pq = [   42057,   42195] index = [     884416653,890230110] size =      5813457
  Task number: 81
  Buffer size: 11059200
  Buffer per thread: 2
  We computed 52859356 shell quartets total.
  Whereas there are 45998436 unique shell quartets.
    14.92 percent of shell quartets recomputed by reordering.

  ==> DiskJK: Disk-Based J/K Matrices <==

    J tasked:                  Yes
    K tasked:                  Yes
    wK tasked:                  No
    Memory [MiB]:              375
    Schwarz Cutoff:          1E-12

    OpenMP threads:              1

  Minimum eigenvalue in the overlap matrix is 3.4069789855E-04.
  Using Symmetric Orthogonalization.

  SCF Guess: Superposition of Atomic Densities via on-the-fly atomic UHF.

  ==> Iterations <==

                        Total Energy        Delta E     RMS |[F,P]|

   @RHF iter SAD:  -646.38993734469568   -6.46390e+02   0.00000e+00
   @RHF iter   1:  -647.18029845810838   -7.90361e-01   2.51546e-03 DIIS
   @RHF iter   2:  -647.45496482535123   -2.74666e-01   1.26335e-03 DIIS
   @RHF iter   3:  -647.51766839251400   -6.27036e-02   3.42286e-04 DIIS
   @RHF iter   4:  -647.52356080912477   -5.89242e-03   1.41444e-04 DIIS
   @RHF iter   5:  -647.52450980280025   -9.48994e-04   2.01415e-05 DIIS
   @RHF iter   6:  -647.52454226689156   -3.24641e-05   9.22367e-06 DIIS
   @RHF iter   7:  -647.52454790845900   -5.64157e-06   2.85016e-06 DIIS
   @RHF iter   8:  -647.52454882795143   -9.19492e-07   1.11945e-06 DIIS
   @RHF iter   9:  -647.52454898431768   -1.56366e-07   4.66001e-07 DIIS
   @RHF iter  10:  -647.52454901166868   -2.73510e-08   1.61307e-07 DIIS
   @RHF iter  11:  -647.52454901631870   -4.65002e-09   6.40831e-08 DIIS
   @RHF iter  12:  -647.52454901695535   -6.36646e-10   2.74489e-08 DIIS
   @RHF iter  13:  -647.52454901706005   -1.04706e-10   9.11562e-09 DIIS
   @RHF iter  14:  -647.52454901706938   -9.32232e-12   3.51426e-09 DIIS
   @RHF iter  15:  -647.52454901707131   -1.93268e-12   1.57220e-09 DIIS
   @RHF iter  16:  -647.52454901707040    9.09495e-13   6.69672e-10 DIIS
   @RHF iter  17:  -647.52454901707631   -5.91172e-12   3.06198e-10 DIIS
   @RHF iter  18:  -647.52454901707063    5.68434e-12   1.08702e-10 DIIS
   @RHF iter  19:  -647.52454901706892    1.70530e-12   5.15881e-11 DIIS
  Energy and wave function converged.

  ==> Post-Iterations <==

    Orbital Energies [Eh]
    ---------------------

    Doubly Occupied:

       1A    -20.583312     2A    -15.621588     3A    -15.528774
       4A    -11.297692     5A    -11.293051     6A    -11.248537
       7A    -11.236649     8A    -11.236590     9A    -11.233599
      10A    -11.231885    11A    -11.230162    12A    -11.226080
      13A    -11.223284    14A    -11.211678    15A    -11.208079
      16A     -1.390300    17A     -1.342000    18A     -1.154220
      19A     -1.137328    20A     -1.046556    21A     -1.026961
      22A     -1.005766    23A     -0.981269    24A     -0.919090
      25A     -0.853566    26A     -0.835885    27A     -0.816249
      28A     -0.794314    29A     -0.765209    30A     -0.728366
      31A     -0.723156    32A     -0.656182    33A     -0.635573
      34A     -0.619717    35A     -0.604192    36A     -0.602478
      37A     -0.599232    38A     -0.579895    39A     -0.577212
      40A     -0.574424    41A     -0.562921    42A     -0.558664
      43A     -0.556008    44A     -0.522933    45A     -0.507226
      46A     -0.491439    47A     -0.480494    48A     -0.478485
      49A     -0.472557    50A     -0.454157    51A     -0.411469
      52A     -0.378213    53A     -0.329079    54A     -0.308135
      55A     -0.292445

    Virtual:

      56A      0.133280    57A      0.153356    58A      0.159085
      59A      0.183496    60A      0.188407    61A      0.197915
      62A      0.209261    63A      0.216724    64A      0.220254
      65A      0.229082    66A      0.236185    67A      0.253185
      68A      0.257892    69A      0.268139    70A      0.276356
      71A      0.277808    72A      0.293837    73A      0.296356
      74A      0.299395    75A      0.321240    76A      0.368787
      77A      0.371602    78A      0.384861    79A      0.393275
      80A      0.416778    81A      0.424903    82A      0.439815
      83A      0.456502    84A      0.476844    85A      0.491367
      86A      0.496572    87A      0.506966    88A      0.513376
      89A      0.578410    90A      0.598143    91A      0.609017
      92A      0.623354    93A      0.637158    94A      0.640560
      95A      0.648323    96A      0.658682    97A      0.668842
      98A      0.684685    99A      0.693480   100A      0.696742
     101A      0.706766   102A      0.721569   103A      0.728964
     104A      0.742184   105A      0.755212   106A      0.759913
     107A      0.777654   108A      0.781528   109A      0.791789
     110A      0.796831   111A      0.810456   112A      0.819841
     113A      0.825493   114A      0.845280   115A      0.850885
     116A      0.856664   117A      0.874938   118A      0.877005
     119A      0.888033   120A      0.895347   121A      0.899573
     122A      0.909382   123A      0.912514   124A      0.916435
     125A      0.925232   126A      0.931519   127A      0.932966
     128A      0.936620   129A      0.947518   130A      0.950277
     131A      0.965099   132A      0.970124   133A      0.987261
     134A      0.995546   135A      1.006381   136A      1.018923
     137A      1.020218   138A      1.055954   139A      1.062317
     140A      1.076559   141A      1.092384   142A      1.111162
     143A      1.115739   144A      1.132547   145A      1.138152
     146A      1.147362   147A      1.159389   148A      1.176264
     149A      1.179883   150A      1.210027   151A      1.218632
     152A      1.235012   153A      1.255220   154A      1.258699
     155A      1.267031   156A      1.284608   157A      1.298542
     158A      1.300601   159A      1.310141   160A      1.314622
     161A      1.326920   162A      1.341355   163A      1.358277
     164A      1.360708   165A      1.373441   166A      1.387291
     167A      1.414635   168A      1.441048   169A      1.450892
     170A      1.466520   171A      1.489565   172A      1.497756
     173A      1.523528   174A      1.532799   175A      1.553403
     176A      1.557692   177A      1.588470   178A      1.626509
     179A      1.633317   180A      1.647205   181A      1.685008
     182A      1.696587   183A      1.706502   184A      1.717880
     185A      1.738656   186A      1.759093   187A      1.764192
     188A      1.770985   189A      1.783675   190A      1.792694
     191A      1.816463   192A      1.828254   193A      1.835907
     194A      1.861564   195A      1.869871   196A      1.878790
     197A      1.884926   198A      1.896301   199A      1.909304
     200A      1.916573   201A      1.920370   202A      1.936169
     203A      1.938307   204A      1.942919   205A      1.953093
     206A      1.960463   207A      1.966340   208A      1.979363
     209A      1.981916   210A      1.993506   211A      2.000150
     212A      2.010819   213A      2.012742   214A      2.024080
     215A      2.030862   216A      2.044036   217A      2.047706
     218A      2.057004   219A      2.072007   220A      2.081441
     221A      2.092708   222A      2.117248   223A      2.139693
     224A      2.144500   225A      2.146722   226A      2.170011
     227A      2.183836   228A      2.203983   229A      2.211652
     230A      2.220763   231A      2.256547   232A      2.260625
     233A      2.277031   234A      2.289258   235A      2.300359
     236A      2.322917   237A      2.334444   238A      2.349782
     239A      2.371648   240A      2.392472   241A      2.403940
     242A      2.412364   243A      2.441049   244A      2.451705
     245A      2.471064   246A      2.485849   247A      2.491042
     248A      2.494485   249A      2.523383   250A      2.540145
     251A      2.570411   252A      2.582493   253A      2.592236
     254A      2.599091   255A      2.622082   256A      2.644748
     257A      2.687109   258A      2.746160   259A      2.760174
     260A      2.769482   261A      2.772193   262A      2.786155
     263A      2.788953   264A      2.798009   265A      2.807332
     266A      2.821084   267A      2.859999   268A      2.867109
     269A      2.887120   270A      2.902690   271A      2.917647
     272A      2.940948   273A      2.955338   274A      2.963973
     275A      3.013663   276A      3.042442   277A      3.068465
     278A      3.116593   279A      3.122618   280A      3.177803
     281A      3.236222   282A      3.261077   283A      3.277460
     284A      3.346737   285A      3.478842   286A      3.552411
     287A      3.660535   288A      3.804039   289A      3.936345
     290A      4.188069

    Final Occupation by Irrep:
              A
    DOCC [    55 ]

  @RHF Final Energy:  -647.52454901706892

   => Energetics <=

    Nuclear Repulsion Energy =            977.3456732189266631
    One-Electron Energy =               -2820.9717929430344157
    Two-Electron Energy =                1196.1015707070389453
    Total Energy =                       -647.5245490170689209

Computation Completed

Properties will be evaluated at   0.000000,   0.000000,   0.000000 [a0]

Properties computed using the SCF density matrix

  Nuclear Dipole Moment: [e a0]
     X:     5.8471      Y:     4.2316      Z:    -5.7217

  Electronic Dipole Moment: [e a0]
     X:    -6.7788      Y:    -5.1141      Z:     6.2762

  Dipole Moment: [e a0]
     X:    -0.9317      Y:    -0.8825      Z:     0.5545     Total:     1.3980

  Dipole Moment: [D]
     X:    -2.3681      Y:    -2.2432      Z:     1.4095     Total:     3.5534

*** tstop() called on ds3 at Mon Apr 27 16:32:35 2020
Module time:
	user time   =     493.82 seconds =       8.23 minutes
	system time =     178.02 seconds =       2.97 minutes
	total time  =        709 seconds =      11.82 minutes
Total time:
	user time   =     493.82 seconds =       8.23 minutes
	system time =     178.02 seconds =       2.97 minutes
	total time  =        709 seconds =      11.82 minutes
                                     G D M A

                                 by Anthony Stone

                           version 2.2.06, 22 June 2011

               Distributed Multipoles from Gaussian wavefunctions

Starting at 16:32:35 on 27 Apr 2020

Using SCF density matrix from file ./SSI/SSI-043TYR-185HIE-1-dimer.test.26497.fchk

                         Distributed Multipole Analysis

Standard DMA

Positions and radii in angstrom
Multipole moments in atomic units, ea_0^k for rank k

C          x = -0.265463  y =  3.826470  z = -1.203589 angstrom
           Maximum rank =  0   Radius =  0.650 angstrom
                   Q00  =  -0.202575

C          x = -1.249463  y =  0.686470  z =  0.797411 angstrom
           Maximum rank =  0   Radius =  0.650 angstrom
                   Q00  =  -0.168152

C          x = -1.239463  y =  1.698470  z = -0.197589 angstrom
           Maximum rank =  0   Radius =  0.650 angstrom
                   Q00  =  -0.060963

C          x = -0.243463  y =  0.676470  z =  1.786411 angstrom
           Maximum rank =  0   Radius =  0.650 angstrom
                   Q00  =   0.284810

C          x = -0.248463  y =  2.695470  z = -0.189589 angstrom
           Maximum rank =  0   Radius =  0.650 angstrom
                   Q00  =  -0.134574

C          x =  0.748537  y =  1.668470  z =  1.771411 angstrom
           Maximum rank =  0   Radius =  0.650 angstrom
                   Q00  =  -0.056301

C          x =  0.742537  y =  2.663470  z =  0.794411 angstrom
           Maximum rank =  0   Radius =  0.650 angstrom
                   Q00  =   0.029828

O          x = -0.179463  y = -0.275530  z =  2.776411 angstrom
           Maximum rank =  0   Radius =  0.650 angstrom
                   Q00  =  -0.670326

H          x = -2.018463  y = -0.075530  z =  0.810411 angstrom
           Maximum rank =  0   Radius =  0.325 angstrom
                   Q00  =   0.071547

H          x = -1.997463  y =  1.710470  z = -0.971589 angstrom
           Maximum rank =  0   Radius =  0.325 angstrom
                   Q00  =   0.073313

H          x = -0.892463  y = -0.931530  z =  2.725411 angstrom
           Maximum rank =  0   Radius =  0.325 angstrom
                   Q00  =   0.407153

H          x =  1.523537  y =  1.658470  z =  2.525411 angstrom
           Maximum rank =  0   Radius =  0.325 angstrom
                   Q00  =   0.076041

H          x = -0.495463  y =  3.416470  z = -2.186589 angstrom
           Maximum rank =  0   Radius =  0.325 angstrom
                   Q00  =   0.097773

H          x =  0.720537  y =  4.293470  z = -1.234589 angstrom
           Maximum rank =  0   Radius =  0.325 angstrom
                   Q00  =   0.094365

H          x =  1.510537  y =  3.420470  z =  0.794411 angstrom
           Maximum rank =  0   Radius =  0.325 angstrom
                   Q00  =   0.062300

H          x = -1.011773  y =  4.616340  z = -1.032899 angstrom
           Maximum rank =  0   Radius =  0.325 angstrom
                   Q00  =   0.097438

C          x =  1.664537  y = -0.741530  z = -0.889589 angstrom
           Maximum rank =  0   Radius =  0.650 angstrom
                   Q00  =  -0.031147

C          x =  2.787537  y = -1.318530  z = -1.747589 angstrom
           Maximum rank =  0   Radius =  0.650 angstrom
                   Q00  =  -0.238969

C          x =  0.461537  y = -1.625530  z = -0.787589 angstrom
           Maximum rank =  0   Radius =  0.650 angstrom
                   Q00  =   0.232668

C          x =  0.066537  y = -2.459530  z =  0.211411 angstrom
           Maximum rank =  0   Radius =  0.650 angstrom
                   Q00  =  -0.029986

C          x = -1.511463  y = -2.437530  z = -1.328589 angstrom
           Maximum rank =  0   Radius =  0.650 angstrom
                   Q00  =   0.445444

N          x = -0.543463  y = -1.636530  z = -1.744589 angstrom
           Maximum rank =  0   Radius =  0.650 angstrom
                   Q00  =  -0.775347

N          x = -1.168463  y = -2.942530  z = -0.143589 angstrom
           Maximum rank =  0   Radius =  0.650 angstrom
                   Q00  =  -0.452723

H          x =  1.976537  y = -0.491530  z =  0.121411 angstrom
           Maximum rank =  0   Radius =  0.325 angstrom
                   Q00  =   0.071865

H          x =  1.338537  y =  0.168470  z = -1.397589 angstrom
           Maximum rank =  0   Radius =  0.325 angstrom
                   Q00  =   0.095680

H          x =  2.344537  y = -1.851530  z = -2.590589 angstrom
           Maximum rank =  0   Radius =  0.325 angstrom
                   Q00  =   0.091199

H          x =  0.545537  y = -2.741530  z =  1.135411 angstrom
           Maximum rank =  0   Radius =  0.325 angstrom
                   Q00  =   0.100322

H          x = -2.408463  y = -2.605530  z = -1.915589 angstrom
           Maximum rank =  0   Radius =  0.325 angstrom
                   Q00  =   0.124117

H          x = -1.724463  y = -3.579530  z =  0.409411 angstrom
           Maximum rank =  0   Radius =  0.325 angstrom
                   Q00  =   0.212038

H          x =  3.421327  y = -2.013590  z = -1.177329 angstrom
           Maximum rank =  0   Radius =  0.325 angstrom
                   Q00  =   0.071677

H          x =  3.400187  y = -0.492790  z = -2.138499 angstrom
           Maximum rank =  0   Radius =  0.325 angstrom
                   Q00  =   0.081485

Total multipoles referred to origin at
           x =   0.000000,  y =    0.000000,  z =    0.000000 angstrom
                   Q00  =  -0.000000

Finished at 16:32:36 on 27 Apr 2020

  DMA results are available in the Python driver through the
	  variable('DMA DISTRIBUTED MULTIPOLES')
  and
	  variable('DMA TOTAL MULTIPOLES')
  commands.

    Psi4 stopped on: Monday, 27 April 2020 04:32PM
    Psi4 wall time for execution: 0:11:49.15

*** Psi4 exiting successfully. Buy a developer a beer!
