                               Psi4 1.3.2 release

  ==> Input File <==

--------------------------------------------------------------------------
import numpy as np
set {scf_type pk
basis cc-pvdz
d_convergence 10
gdma_switch   0
gdma_limit    0
gdma_origin   [ 0.0,  0.0,  0.0 ]
}
molecule test {
    units Angstrom
    1 1
    --
    1 1
    C                1.585000874688060     0.501530163179556     2.655431498602768
    O                2.115000874688060     0.619530163179556     1.343431498602768
    H                2.896000874688060     1.216530163179556     1.368431498602768
    H                0.652000874688060    -0.058469836820444     2.601431498602767
    H                1.366000874688060     1.489530163179556     3.062431498602768
    H                2.277582874688060    -0.040179836820444     3.316401498602767
    C               -2.470999125311940    -0.285469836820444     0.228431498602768
    C               -0.397999125311940    -0.245469836820444    -1.121568501397233
    N                0.900000874688060    -0.046469836820444    -1.185568501397232
    N               -1.028999125311940    -0.091469836820444     0.030431498602768
    N               -1.063999125311940    -0.591469836820444    -2.205568501397233
    H                1.415000874688060     0.211530163179556    -0.350568501397232
    H                1.383000874688060    -0.145469836820444    -2.067568501397233
    H               -0.491999125311940     0.256530163179556     0.811431498602767
    H               -2.063999125311940    -0.694469836820444    -2.176568501397233
    H               -0.580999125311940    -0.663469836820444    -3.086568501397232
    H               -3.028999125311940    -0.430469836820444    -0.697568501397232
    H               -2.860999125311940     0.626530163179556     0.685431498602767
    H               -2.664930125311940    -1.115669836820444     0.923531498602768

}
e, wfn = energy('scf', return_wfn=True)
gdma(wfn)
dmavals = variable('DMA DISTRIBUTED MULTIPOLES')
charges = np.array(dmavals)
print(charges)
np.save('SSI-136SER-144ARG-1-dimer.npy', np.array(charges))--------------------------------------------------------------------------

*** tstart() called on ds3
*** at Sun Apr 26 22:04:31 2020

   => Loading Basis Set <=

    Name: CC-PVDZ
    Role: ORBITAL
    Keyword: BASIS
    atoms 1, 7-8     entry C          line   138 file /theoryfs2/ds/metcalf/miniconda2/envs/tf2gpu/share/psi4/basis/cc-pvdz.gbs
    atoms 2          entry O          line   198 file /theoryfs2/ds/metcalf/miniconda2/envs/tf2gpu/share/psi4/basis/cc-pvdz.gbs
    atoms 3-6, 12-19 entry H          line    22 file /theoryfs2/ds/metcalf/miniconda2/envs/tf2gpu/share/psi4/basis/cc-pvdz.gbs
    atoms 9-11       entry N          line   168 file /theoryfs2/ds/metcalf/miniconda2/envs/tf2gpu/share/psi4/basis/cc-pvdz.gbs

         ---------------------------------------------------------
                                   SCF
               by Justin Turney, Rob Parrish, Andy Simmonett
                          and Daniel G. A. Smith
                              RHF Reference
                        1 Threads,    500 MiB Core
         ---------------------------------------------------------

  ==> Geometry <==

    Molecular point group: c1
    Full point group: C1

    Geometry (in Angstrom), charge = 1, multiplicity = 1:

       Center              X                  Y                   Z               Mass
    ------------   -----------------  -----------------  -----------------  -----------------
         C            1.585000874688     0.501530163180     2.655431498603    12.000000000000
         O            2.115000874688     0.619530163180     1.343431498603    15.994914619570
         H            2.896000874688     1.216530163180     1.368431498603     1.007825032230
         H            0.652000874688    -0.058469836820     2.601431498603     1.007825032230
         H            1.366000874688     1.489530163180     3.062431498603     1.007825032230
         H            2.277582874688    -0.040179836820     3.316401498603     1.007825032230
         C           -2.470999125312    -0.285469836820     0.228431498603    12.000000000000
         C           -0.397999125312    -0.245469836820    -1.121568501397    12.000000000000
         N            0.900000874688    -0.046469836820    -1.185568501397    14.003074004430
         N           -1.028999125312    -0.091469836820     0.030431498603    14.003074004430
         N           -1.063999125312    -0.591469836820    -2.205568501397    14.003074004430
         H            1.415000874688     0.211530163180    -0.350568501397     1.007825032230
         H            1.383000874688    -0.145469836820    -2.067568501397     1.007825032230
         H           -0.491999125312     0.256530163180     0.811431498603     1.007825032230
         H           -2.063999125312    -0.694469836820    -2.176568501397     1.007825032230
         H           -0.580999125312    -0.663469836820    -3.086568501397     1.007825032230
         H           -3.028999125312    -0.430469836820    -0.697568501397     1.007825032230
         H           -2.860999125312     0.626530163180     0.685431498603     1.007825032230
         H           -2.664930125312    -1.115669836820     0.923531498603     1.007825032230

  Running in c1 symmetry.

  Rotational constants: A =      0.11836  B =      0.04011  C =      0.03042 [cm^-1]
  Rotational constants: A =   3548.35785  B =   1202.53430  C =    911.88994 [MHz]
  Nuclear repulsion =  329.330652865378283

  Charge       = 1
  Multiplicity = 1
  Electrons    = 58
  Nalpha       = 29
  Nbeta        = 29

  ==> Algorithm <==

  SCF Algorithm Type is PK.
  DIIS enabled.
  MOM disabled.
  Fractional occupation disabled.
  Guess Type is SAD.
  Energy threshold   = 1.00e-06
  Density threshold  = 1.00e-10
  Integral threshold = 0.00e+00

  ==> Primary Basis <==

  Basis Set: CC-PVDZ
    Blend: CC-PVDZ
    Number of shells: 78
    Number of basis function: 158
    Number of Cartesian functions: 165
    Spherical Harmonics?: true
    Max angular momentum: 2

  ==> Pre-Iterations <==

   -------------------------------------------------------
    Irrep   Nso     Nmo     Nalpha   Nbeta   Ndocc  Nsocc
   -------------------------------------------------------
     A        158     158       0       0       0       0
   -------------------------------------------------------
    Total     158     158      29      29      29       0
   -------------------------------------------------------

  ==> Integral Setup <==

  Using integral reordering PK algorithm.
  Sizing the integral batches needed.
  Building batch lookup table.
   Calculation information:
      Number of atoms:                  19
      Number of AO shells:              78
      Number of primitives:            214
      Number of atomic orbitals:       165
      Number of basis functions:       158

      Integral cutoff                 1.00e-12
      Number of threads:                 1

	Batch   1 pq = [       0,    9405] index = [             0,44231715] size =     44231715
	Batch   2 pq = [    9405,   12561] index = [      44231715,78895641] size =     34663926
  Task number: 8
  Buffer size: 11059200
  Buffer per thread: 2
  We computed 4362807 shell quartets total.
  Whereas there are 4747821 unique shell quartets.

  ==> DiskJK: Disk-Based J/K Matrices <==

    J tasked:                  Yes
    K tasked:                  Yes
    wK tasked:                  No
    Memory [MiB]:              375
    Schwarz Cutoff:          1E-12

    OpenMP threads:              1

  Minimum eigenvalue in the overlap matrix is 3.7880515669E-03.
  Using Symmetric Orthogonalization.

  SCF Guess: Superposition of Atomic Densities via on-the-fly atomic UHF.

  ==> Iterations <==

                        Total Energy        Delta E     RMS |[F,P]|

   @RHF iter SAD:  -357.94378651333921   -3.57944e+02   0.00000e+00
   @RHF iter   1:  -358.47609472015222   -5.32308e-01   3.54122e-03 DIIS
   @RHF iter   2:  -358.62453012303303   -1.48435e-01   1.45888e-03 DIIS
   @RHF iter   3:  -358.64674621419312   -2.22161e-02   3.72570e-04 DIIS
   @RHF iter   4:  -358.64899737059295   -2.25116e-03   9.15561e-05 DIIS
   @RHF iter   5:  -358.64911317180531   -1.15801e-04   2.41367e-05 DIIS
   @RHF iter   6:  -358.64912530520058   -1.21334e-05   6.60701e-06 DIIS
   @RHF iter   7:  -358.64912631349102   -1.00829e-06   1.82279e-06 DIIS
   @RHF iter   8:  -358.64912640137317   -8.78821e-08   5.52063e-07 DIIS
   @RHF iter   9:  -358.64912640789612   -6.52295e-09   9.39278e-08 DIIS
   @RHF iter  10:  -358.64912640810621   -2.10093e-10   3.48076e-08 DIIS
   @RHF iter  11:  -358.64912640812798   -2.17710e-11   9.49912e-09 DIIS
   @RHF iter  12:  -358.64912640813225   -4.26326e-12   3.08664e-09 DIIS
   @RHF iter  13:  -358.64912640813196    2.84217e-13   1.16686e-09 DIIS
   @RHF iter  14:  -358.64912640813145    5.11591e-13   3.07388e-10 DIIS
   @RHF iter  15:  -358.64912640813185   -3.97904e-13   9.30560e-11 DIIS
  Energy and wave function converged.

  ==> Post-Iterations <==

    Orbital Energies [Eh]
    ---------------------

    Doubly Occupied:

       1A    -20.708774     2A    -15.771534     3A    -15.770335
       4A    -15.755524     5A    -11.569241     6A    -11.434422
       7A    -11.412493     8A     -1.528486     9A     -1.501564
      10A     -1.386144    11A     -1.370565    12A     -1.129925
      13A     -1.061107    14A     -1.021882    15A     -0.962746
      16A     -0.921045    17A     -0.849878    18A     -0.842327
      19A     -0.819846    20A     -0.808600    21A     -0.780549
      22A     -0.757674    23A     -0.736854    24A     -0.731076
      25A     -0.716258    26A     -0.642565    27A     -0.598176
      28A     -0.590947    29A     -0.567142

    Virtual:

      30A      0.010024    31A      0.038780    32A      0.040389
      33A      0.049489    34A      0.068064    35A      0.092843
      36A      0.104063    37A      0.118284    38A      0.122991
      39A      0.151775    40A      0.163671    41A      0.182878
      42A      0.189283    43A      0.237950    44A      0.254537
      45A      0.293477    46A      0.345458    47A      0.363448
      48A      0.430900    49A      0.450306    50A      0.492154
      51A      0.514285    52A      0.534118    53A      0.549981
      54A      0.559480    55A      0.569079    56A      0.583062
      57A      0.586092    58A      0.618418    59A      0.660747
      60A      0.678808    61A      0.692312    62A      0.706081
      63A      0.723329    64A      0.736606    65A      0.752528
      66A      0.779463    67A      0.783124    68A      0.798517
      69A      0.819561    70A      0.826477    71A      0.843260
      72A      0.900186    73A      0.908091    74A      0.960447
      75A      0.976944    76A      1.001516    77A      1.011754
      78A      1.051711    79A      1.071030    80A      1.077988
      81A      1.137331    82A      1.149689    83A      1.165253
      84A      1.174467    85A      1.205041    86A      1.208926
      87A      1.254157    88A      1.262749    89A      1.313872
      90A      1.381061    91A      1.433129    92A      1.461644
      93A      1.484293    94A      1.506856    95A      1.515313
      96A      1.538914    97A      1.551560    98A      1.555883
      99A      1.580702   100A      1.634304   101A      1.677147
     102A      1.715768   103A      1.724719   104A      1.740774
     105A      1.750068   106A      1.768106   107A      1.774705
     108A      1.788490   109A      1.793590   110A      1.804250
     111A      1.824296   112A      1.830358   113A      1.872918
     114A      1.895068   115A      1.919145   116A      1.933061
     117A      1.999719   118A      2.002417   119A      2.063363
     120A      2.111815   121A      2.118748   122A      2.141487
     123A      2.163563   124A      2.200126   125A      2.233958
     126A      2.258699   127A      2.274657   128A      2.297784
     129A      2.326926   130A      2.350194   131A      2.356115
     132A      2.373543   133A      2.444354   134A      2.454489
     135A      2.475407   136A      2.578466   137A      2.595152
     138A      2.601070   139A      2.632003   140A      2.635908
     141A      2.637064   142A      2.662962   143A      2.745858
     144A      2.765482   145A      2.790649   146A      2.853844
     147A      2.869116   148A      2.935082   149A      3.086476
     150A      3.106029   151A      3.141666   152A      3.160998
     153A      3.232136   154A      3.304568   155A      3.437892
     156A      3.614585   157A      3.680655   158A      3.923754

    Final Occupation by Irrep:
              A
    DOCC [    29 ]

  @RHF Final Energy:  -358.64912640813185

   => Energetics <=

    Nuclear Repulsion Energy =            329.3306528653782834
    One-Electron Energy =               -1130.4642021335855588
    Two-Electron Energy =                 442.4844228600754263
    Total Energy =                       -358.6491264081318491

Computation Completed

Properties will be evaluated at   0.000000,   0.000000,   0.000000 [a0]

Properties computed using the SCF density matrix

  Nuclear Dipole Moment: [e a0]
     X:    -1.5823      Y:     0.6167      Z:     4.1319

  Electronic Dipole Moment: [e a0]
     X:     1.1440      Y:    -0.5000      Z:    -5.0250

  Dipole Moment: [e a0]
     X:    -0.4383      Y:     0.1168      Z:    -0.8931     Total:     1.0017

  Dipole Moment: [D]
     X:    -1.1140      Y:     0.2968      Z:    -2.2700     Total:     2.5460

*** tstop() called on ds3 at Sun Apr 26 22:05:11 2020
Module time:
	user time   =      29.41 seconds =       0.49 minutes
	system time =      11.54 seconds =       0.19 minutes
	total time  =         40 seconds =       0.67 minutes
Total time:
	user time   =      29.41 seconds =       0.49 minutes
	system time =      11.54 seconds =       0.19 minutes
	total time  =         40 seconds =       0.67 minutes
                                     G D M A

                                 by Anthony Stone

                           version 2.2.06, 22 June 2011

               Distributed Multipoles from Gaussian wavefunctions

Starting at 22:5:11 on 26 Apr 2020

Using SCF density matrix from file ./SSI/SSI-136SER-144ARG-1-dimer.test.10183.fchk

                         Distributed Multipole Analysis

Standard DMA

Positions and radii in angstrom
Multipole moments in atomic units, ea_0^k for rank k

C          x =  1.585001  y =  0.501530  z =  2.655432 angstrom
           Maximum rank =  0   Radius =  0.650 angstrom
                   Q00  =  -0.063034

O          x =  2.115001  y =  0.619530  z =  1.343431 angstrom
           Maximum rank =  0   Radius =  0.650 angstrom
                   Q00  =  -0.667938

H          x =  2.896001  y =  1.216530  z =  1.368431 angstrom
           Maximum rank =  0   Radius =  0.325 angstrom
                   Q00  =   0.433907

H          x =  0.652001  y = -0.058470  z =  2.601432 angstrom
           Maximum rank =  0   Radius =  0.325 angstrom
                   Q00  =   0.089844

H          x =  1.366001  y =  1.489530  z =  3.062432 angstrom
           Maximum rank =  0   Radius =  0.325 angstrom
                   Q00  =   0.100163

H          x =  2.277583  y = -0.040180  z =  3.316401 angstrom
           Maximum rank =  0   Radius =  0.325 angstrom
                   Q00  =   0.120269

C          x = -2.470999  y = -0.285470  z =  0.228431 angstrom
           Maximum rank =  0   Radius =  0.650 angstrom
                   Q00  =  -0.121622

C          x = -0.397999  y = -0.245470  z = -1.121569 angstrom
           Maximum rank =  0   Radius =  0.650 angstrom
                   Q00  =   1.081199

N          x =  0.900001  y = -0.046470  z = -1.185569 angstrom
           Maximum rank =  0   Radius =  0.650 angstrom
                   Q00  =  -0.616506

N          x = -1.028999  y = -0.091470  z =  0.030431 angstrom
           Maximum rank =  0   Radius =  0.650 angstrom
                   Q00  =  -0.495684

N          x = -1.063999  y = -0.591470  z = -2.205569 angstrom
           Maximum rank =  0   Radius =  0.650 angstrom
                   Q00  =  -0.588260

H          x =  1.415001  y =  0.211530  z = -0.350569 angstrom
           Maximum rank =  0   Radius =  0.325 angstrom
                   Q00  =   0.322407

H          x =  1.383001  y = -0.145470  z = -2.067569 angstrom
           Maximum rank =  0   Radius =  0.325 angstrom
                   Q00  =   0.252936

H          x = -0.491999  y =  0.256530  z =  0.811431 angstrom
           Maximum rank =  0   Radius =  0.325 angstrom
                   Q00  =   0.238981

H          x = -2.063999  y = -0.694470  z = -2.176569 angstrom
           Maximum rank =  0   Radius =  0.325 angstrom
                   Q00  =   0.262722

H          x = -0.580999  y = -0.663470  z = -3.086569 angstrom
           Maximum rank =  0   Radius =  0.325 angstrom
                   Q00  =   0.261664

H          x = -3.028999  y = -0.430470  z = -0.697569 angstrom
           Maximum rank =  0   Radius =  0.325 angstrom
                   Q00  =   0.113202

H          x = -2.860999  y =  0.626530  z =  0.685431 angstrom
           Maximum rank =  0   Radius =  0.325 angstrom
                   Q00  =   0.136933

H          x = -2.664930  y = -1.115670  z =  0.923531 angstrom
           Maximum rank =  0   Radius =  0.325 angstrom
                   Q00  =   0.138817

Total multipoles referred to origin at
           x =   0.000000,  y =    0.000000,  z =    0.000000 angstrom
                   Q00  =   1.000000

Finished at 22:5:11 on 26 Apr 2020

  DMA results are available in the Python driver through the
	  variable('DMA DISTRIBUTED MULTIPOLES')
  and
	  variable('DMA TOTAL MULTIPOLES')
  commands.

    Psi4 stopped on: Sunday, 26 April 2020 10:05PM
    Psi4 wall time for execution: 0:00:40.36

*** Psi4 exiting successfully. Buy a developer a beer!
