                               Psi4 1.3.2 release

  ==> Input File <==

--------------------------------------------------------------------------
import numpy as np
set {scf_type pk
basis cc-pvdz
d_convergence 10
gdma_switch   0
gdma_limit    0
gdma_origin   [ 0.0,  0.0,  0.0 ]
}
molecule test {
    units Angstrom
    0 1
    --
    0 1
    C               -3.315414523422310     0.478952096921786    -1.846628699803070
    C               -3.259414523422310     0.010952096921786    -0.434628699803070
    C               -2.440414523422310    -0.922047903078214     1.341371300196930
    C               -4.186414523422310     0.137952096921786     0.552371300196930
    N               -2.169414523422311    -0.657047903078214     0.068371300196930
    N               -3.648414523422310    -0.462047903078214     1.659371300196930
    H               -1.780414523422311    -1.448047903078214     2.021371300196930
    H               -2.337414523422311     0.867952096921786    -2.131628699803070
    H               -4.023414523422311     1.301952096921786    -1.883628699803070
    H               -4.088414523422310    -0.558047903078214     2.568371300196930
    H               -5.155414523422310     0.612952096921786     0.472371300196930
    H               -3.624701523422311    -0.295697903078214    -2.563738699803070
    C                4.818585476577690     1.422952096921786     0.977371300196930
    C                1.282585476577689    -0.405047903078214    -0.701628699803070
    C                1.264585476577689     0.116952096921786     0.594371300196930
    C                2.468585476577690    -0.374047903078214    -1.431628699803070
    C                2.419585476577690     0.684952096921786     1.132371300196930
    C                3.611585476577690     0.211952096921786    -0.904628699803070
    C                3.602585476577690     0.748952096921786     0.394371300196930
    O                0.173585476577689    -0.930047903078214    -1.298628699803070
    H               -0.615414523422311    -0.850047903078214    -0.732628699803070
    H                0.351585476577689     0.095952096921786     1.172371300196930
    H                2.486585476577689    -0.810047903078214    -2.417628699803070
    H                2.391585476577690     1.097952096921786     2.131371300196930
    H                4.515585476577690     0.253952096921786    -1.498628699803070
    H                4.486585476577690     2.125952096921786     1.740371300196930
    H                5.297585476577689     2.017952096921786     0.198371300196930
    H                5.562272476577689     0.744062096921786     1.420131300196930

}
e, wfn = energy('scf', return_wfn=True)
gdma(wfn)
dmavals = variable('DMA DISTRIBUTED MULTIPOLES')
charges = np.array(dmavals)
print(charges)
np.save('SSI-103HIE-168TYR-1-dimer.npy', np.array(charges))--------------------------------------------------------------------------

*** tstart() called on ds3
*** at Mon Apr 27 20:50:31 2020

   => Loading Basis Set <=

    Name: CC-PVDZ
    Role: ORBITAL
    Keyword: BASIS
    atoms 1-4, 13-19  entry C          line   138 file /theoryfs2/ds/metcalf/miniconda2/envs/tf2gpu/share/psi4/basis/cc-pvdz.gbs
    atoms 5-6         entry N          line   168 file /theoryfs2/ds/metcalf/miniconda2/envs/tf2gpu/share/psi4/basis/cc-pvdz.gbs
    atoms 7-12, 21-28 entry H          line    22 file /theoryfs2/ds/metcalf/miniconda2/envs/tf2gpu/share/psi4/basis/cc-pvdz.gbs
    atoms 20          entry O          line   198 file /theoryfs2/ds/metcalf/miniconda2/envs/tf2gpu/share/psi4/basis/cc-pvdz.gbs

         ---------------------------------------------------------
                                   SCF
               by Justin Turney, Rob Parrish, Andy Simmonett
                          and Daniel G. A. Smith
                              RHF Reference
                        1 Threads,    500 MiB Core
         ---------------------------------------------------------

  ==> Geometry <==

    Molecular point group: c1
    Full point group: C1

    Geometry (in Angstrom), charge = 0, multiplicity = 1:

       Center              X                  Y                   Z               Mass
    ------------   -----------------  -----------------  -----------------  -----------------
         C           -3.315414523422     0.478952096922    -1.846628699803    12.000000000000
         C           -3.259414523422     0.010952096922    -0.434628699803    12.000000000000
         C           -2.440414523422    -0.922047903078     1.341371300197    12.000000000000
         C           -4.186414523422     0.137952096922     0.552371300197    12.000000000000
         N           -2.169414523422    -0.657047903078     0.068371300197    14.003074004430
         N           -3.648414523422    -0.462047903078     1.659371300197    14.003074004430
         H           -1.780414523422    -1.448047903078     2.021371300197     1.007825032230
         H           -2.337414523422     0.867952096922    -2.131628699803     1.007825032230
         H           -4.023414523422     1.301952096922    -1.883628699803     1.007825032230
         H           -4.088414523422    -0.558047903078     2.568371300197     1.007825032230
         H           -5.155414523422     0.612952096922     0.472371300197     1.007825032230
         H           -3.624701523422    -0.295697903078    -2.563738699803     1.007825032230
         C            4.818585476578     1.422952096922     0.977371300197    12.000000000000
         C            1.282585476578    -0.405047903078    -0.701628699803    12.000000000000
         C            1.264585476578     0.116952096922     0.594371300197    12.000000000000
         C            2.468585476578    -0.374047903078    -1.431628699803    12.000000000000
         C            2.419585476578     0.684952096922     1.132371300197    12.000000000000
         C            3.611585476578     0.211952096922    -0.904628699803    12.000000000000
         C            3.602585476578     0.748952096922     0.394371300197    12.000000000000
         O            0.173585476578    -0.930047903078    -1.298628699803    15.994914619570
         H           -0.615414523422    -0.850047903078    -0.732628699803     1.007825032230
         H            0.351585476578     0.095952096922     1.172371300197     1.007825032230
         H            2.486585476578    -0.810047903078    -2.417628699803     1.007825032230
         H            2.391585476578     1.097952096922     2.131371300197     1.007825032230
         H            4.515585476578     0.253952096922    -1.498628699803     1.007825032230
         H            4.486585476578     2.125952096922     1.740371300197     1.007825032230
         H            5.297585476578     2.017952096922     0.198371300197     1.007825032230
         H            5.562272476578     0.744062096922     1.420131300197     1.007825032230

  Running in c1 symmetry.

  Rotational constants: A =      0.05188  B =      0.00910  C =      0.00826 [cm^-1]
  Rotational constants: A =   1555.45072  B =    272.77067  C =    247.68641 [MHz]
  Nuclear repulsion =  813.336816733886280

  Charge       = 0
  Multiplicity = 1
  Electrons    = 102
  Nalpha       = 51
  Nbeta        = 51

  ==> Algorithm <==

  SCF Algorithm Type is PK.
  DIIS enabled.
  MOM disabled.
  Fractional occupation disabled.
  Guess Type is SAD.
  Energy threshold   = 1.00e-06
  Density threshold  = 1.00e-10
  Integral threshold = 0.00e+00

  ==> Primary Basis <==

  Basis Set: CC-PVDZ
    Blend: CC-PVDZ
    Number of shells: 126
    Number of basis function: 266
    Number of Cartesian functions: 280
    Spherical Harmonics?: true
    Max angular momentum: 2

  ==> Pre-Iterations <==

   -------------------------------------------------------
    Irrep   Nso     Nmo     Nalpha   Nbeta   Ndocc  Nsocc
   -------------------------------------------------------
     A        266     266       0       0       0       0
   -------------------------------------------------------
    Total     266     266      51      51      51       0
   -------------------------------------------------------

  ==> Integral Setup <==

  Using integral reordering PK algorithm.
  Sizing the integral batches needed.
  Building batch lookup table.
   Calculation information:
      Number of atoms:                  28
      Number of AO shells:             126
      Number of primitives:            378
      Number of atomic orbitals:       280
      Number of basis functions:       266

      Integral cutoff                 1.00e-12
      Number of threads:                 1

	Batch   1 pq = [       0,    9405] index = [             0,44231715] size =     44231715
	Batch   2 pq = [    9405,   13301] index = [      44231715,88464951] size =     44233236
	Batch   3 pq = [   13301,   16290] index = [      88464951,132690195] size =     44225244
	Batch   4 pq = [   16290,   18810] index = [     132690195,176917455] size =     44227260
	Batch   5 pq = [   18810,   21030] index = [     176917455,221140965] size =     44223510
	Batch   6 pq = [   21030,   23037] index = [     221140965,265363203] size =     44222238
	Batch   7 pq = [   23037,   24883] index = [     265363203,309594286] size =     44231083
	Batch   8 pq = [   24883,   26601] index = [     309594286,353819901] size =     44225615
	Batch   9 pq = [   26601,   28214] index = [     353819901,398029005] size =     44209104
	Batch  10 pq = [   28214,   29740] index = [     398029005,442248670] size =     44219665
	Batch  11 pq = [   29740,   31191] index = [     442248670,486454836] size =     44206166
	Batch  12 pq = [   31191,   32578] index = [     486454836,530679331] size =     44224495
	Batch  13 pq = [   32578,   33908] index = [     530679331,574893186] size =     44213855
	Batch  14 pq = [   33908,   35188] index = [     574893186,619115266] size =     44222080
	Batch  15 pq = [   35188,   35511] index = [     619115266,630533316] size =     11418050
  Task number: 58
  Buffer size: 11059200
  Buffer per thread: 2
  We computed 26061358 shell quartets total.
  Whereas there are 32012001 unique shell quartets.

  ==> DiskJK: Disk-Based J/K Matrices <==

    J tasked:                  Yes
    K tasked:                  Yes
    wK tasked:                  No
    Memory [MiB]:              375
    Schwarz Cutoff:          1E-12

    OpenMP threads:              1

  Minimum eigenvalue in the overlap matrix is 3.2087745634E-04.
  Using Symmetric Orthogonalization.

  SCF Guess: Superposition of Atomic Densities via on-the-fly atomic UHF.

  ==> Iterations <==

                        Total Energy        Delta E     RMS |[F,P]|

   @RHF iter SAD:  -607.64647640685075   -6.07646e+02   0.00000e+00
   @RHF iter   1:  -608.21669400824328   -5.70218e-01   2.53955e-03 DIIS
   @RHF iter   2:  -608.46390980817000   -2.47216e-01   1.13706e-03 DIIS
   @RHF iter   3:  -608.50684966367612   -4.29399e-02   3.08392e-04 DIIS
   @RHF iter   4:  -608.51108184638110   -4.23218e-03   1.28784e-04 DIIS
   @RHF iter   5:  -608.51173625628894   -6.54410e-04   2.06956e-05 DIIS
   @RHF iter   6:  -608.51176606476315   -2.98085e-05   1.00971e-05 DIIS
   @RHF iter   7:  -608.51177188240695   -5.81764e-06   3.16969e-06 DIIS
   @RHF iter   8:  -608.51177307773696   -1.19533e-06   1.38040e-06 DIIS
   @RHF iter   9:  -608.51177331049291   -2.32756e-07   5.95721e-07 DIIS
   @RHF iter  10:  -608.51177335945147   -4.89586e-08   2.37503e-07 DIIS
   @RHF iter  11:  -608.51177336842295   -8.97148e-09   9.80141e-08 DIIS
   @RHF iter  12:  -608.51177337011904   -1.69609e-09   4.18102e-08 DIIS
   @RHF iter  13:  -608.51177337036279   -2.43745e-10   1.54927e-08 DIIS
   @RHF iter  14:  -608.51177337039280   -3.00133e-11   6.49315e-09 DIIS
   @RHF iter  15:  -608.51177337040178   -8.98126e-12   2.46945e-09 DIIS
   @RHF iter  16:  -608.51177337040269   -9.09495e-13   1.07214e-09 DIIS
   @RHF iter  17:  -608.51177337040008    2.61480e-12   3.86987e-10 DIIS
   @RHF iter  18:  -608.51177337039746    2.61480e-12   1.32065e-10 DIIS
   @RHF iter  19:  -608.51177337040065   -3.18323e-12   6.88876e-11 DIIS
  Energy and wave function converged.

  ==> Post-Iterations <==

    Orbital Energies [Eh]
    ---------------------

    Doubly Occupied:

       1A    -20.529976     2A    -15.645345     3A    -15.562091
       4A    -11.320521     5A    -11.273488     6A    -11.269537
       7A    -11.262100     8A    -11.231290     9A    -11.220081
      10A    -11.219854    11A    -11.215059    12A    -11.214423
      13A    -11.209726    14A    -11.205794    15A     -1.368975
      16A     -1.351016    17A     -1.186904    18A     -1.127360
      19A     -1.052730    20A     -1.015501    21A     -0.995892
      22A     -0.956447    23A     -0.906378    24A     -0.847298
      25A     -0.820272    26A     -0.789977    27A     -0.775835
      28A     -0.759796    29A     -0.701350    30A     -0.642971
      31A     -0.632952    32A     -0.627351    33A     -0.618710
      34A     -0.617764    35A     -0.584704    36A     -0.565789
      37A     -0.565191    38A     -0.562115    39A     -0.555481
      40A     -0.542456    41A     -0.538208    42A     -0.533362
      43A     -0.507472    44A     -0.479843    45A     -0.467604
      46A     -0.441211    47A     -0.439902    48A     -0.410414
      49A     -0.328606    50A     -0.318915    51A     -0.275437

    Virtual:

      52A      0.149537    53A      0.158437    54A      0.162566
      55A      0.176008    56A      0.191976    57A      0.197713
      58A      0.206312    59A      0.207399    60A      0.230294
      61A      0.233353    62A      0.239505    63A      0.270062
      64A      0.276896    65A      0.285672    66A      0.290855
      67A      0.294372    68A      0.309653    69A      0.341214
      70A      0.366149    71A      0.379981    72A      0.388493
      73A      0.395163    74A      0.436945    75A      0.454354
      76A      0.468183    77A      0.472095    78A      0.491125
      79A      0.506179    80A      0.519815    81A      0.537822
      82A      0.582775    83A      0.601194    84A      0.627100
      85A      0.634199    86A      0.647361    87A      0.651723
      88A      0.670923    89A      0.685706    90A      0.691907
      91A      0.693123    92A      0.709241    93A      0.713729
      94A      0.728811    95A      0.731559    96A      0.746791
      97A      0.750477    98A      0.757193    99A      0.759385
     100A      0.777141   101A      0.788287   102A      0.798421
     103A      0.800589   104A      0.813250   105A      0.814507
     106A      0.831410   107A      0.841107   108A      0.850286
     109A      0.864382   110A      0.869819   111A      0.878867
     112A      0.889390   113A      0.896800   114A      0.901284
     115A      0.904597   116A      0.913965   117A      0.924440
     118A      0.941026   119A      0.945013   120A      0.950954
     121A      0.951291   122A      0.956691   123A      0.973999
     124A      0.985316   125A      1.011172   126A      1.026466
     127A      1.048617   128A      1.064329   129A      1.075137
     130A      1.112950   131A      1.116669   132A      1.120788
     133A      1.148370   134A      1.165265   135A      1.172624
     136A      1.185452   137A      1.209782   138A      1.225945
     139A      1.238427   140A      1.255362   141A      1.261836
     142A      1.269191   143A      1.287784   144A      1.292882
     145A      1.300792   146A      1.312436   147A      1.321891
     148A      1.330371   149A      1.342254   150A      1.350403
     151A      1.372517   152A      1.391124   153A      1.410528
     154A      1.414880   155A      1.446973   156A      1.460490
     157A      1.492363   158A      1.518083   159A      1.534153
     160A      1.553057   161A      1.557740   162A      1.571493
     163A      1.595937   164A      1.606292   165A      1.623062
     166A      1.652350   167A      1.689619   168A      1.699080
     169A      1.707699   170A      1.719163   171A      1.732198
     172A      1.754825   173A      1.770069   174A      1.774808
     175A      1.794711   176A      1.797894   177A      1.822845
     178A      1.829159   179A      1.839974   180A      1.852387
     181A      1.888554   182A      1.893322   183A      1.910303
     184A      1.911432   185A      1.919397   186A      1.926537
     187A      1.929210   188A      1.937818   189A      1.945487
     190A      1.948516   191A      1.961358   192A      1.964739
     193A      1.969924   194A      1.983408   195A      1.998516
     196A      2.006303   197A      2.036012   198A      2.051041
     199A      2.053662   200A      2.074084   201A      2.079187
     202A      2.090008   203A      2.092410   204A      2.103905
     205A      2.128278   206A      2.159563   207A      2.167213
     208A      2.178549   209A      2.185659   210A      2.208158
     211A      2.219014   212A      2.230653   213A      2.253133
     214A      2.279469   215A      2.285515   216A      2.294860
     217A      2.317634   218A      2.335332   219A      2.348109
     220A      2.372453   221A      2.407855   222A      2.418385
     223A      2.420415   224A      2.442034   225A      2.482204
     226A      2.490546   227A      2.508148   228A      2.548187
     229A      2.552466   230A      2.564504   231A      2.597729
     232A      2.614104   233A      2.655824   234A      2.673151
     235A      2.712041   236A      2.734828   237A      2.762136
     238A      2.772173   239A      2.775918   240A      2.783794
     241A      2.806120   242A      2.809817   243A      2.832011
     244A      2.839677   245A      2.856675   246A      2.865062
     247A      2.902291   248A      2.915071   249A      2.926781
     250A      2.946245   251A      2.984939   252A      3.037932
     253A      3.077348   254A      3.110871   255A      3.124529
     256A      3.138321   257A      3.221043   258A      3.299916
     259A      3.304721   260A      3.413207   261A      3.459285
     262A      3.615647   263A      3.730414   264A      3.779557
     265A      3.986360   266A      4.298548

    Final Occupation by Irrep:
              A
    DOCC [    51 ]

  @RHF Final Energy:  -608.51177337040065

   => Energetics <=

    Nuclear Repulsion Energy =            813.3368167338862804
    One-Electron Energy =               -2441.1142328566570541
    Two-Electron Energy =                1019.2656427523701268
    Total Energy =                       -608.5117733704006469

Computation Completed

Properties will be evaluated at   0.000000,   0.000000,   0.000000 [a0]

Properties computed using the SCF density matrix

  Nuclear Dipole Moment: [e a0]
     X:     3.2676      Y:     4.8331      Z:     0.4545

  Electronic Dipole Moment: [e a0]
     X:    -5.2101      Y:    -4.5795      Z:     1.1583

  Dipole Moment: [e a0]
     X:    -1.9425      Y:     0.2537      Z:     1.6129     Total:     2.5375

  Dipole Moment: [D]
     X:    -4.9373      Y:     0.6447      Z:     4.0995     Total:     6.4497

*** tstop() called on ds3 at Mon Apr 27 21:00:03 2020
Module time:
	user time   =     228.10 seconds =       3.80 minutes
	system time =     103.07 seconds =       1.72 minutes
	total time  =        572 seconds =       9.53 minutes
Total time:
	user time   =     228.10 seconds =       3.80 minutes
	system time =     103.07 seconds =       1.72 minutes
	total time  =        572 seconds =       9.53 minutes
                                     G D M A

                                 by Anthony Stone

                           version 2.2.06, 22 June 2011

               Distributed Multipoles from Gaussian wavefunctions

Starting at 21:0:3 on 27 Apr 2020

Using SCF density matrix from file ./SSI/SSI-103HIE-168TYR-1-dimer.test.19262.fchk

                         Distributed Multipole Analysis

Standard DMA

Positions and radii in angstrom
Multipole moments in atomic units, ea_0^k for rank k

C          x = -3.315415  y =  0.478952  z = -1.846629 angstrom
           Maximum rank =  0   Radius =  0.650 angstrom
                   Q00  =  -0.202233

C          x = -3.259415  y =  0.010952  z = -0.434629 angstrom
           Maximum rank =  0   Radius =  0.650 angstrom
                   Q00  =   0.200719

C          x = -2.440415  y = -0.922048  z =  1.341371 angstrom
           Maximum rank =  0   Radius =  0.650 angstrom
                   Q00  =   0.458560

C          x = -4.186415  y =  0.137952  z =  0.552371 angstrom
           Maximum rank =  0   Radius =  0.650 angstrom
                   Q00  =   0.002526

N          x = -2.169415  y = -0.657048  z =  0.068371 angstrom
           Maximum rank =  0   Radius =  0.650 angstrom
                   Q00  =  -0.795093

N          x = -3.648415  y = -0.462048  z =  1.659371 angstrom
           Maximum rank =  0   Radius =  0.650 angstrom
                   Q00  =  -0.455920

H          x = -1.780415  y = -1.448048  z =  2.021371 angstrom
           Maximum rank =  0   Radius =  0.325 angstrom
                   Q00  =   0.129599

H          x = -2.337415  y =  0.867952  z = -2.131629 angstrom
           Maximum rank =  0   Radius =  0.325 angstrom
                   Q00  =   0.128651

H          x = -4.023415  y =  1.301952  z = -1.883629 angstrom
           Maximum rank =  0   Radius =  0.325 angstrom
                   Q00  =   0.094070

H          x = -4.088415  y = -0.558048  z =  2.568371 angstrom
           Maximum rank =  0   Radius =  0.325 angstrom
                   Q00  =   0.232799

H          x = -5.155415  y =  0.612952  z =  0.472371 angstrom
           Maximum rank =  0   Radius =  0.325 angstrom
                   Q00  =   0.111541

H          x = -3.624702  y = -0.295698  z = -2.563739 angstrom
           Maximum rank =  0   Radius =  0.325 angstrom
                   Q00  =   0.111878

C          x =  4.818585  y =  1.422952  z =  0.977371 angstrom
           Maximum rank =  0   Radius =  0.650 angstrom
                   Q00  =  -0.195815

C          x =  1.282585  y = -0.405048  z = -0.701629 angstrom
           Maximum rank =  0   Radius =  0.650 angstrom
                   Q00  =   0.369256

C          x =  1.264585  y =  0.116952  z =  0.594371 angstrom
           Maximum rank =  0   Radius =  0.650 angstrom
                   Q00  =  -0.202049

C          x =  2.468585  y = -0.374048  z = -1.431629 angstrom
           Maximum rank =  0   Radius =  0.650 angstrom
                   Q00  =  -0.061134

C          x =  2.419585  y =  0.684952  z =  1.132371 angstrom
           Maximum rank =  0   Radius =  0.650 angstrom
                   Q00  =   0.004691

C          x =  3.611585  y =  0.211952  z = -0.904629 angstrom
           Maximum rank =  0   Radius =  0.650 angstrom
                   Q00  =  -0.063313

C          x =  3.602585  y =  0.748952  z =  0.394371 angstrom
           Maximum rank =  0   Radius =  0.650 angstrom
                   Q00  =  -0.144951

O          x =  0.173585  y = -0.930048  z = -1.298629 angstrom
           Maximum rank =  0   Radius =  0.650 angstrom
                   Q00  =  -0.780858

H          x = -0.615415  y = -0.850048  z = -0.732629 angstrom
           Maximum rank =  0   Radius =  0.325 angstrom
                   Q00  =   0.531602

H          x =  0.351585  y =  0.095952  z =  1.172371 angstrom
           Maximum rank =  0   Radius =  0.325 angstrom
                   Q00  =   0.064296

H          x =  2.486585  y = -0.810048  z = -2.417629 angstrom
           Maximum rank =  0   Radius =  0.325 angstrom
                   Q00  =   0.070805

H          x =  2.391585  y =  1.097952  z =  2.131371 angstrom
           Maximum rank =  0   Radius =  0.325 angstrom
                   Q00  =   0.056834

H          x =  4.515585  y =  0.253952  z = -1.498629 angstrom
           Maximum rank =  0   Radius =  0.325 angstrom
                   Q00  =   0.056671

H          x =  4.486585  y =  2.125952  z =  1.740371 angstrom
           Maximum rank =  0   Radius =  0.325 angstrom
                   Q00  =   0.090144

H          x =  5.297585  y =  2.017952  z =  0.198371 angstrom
           Maximum rank =  0   Radius =  0.325 angstrom
                   Q00  =   0.092384

H          x =  5.562272  y =  0.744062  z =  1.420131 angstrom
           Maximum rank =  0   Radius =  0.325 angstrom
                   Q00  =   0.094339

Total multipoles referred to origin at
           x =   0.000000,  y =    0.000000,  z =    0.000000 angstrom
                   Q00  =  -0.000000

Finished at 21:0:3 on 27 Apr 2020

  DMA results are available in the Python driver through the
	  variable('DMA DISTRIBUTED MULTIPOLES')
  and
	  variable('DMA TOTAL MULTIPOLES')
  commands.

    Psi4 stopped on: Monday, 27 April 2020 09:00PM
    Psi4 wall time for execution: 0:09:32.32

*** Psi4 exiting successfully. Buy a developer a beer!
