                               Psi4 1.3.2 release

  ==> Input File <==

--------------------------------------------------------------------------
import numpy as np
set {scf_type pk
basis cc-pvdz
d_convergence 10
gdma_switch   0
gdma_limit    0
gdma_origin   [ 0.0,  0.0,  0.0 ]
}
molecule test {
    units Angstrom
    0 1
    --
    0 1
    C                0.396428053033470    -1.410599168354894    -2.127051497568516
    C                1.644428053033470    -1.198599168354894    -2.986051497568515
    H               -0.148571946966530    -0.470599168354894    -2.028051497568515
    H               -0.260571946966530    -2.140599168354894    -2.598051497568515
    H                0.673428053033470    -1.760599168354894    -1.133051497568515
    H                2.167428053033471    -2.147599168354894    -3.070051497568516
    H                2.309498053033471    -0.448429168354894    -2.533372497568515
    H                1.357938053033470    -0.900539168354894    -4.005404497568515
    C               -2.481571946966529    -0.153599168354894     1.076948502431485
    C               -1.067571946966530     0.321400831645106     0.969948502431485
    C               -0.545571946966530     1.386400831645106     0.310948502431485
    C                1.109428053033470     0.287400831645106     1.250948502431485
    N               -0.012571946966530    -0.363599168354894     1.537948502431485
    N                0.814428053033470     1.351400831645106     0.512948502431485
    H               -3.158571946966530     0.694400831645106     0.982948502431485
    H               -2.609571946966529    -0.564599168354894     2.079948502431485
    H               -1.098571946966530     2.133400831645107    -0.226051497568515
    H                2.102428053033470    -0.043599168354894     1.503948502431485
    H                1.495428053033470     1.990400831645106     0.108948502431485
    H               -2.726371946966530    -0.926879168354894     0.333908502431485

}
e, wfn = energy('scf', return_wfn=True)
gdma(wfn)
dmavals = variable('DMA DISTRIBUTED MULTIPOLES')
charges = np.array(dmavals)
print(charges)
np.save('SSI-012LEU-062HIE-1-dimer.npy', np.array(charges))--------------------------------------------------------------------------

*** tstart() called on ds3
*** at Tue Apr 28 15:11:55 2020

   => Loading Basis Set <=

    Name: CC-PVDZ
    Role: ORBITAL
    Keyword: BASIS
    atoms 1-2, 9-12  entry C          line   138 file /theoryfs2/ds/metcalf/miniconda2/envs/tf2gpu/share/psi4/basis/cc-pvdz.gbs
    atoms 3-8, 15-20 entry H          line    22 file /theoryfs2/ds/metcalf/miniconda2/envs/tf2gpu/share/psi4/basis/cc-pvdz.gbs
    atoms 13-14      entry N          line   168 file /theoryfs2/ds/metcalf/miniconda2/envs/tf2gpu/share/psi4/basis/cc-pvdz.gbs

         ---------------------------------------------------------
                                   SCF
               by Justin Turney, Rob Parrish, Andy Simmonett
                          and Daniel G. A. Smith
                              RHF Reference
                        1 Threads,    500 MiB Core
         ---------------------------------------------------------

  ==> Geometry <==

    Molecular point group: c1
    Full point group: C1

    Geometry (in Angstrom), charge = 0, multiplicity = 1:

       Center              X                  Y                   Z               Mass
    ------------   -----------------  -----------------  -----------------  -----------------
         C            0.396428053033    -1.410599168355    -2.127051497569    12.000000000000
         C            1.644428053033    -1.198599168355    -2.986051497569    12.000000000000
         H           -0.148571946967    -0.470599168355    -2.028051497569     1.007825032230
         H           -0.260571946967    -2.140599168355    -2.598051497569     1.007825032230
         H            0.673428053033    -1.760599168355    -1.133051497569     1.007825032230
         H            2.167428053033    -2.147599168355    -3.070051497569     1.007825032230
         H            2.309498053033    -0.448429168355    -2.533372497569     1.007825032230
         H            1.357938053033    -0.900539168355    -4.005404497569     1.007825032230
         C           -2.481571946967    -0.153599168355     1.076948502431    12.000000000000
         C           -1.067571946967     0.321400831645     0.969948502431    12.000000000000
         C           -0.545571946967     1.386400831645     0.310948502431    12.000000000000
         C            1.109428053033     0.287400831645     1.250948502431    12.000000000000
         N           -0.012571946967    -0.363599168355     1.537948502431    14.003074004430
         N            0.814428053033     1.351400831645     0.512948502431    14.003074004430
         H           -3.158571946967     0.694400831645     0.982948502431     1.007825032230
         H           -2.609571946967    -0.564599168355     2.079948502431     1.007825032230
         H           -1.098571946967     2.133400831645    -0.226051497569     1.007825032230
         H            2.102428053033    -0.043599168355     1.503948502431     1.007825032230
         H            1.495428053033     1.990400831645     0.108948502431     1.007825032230
         H           -2.726371946967    -0.926879168355     0.333908502431     1.007825032230

  Running in c1 symmetry.

  Rotational constants: A =      0.08595  B =      0.03605  C =      0.03055 [cm^-1]
  Rotational constants: A =   2576.83365  B =   1080.70377  C =    915.77533 [MHz]
  Nuclear repulsion =  362.240501296357024

  Charge       = 0
  Multiplicity = 1
  Electrons    = 62
  Nalpha       = 31
  Nbeta        = 31

  ==> Algorithm <==

  SCF Algorithm Type is PK.
  DIIS enabled.
  MOM disabled.
  Fractional occupation disabled.
  Guess Type is SAD.
  Energy threshold   = 1.00e-06
  Density threshold  = 1.00e-10
  Integral threshold = 0.00e+00

  ==> Primary Basis <==

  Basis Set: CC-PVDZ
    Blend: CC-PVDZ
    Number of shells: 84
    Number of basis function: 172
    Number of Cartesian functions: 180
    Spherical Harmonics?: true
    Max angular momentum: 2

  ==> Pre-Iterations <==

   -------------------------------------------------------
    Irrep   Nso     Nmo     Nalpha   Nbeta   Ndocc  Nsocc
   -------------------------------------------------------
     A        172     172       0       0       0       0
   -------------------------------------------------------
    Total     172     172      31      31      31       0
   -------------------------------------------------------

  ==> Integral Setup <==

  Using integral reordering PK algorithm.
  Sizing the integral batches needed.
  Building batch lookup table.
   Calculation information:
      Number of atoms:                  20
      Number of AO shells:              84
      Number of primitives:            236
      Number of atomic orbitals:       180
      Number of basis functions:       172

      Integral cutoff                 1.00e-12
      Number of threads:                 1

	Batch   1 pq = [       0,    9405] index = [             0,44231715] size =     44231715
	Batch   2 pq = [    9405,   13301] index = [      44231715,88464951] size =     44233236
	Batch   3 pq = [   13301,   14878] index = [      88464951,110684881] size =     22219930
  Task number: 11
  Buffer size: 11059200
  Buffer per thread: 2
  We computed 5848477 shell quartets total.
  Whereas there are 6374235 unique shell quartets.

  ==> DiskJK: Disk-Based J/K Matrices <==

    J tasked:                  Yes
    K tasked:                  Yes
    wK tasked:                  No
    Memory [MiB]:              375
    Schwarz Cutoff:          1E-12

    OpenMP threads:              1

  Minimum eigenvalue in the overlap matrix is 1.1572359668E-03.
  Using Symmetric Orthogonalization.

  SCF Guess: Superposition of Atomic Densities via on-the-fly atomic UHF.

  ==> Iterations <==

                        Total Energy        Delta E     RMS |[F,P]|

   @RHF iter SAD:  -342.21799894547723   -3.42218e+02   0.00000e+00
   @RHF iter   1:  -342.88913489283595   -6.71136e-01   3.36102e-03 DIIS
   @RHF iter   2:  -343.06160701294903   -1.72472e-01   1.69656e-03 DIIS
   @RHF iter   3:  -343.10190457682808   -4.02976e-02   4.31946e-04 DIIS
   @RHF iter   4:  -343.10533108457503   -3.42651e-03   1.82021e-04 DIIS
   @RHF iter   5:  -343.10589356423969   -5.62480e-04   2.68117e-05 DIIS
   @RHF iter   6:  -343.10591463717259   -2.10729e-05   1.15376e-05 DIIS
   @RHF iter   7:  -343.10591813443131   -3.49726e-06   4.11054e-06 DIIS
   @RHF iter   8:  -343.10591890950866   -7.75077e-07   1.66015e-06 DIIS
   @RHF iter   9:  -343.10591908165577   -1.72147e-07   5.89547e-07 DIIS
   @RHF iter  10:  -343.10591909790077   -1.62450e-08   1.81080e-07 DIIS
   @RHF iter  11:  -343.10591909967616   -1.77539e-09   8.05055e-08 DIIS
   @RHF iter  12:  -343.10591909992615   -2.49997e-10   3.20528e-08 DIIS
   @RHF iter  13:  -343.10591909996975   -4.35989e-11   8.79167e-09 DIIS
   @RHF iter  14:  -343.10591909997567   -5.91172e-12   3.27196e-09 DIIS
   @RHF iter  15:  -343.10591909997675   -1.08002e-12   1.31168e-09 DIIS
   @RHF iter  16:  -343.10591909997652    2.27374e-13   4.11868e-10 DIIS
   @RHF iter  17:  -343.10591909997680   -2.84217e-13   1.24563e-10 DIIS
   @RHF iter  18:  -343.10591909997453    2.27374e-12   4.35130e-11 DIIS
  Energy and wave function converged.

  ==> Post-Iterations <==

    Orbital Energies [Eh]
    ---------------------

    Doubly Occupied:

       1A    -15.622131     2A    -15.528770     3A    -11.292569
       4A    -11.249115     5A    -11.240610     6A    -11.222635
       7A    -11.215858     8A    -11.206795     9A     -1.342416
      10A     -1.154011    11A     -1.031856    12A     -1.011759
      13A     -0.941446    14A     -0.830638    15A     -0.818523
      16A     -0.763327    17A     -0.741548    18A     -0.611216
      19A     -0.608277    20A     -0.598128    21A     -0.590975
      22A     -0.589461    23A     -0.553333    24A     -0.538736
      25A     -0.520360    26A     -0.493473    27A     -0.482314
      28A     -0.477042    29A     -0.411952    30A     -0.378175
      31A     -0.309729

    Virtual:

      32A      0.160442    33A      0.183233    34A      0.194979
      35A      0.205787    36A      0.220065    37A      0.224778
      38A      0.239734    39A      0.254143    40A      0.265354
      41A      0.271623    42A      0.277965    43A      0.295615
      44A      0.305093    45A      0.306947    46A      0.374194
      47A      0.393208    48A      0.408165    49A      0.417500
      50A      0.475061    51A      0.486476    52A      0.595551
      53A      0.599419    54A      0.601512    55A      0.619358
      56A      0.632301    57A      0.646688    58A      0.662644
      59A      0.670737    60A      0.684170    61A      0.719125
      62A      0.743728    63A      0.751976    64A      0.781499
      65A      0.808962    66A      0.825929    67A      0.836524
      68A      0.859807    69A      0.881128    70A      0.889934
      71A      0.897650    72A      0.898752    73A      0.906383
      74A      0.915631    75A      0.927470    76A      0.931168
      77A      0.933681    78A      0.958356    79A      0.971073
      80A      0.978850    81A      1.004889    82A      1.033083
      83A      1.061668    84A      1.091345    85A      1.103212
      86A      1.123715    87A      1.143096    88A      1.146029
      89A      1.158955    90A      1.188415    91A      1.239311
      92A      1.261965    93A      1.273576    94A      1.309456
      95A      1.327306    96A      1.341174    97A      1.431577
      98A      1.446311    99A      1.478538   100A      1.486827
     101A      1.491139   102A      1.526747   103A      1.560817
     104A      1.578153   105A      1.612400   106A      1.647379
     107A      1.684042   108A      1.690453   109A      1.707200
     110A      1.749381   111A      1.776681   112A      1.811016
     113A      1.829419   114A      1.860235   115A      1.875410
     116A      1.885546   117A      1.896553   118A      1.913227
     119A      1.921041   120A      1.938999   121A      1.950924
     122A      1.954664   123A      1.960315   124A      1.966854
     125A      1.972916   126A      1.977339   127A      1.991190
     128A      2.024053   129A      2.048355   130A      2.082611
     131A      2.099688   132A      2.116325   133A      2.124423
     134A      2.144423   135A      2.204126   136A      2.232031
     137A      2.239458   138A      2.298793   139A      2.309458
     140A      2.325561   141A      2.350280   142A      2.378724
     143A      2.437878   144A      2.451161   145A      2.459268
     146A      2.485404   147A      2.510135   148A      2.560550
     149A      2.567189   150A      2.581270   151A      2.610471
     152A      2.695229   153A      2.724185   154A      2.758486
     155A      2.768098   156A      2.784428   157A      2.788495
     158A      2.803763   159A      2.845705   160A      2.855952
     161A      2.864947   162A      2.871855   163A      2.890970
     164A      2.922581   165A      2.951228   166A      2.978761
     167A      2.998513   168A      3.072015   169A      3.161756
     170A      3.237120   171A      3.476454   172A      3.799018

    Final Occupation by Irrep:
              A
    DOCC [    31 ]

  @RHF Final Energy:  -343.10591909997453

   => Energetics <=

    Nuclear Repulsion Energy =            362.2405012963570243
    One-Electron Energy =               -1181.9384810261858547
    Two-Electron Energy =                 476.5920606298543021
    Total Energy =                       -343.1059190999745283

Computation Completed

Properties will be evaluated at   0.000000,   0.000000,   0.000000 [a0]

Properties computed using the SCF density matrix

  Nuclear Dipole Moment: [e a0]
     X:     0.0951      Y:    -4.3014      Z:    -9.9284

  Electronic Dipole Moment: [e a0]
     X:     0.4226      Y:     5.3449      Z:     9.3425

  Dipole Moment: [e a0]
     X:     0.5177      Y:     1.0435      Z:    -0.5860     Total:     1.3040

  Dipole Moment: [D]
     X:     1.3159      Y:     2.6523      Z:    -1.4894     Total:     3.3143

*** tstop() called on ds3 at Tue Apr 28 15:14:07 2020
Module time:
	user time   =      43.55 seconds =       0.73 minutes
	system time =      16.48 seconds =       0.27 minutes
	total time  =        132 seconds =       2.20 minutes
Total time:
	user time   =      43.55 seconds =       0.73 minutes
	system time =      16.48 seconds =       0.27 minutes
	total time  =        132 seconds =       2.20 minutes
                                     G D M A

                                 by Anthony Stone

                           version 2.2.06, 22 June 2011

               Distributed Multipoles from Gaussian wavefunctions

Starting at 15:14:7 on 28 Apr 2020

Using SCF density matrix from file ./SSI/SSI-012LEU-062HIE-1-dimer.test.4925.fchk

                         Distributed Multipole Analysis

Standard DMA

Positions and radii in angstrom
Multipole moments in atomic units, ea_0^k for rank k

C          x =  0.396428  y = -1.410599  z = -2.127052 angstrom
           Maximum rank =  0   Radius =  0.650 angstrom
                   Q00  =  -0.238119

C          x =  1.644428  y = -1.198599  z = -2.986052 angstrom
           Maximum rank =  0   Radius =  0.650 angstrom
                   Q00  =  -0.227667

H          x = -0.148572  y = -0.470599  z = -2.028051 angstrom
           Maximum rank =  0   Radius =  0.325 angstrom
                   Q00  =   0.078783

H          x = -0.260572  y = -2.140599  z = -2.598051 angstrom
           Maximum rank =  0   Radius =  0.325 angstrom
                   Q00  =   0.075280

H          x =  0.673428  y = -1.760599  z = -1.133052 angstrom
           Maximum rank =  0   Radius =  0.325 angstrom
                   Q00  =   0.088546

H          x =  2.167428  y = -2.147599  z = -3.070051 angstrom
           Maximum rank =  0   Radius =  0.325 angstrom
                   Q00  =   0.077760

H          x =  2.309498  y = -0.448429  z = -2.533372 angstrom
           Maximum rank =  0   Radius =  0.325 angstrom
                   Q00  =   0.067776

H          x =  1.357938  y = -0.900539  z = -4.005404 angstrom
           Maximum rank =  0   Radius =  0.325 angstrom
                   Q00  =   0.074888

C          x = -2.481572  y = -0.153599  z =  1.076949 angstrom
           Maximum rank =  0   Radius =  0.650 angstrom
                   Q00  =  -0.194751

C          x = -1.067572  y =  0.321401  z =  0.969949 angstrom
           Maximum rank =  0   Radius =  0.650 angstrom
                   Q00  =   0.229901

C          x = -0.545572  y =  1.386401  z =  0.310949 angstrom
           Maximum rank =  0   Radius =  0.650 angstrom
                   Q00  =  -0.002375

C          x =  1.109428  y =  0.287401  z =  1.250949 angstrom
           Maximum rank =  0   Radius =  0.650 angstrom
                   Q00  =   0.460073

N          x = -0.012572  y = -0.363599  z =  1.537949 angstrom
           Maximum rank =  0   Radius =  0.650 angstrom
                   Q00  =  -0.774082

N          x =  0.814428  y =  1.351401  z =  0.512949 angstrom
           Maximum rank =  0   Radius =  0.650 angstrom
                   Q00  =  -0.474847

H          x = -3.158572  y =  0.694401  z =  0.982949 angstrom
           Maximum rank =  0   Radius =  0.325 angstrom
                   Q00  =   0.092588

H          x = -2.609572  y = -0.564599  z =  2.079949 angstrom
           Maximum rank =  0   Radius =  0.325 angstrom
                   Q00  =   0.116293

H          x = -1.098572  y =  2.133401  z = -0.226051 angstrom
           Maximum rank =  0   Radius =  0.325 angstrom
                   Q00  =   0.100003

H          x =  2.102428  y = -0.043599  z =  1.503949 angstrom
           Maximum rank =  0   Radius =  0.325 angstrom
                   Q00  =   0.122561

H          x =  1.495428  y =  1.990401  z =  0.108949 angstrom
           Maximum rank =  0   Radius =  0.325 angstrom
                   Q00  =   0.221170

H          x = -2.726372  y = -0.926879  z =  0.333909 angstrom
           Maximum rank =  0   Radius =  0.325 angstrom
                   Q00  =   0.106220

Total multipoles referred to origin at
           x =   0.000000,  y =    0.000000,  z =    0.000000 angstrom
                   Q00  =  -0.000000

Finished at 15:14:7 on 28 Apr 2020

  DMA results are available in the Python driver through the
	  variable('DMA DISTRIBUTED MULTIPOLES')
  and
	  variable('DMA TOTAL MULTIPOLES')
  commands.

    Psi4 stopped on: Tuesday, 28 April 2020 03:14PM
    Psi4 wall time for execution: 0:02:12.72

*** Psi4 exiting successfully. Buy a developer a beer!
