                               Psi4 1.3.2 release

  ==> Input File <==

--------------------------------------------------------------------------
import numpy as np
set {scf_type pk
basis cc-pvdz
d_convergence 10
gdma_switch   0
gdma_limit    0
gdma_origin   [ 0.0,  0.0,  0.0 ]
}
molecule test {
    units Angstrom
    0 1
    --
    0 1
    C                1.504820037243494    -2.226725126912814    -1.292822861198703
    C                0.166820037243494    -0.279725126912814    -0.335822861198703
    C                1.366820037243494    -0.997725126912814    -0.415822861198703
    C                0.063820037243494     0.849274873087186     0.480177138801297
    C                1.156820037243494     1.263274873087186     1.239177138801297
    C                2.449820037243494    -0.575725126912814     0.358177138801297
    C                2.350820037243494     0.550274873087186     1.178177138801297
    H               -0.712179962756506    -0.594725126912814    -0.875822861198703
    H               -0.872179962756506     1.384274873087186     0.540177138801297
    H                1.432820037243494    -3.113725126912814    -0.663822861198703
    H                2.484820037243494    -2.208725126912814    -1.740822861198703
    H                1.077820037243494     2.137274873087186     1.873177138801297
    H                3.376820037243494    -1.123725126912814     0.334177138801297
    H                3.198820037243493     0.864274873087186     1.772177138801297
    H                0.771054037243494    -2.303174126912813    -2.108753861198703
    C               -3.553179962756507     0.327274873087186    -0.942822861198703
    C               -4.408179962756506     1.133274873087186     0.033177138801297
    H               -4.062179962756506     0.245274873087186    -1.891822861198703
    H               -2.612179962756506     0.850274873087186    -1.104822861198703
    H               -3.351179962756507    -0.662725126912814    -0.543822861198703
    H               -3.814179962756506     1.317274873087186     0.929177138801297
    H               -5.323812962756507     0.594289873087186     0.317977138801297
    H               -4.672487962756507     2.096224873087186    -0.428202861198703

}
e, wfn = energy('scf', return_wfn=True)
gdma(wfn)
dmavals = variable('DMA DISTRIBUTED MULTIPOLES')
charges = np.array(dmavals)
print(charges)
np.save('SSI-064PHE-123THR-1-dimer.npy', np.array(charges))--------------------------------------------------------------------------

*** tstart() called on ds3
*** at Sun Apr 26 20:39:48 2020

   => Loading Basis Set <=

    Name: CC-PVDZ
    Role: ORBITAL
    Keyword: BASIS
    atoms 1-7, 16-17  entry C          line   138 file /theoryfs2/ds/metcalf/miniconda2/envs/tf2gpu/share/psi4/basis/cc-pvdz.gbs
    atoms 8-15, 18-23 entry H          line    22 file /theoryfs2/ds/metcalf/miniconda2/envs/tf2gpu/share/psi4/basis/cc-pvdz.gbs

         ---------------------------------------------------------
                                   SCF
               by Justin Turney, Rob Parrish, Andy Simmonett
                          and Daniel G. A. Smith
                              RHF Reference
                        1 Threads,    500 MiB Core
         ---------------------------------------------------------

  ==> Geometry <==

    Molecular point group: c1
    Full point group: C1

    Geometry (in Angstrom), charge = 0, multiplicity = 1:

       Center              X                  Y                   Z               Mass
    ------------   -----------------  -----------------  -----------------  -----------------
         C            1.504820037243    -2.226725126913    -1.292822861199    12.000000000000
         C            0.166820037243    -0.279725126913    -0.335822861199    12.000000000000
         C            1.366820037243    -0.997725126913    -0.415822861199    12.000000000000
         C            0.063820037243     0.849274873087     0.480177138801    12.000000000000
         C            1.156820037243     1.263274873087     1.239177138801    12.000000000000
         C            2.449820037243    -0.575725126913     0.358177138801    12.000000000000
         C            2.350820037243     0.550274873087     1.178177138801    12.000000000000
         H           -0.712179962757    -0.594725126913    -0.875822861199     1.007825032230
         H           -0.872179962757     1.384274873087     0.540177138801     1.007825032230
         H            1.432820037243    -3.113725126913    -0.663822861199     1.007825032230
         H            2.484820037243    -2.208725126913    -1.740822861199     1.007825032230
         H            1.077820037243     2.137274873087     1.873177138801     1.007825032230
         H            3.376820037243    -1.123725126913     0.334177138801     1.007825032230
         H            3.198820037243     0.864274873087     1.772177138801     1.007825032230
         H            0.771054037243    -2.303174126913    -2.108753861199     1.007825032230
         C           -3.553179962757     0.327274873087    -0.942822861199    12.000000000000
         C           -4.408179962757     1.133274873087     0.033177138801    12.000000000000
         H           -4.062179962757     0.245274873087    -1.891822861199     1.007825032230
         H           -2.612179962757     0.850274873087    -1.104822861199     1.007825032230
         H           -3.351179962757    -0.662725126913    -0.543822861199     1.007825032230
         H           -3.814179962757     1.317274873087     0.929177138801     1.007825032230
         H           -5.323812962757     0.594289873087     0.317977138801     1.007825032230
         H           -4.672487962757     2.096224873087    -0.428202861199     1.007825032230

  Running in c1 symmetry.

  Rotational constants: A =      0.07784  B =      0.02189  C =      0.01735 [cm^-1]
  Rotational constants: A =   2333.58053  B =    656.37524  C =    520.02778 [MHz]
  Nuclear repulsion =  399.779810233521403

  Charge       = 0
  Multiplicity = 1
  Electrons    = 68
  Nalpha       = 34
  Nbeta        = 34

  ==> Algorithm <==

  SCF Algorithm Type is PK.
  DIIS enabled.
  MOM disabled.
  Fractional occupation disabled.
  Guess Type is SAD.
  Energy threshold   = 1.00e-06
  Density threshold  = 1.00e-10
  Integral threshold = 0.00e+00

  ==> Primary Basis <==

  Basis Set: CC-PVDZ
    Blend: CC-PVDZ
    Number of shells: 96
    Number of basis function: 196
    Number of Cartesian functions: 205
    Spherical Harmonics?: true
    Max angular momentum: 2

  ==> Pre-Iterations <==

   -------------------------------------------------------
    Irrep   Nso     Nmo     Nalpha   Nbeta   Ndocc  Nsocc
   -------------------------------------------------------
     A        196     196       0       0       0       0
   -------------------------------------------------------
    Total     196     196      34      34      34       0
   -------------------------------------------------------

  ==> Integral Setup <==

  Using integral reordering PK algorithm.
  Sizing the integral batches needed.
  Building batch lookup table.
   Calculation information:
      Number of atoms:                  23
      Number of AO shells:              96
      Number of primitives:            268
      Number of atomic orbitals:       205
      Number of basis functions:       196

      Integral cutoff                 1.00e-12
      Number of threads:                 1

	Batch   1 pq = [       0,    9405] index = [             0,44231715] size =     44231715
	Batch   2 pq = [    9405,   13301] index = [      44231715,88464951] size =     44233236
	Batch   3 pq = [   13301,   16290] index = [      88464951,132690195] size =     44225244
	Batch   4 pq = [   16290,   18810] index = [     132690195,176917455] size =     44227260
	Batch   5 pq = [   18810,   19306] index = [     176917455,186370471] size =      9453016
  Task number: 17
  Buffer size: 11059200
  Buffer per thread: 2
  We computed 8775743 shell quartets total.
  Whereas there are 10841496 unique shell quartets.

  ==> DiskJK: Disk-Based J/K Matrices <==

    J tasked:                  Yes
    K tasked:                  Yes
    wK tasked:                  No
    Memory [MiB]:              375
    Schwarz Cutoff:          1E-12

    OpenMP threads:              1

  Minimum eigenvalue in the overlap matrix is 3.0503698471E-04.
  Using Symmetric Orthogonalization.

  SCF Guess: Superposition of Atomic Densities via on-the-fly atomic UHF.

  ==> Iterations <==

                        Total Energy        Delta E     RMS |[F,P]|

   @RHF iter SAD:  -347.83666965064401   -3.47837e+02   0.00000e+00
   @RHF iter   1:  -348.76863031030393   -9.31961e-01   2.88164e-03 DIIS
   @RHF iter   2:  -348.96027300996599   -1.91643e-01   1.18363e-03 DIIS
   @RHF iter   3:  -348.98968966390873   -2.94167e-02   2.56604e-04 DIIS
   @RHF iter   4:  -348.99215519387786   -2.46553e-03   4.83740e-05 DIIS
   @RHF iter   5:  -348.99221971418706   -6.45203e-05   1.60775e-05 DIIS
   @RHF iter   6:  -348.99222615891694   -6.44473e-06   4.34406e-06 DIIS
   @RHF iter   7:  -348.99222669188185   -5.32965e-07   1.30212e-06 DIIS
   @RHF iter   8:  -348.99222674100878   -4.91269e-08   2.78828e-07 DIIS
   @RHF iter   9:  -348.99222674511316   -4.10438e-09   1.12508e-07 DIIS
   @RHF iter  10:  -348.99222674578732   -6.74163e-10   4.74807e-08 DIIS
   @RHF iter  11:  -348.99222674600634   -2.19018e-10   1.90656e-08 DIIS
   @RHF iter  12:  -348.99222674605051   -4.41673e-11   8.88489e-09 DIIS
   @RHF iter  13:  -348.99222674605608   -5.57066e-12   3.52928e-09 DIIS
   @RHF iter  14:  -348.99222674605932   -3.24007e-12   8.34938e-10 DIIS
   @RHF iter  15:  -348.99222674605778    1.53477e-12   3.69170e-10 DIIS
   @RHF iter  16:  -348.99222674605932   -1.53477e-12   1.18667e-10 DIIS
   @RHF iter  17:  -348.99222674605852    7.95808e-13   4.46645e-11 DIIS
  Energy and wave function converged.

  ==> Post-Iterations <==

    Orbital Energies [Eh]
    ---------------------

    Doubly Occupied:

       1A    -11.242832     2A    -11.235522     3A    -11.234657
       4A    -11.230702     5A    -11.230296     6A    -11.229861
       7A    -11.228934     8A    -11.221270     9A    -11.217782
      10A     -1.149178    11A     -1.041666    12A     -1.022345
      13A     -1.009167    14A     -0.931325    15A     -0.839941
      16A     -0.822376    17A     -0.795282    18A     -0.689527
      19A     -0.630353    20A     -0.628027    21A     -0.604129
      22A     -0.601660    23A     -0.579333    24A     -0.577198
      25A     -0.561951    26A     -0.535663    27A     -0.502201
      28A     -0.491074    29A     -0.487934    30A     -0.485575
      31A     -0.483051    32A     -0.478735    33A     -0.330244
      34A     -0.320573

    Virtual:

      35A      0.136158    36A      0.141402    37A      0.172020
      38A      0.191504    39A      0.205520    40A      0.223551
      41A      0.229310    42A      0.245526    43A      0.250917
      44A      0.262353    45A      0.263389    46A      0.278431
      47A      0.280806    48A      0.287230    49A      0.313684
      50A      0.341718    51A      0.367135    52A      0.382372
      53A      0.399915    54A      0.452892    55A      0.465481
      56A      0.475606    57A      0.494535    58A      0.553683
      59A      0.592524    60A      0.600589    61A      0.618614
      62A      0.624853    63A      0.635973    64A      0.672059
      65A      0.692718    66A      0.693718    67A      0.705287
      68A      0.713923    69A      0.725223    70A      0.741499
      71A      0.742171    72A      0.746315    73A      0.762058
      74A      0.773508    75A      0.791073    76A      0.816593
      77A      0.835314    78A      0.843647    79A      0.845843
      80A      0.868424    81A      0.878203    82A      0.882294
      83A      0.888133    84A      0.891384    85A      0.898137
      86A      0.911957    87A      0.914519    88A      0.919339
      89A      0.934902    90A      0.941901    91A      0.948014
      92A      0.964552    93A      0.979614    94A      1.010055
      95A      1.032084    96A      1.046214    97A      1.113917
      98A      1.123467    99A      1.132803   100A      1.149171
     101A      1.155107   102A      1.180741   103A      1.200936
     104A      1.234993   105A      1.238046   106A      1.251834
     107A      1.253607   108A      1.276710   109A      1.308434
     110A      1.316208   111A      1.319062   112A      1.342686
     113A      1.415492   114A      1.466914   115A      1.485506
     116A      1.514242   117A      1.521223   118A      1.560764
     119A      1.583895   120A      1.605539   121A      1.668441
     122A      1.682759   123A      1.693702   124A      1.707808
     125A      1.738532   126A      1.748425   127A      1.758609
     128A      1.792077   129A      1.809171   130A      1.848741
     131A      1.856721   132A      1.876426   133A      1.884971
     134A      1.898491   135A      1.905300   136A      1.916057
     137A      1.921934   138A      1.928306   139A      1.936988
     140A      1.939804   141A      1.945616   142A      1.952978
     143A      1.960249   144A      1.963095   145A      1.975326
     146A      1.986563   147A      1.993085   148A      2.002725
     149A      2.041017   150A      2.064944   151A      2.076396
     152A      2.097804   153A      2.116434   154A      2.121709
     155A      2.146641   156A      2.158250   157A      2.168145
     158A      2.175481   159A      2.205555   160A      2.255542
     161A      2.276131   162A      2.281427   163A      2.294478
     164A      2.298907   165A      2.311718   166A      2.326776
     167A      2.357364   168A      2.458698   169A      2.461534
     170A      2.474399   171A      2.483594   172A      2.493188
     173A      2.539774   174A      2.568517   175A      2.587692
     176A      2.635309   177A      2.733981   178A      2.746605
     179A      2.764424   180A      2.778588   181A      2.784397
     182A      2.806713   183A      2.825708   184A      2.845106
     185A      2.851113   186A      2.861855   187A      2.871350
     188A      2.954580   189A      2.972355   190A      2.980897
     191A      3.011149   192A      3.031675   193A      3.162430
     194A      3.202135   195A      3.295352   196A      3.952871

    Final Occupation by Irrep:
              A
    DOCC [    34 ]

  @RHF Final Energy:  -348.99222674605852

   => Energetics <=

    Nuclear Repulsion Energy =            399.7798102335214026
    One-Electron Energy =               -1262.2033471464512786
    Two-Electron Energy =                 513.4313101668712989
    Total Energy =                       -348.9922267460585772

Computation Completed

Properties will be evaluated at   0.000000,   0.000000,   0.000000 [a0]

Properties computed using the SCF density matrix

  Nuclear Dipole Moment: [e a0]
     X:   -12.2604      Y:    -0.4853      Z:    -3.3665

  Electronic Dipole Moment: [e a0]
     X:    12.2638      Y:     0.3509      Z:     3.3017

  Dipole Moment: [e a0]
     X:     0.0034      Y:    -0.1344      Z:    -0.0647     Total:     0.1492

  Dipole Moment: [D]
     X:     0.0086      Y:    -0.3416      Z:    -0.1646     Total:     0.3793

*** tstop() called on ds3 at Sun Apr 26 20:41:22 2020
Module time:
	user time   =      64.12 seconds =       1.07 minutes
	system time =      35.00 seconds =       0.58 minutes
	total time  =         94 seconds =       1.57 minutes
Total time:
	user time   =      64.12 seconds =       1.07 minutes
	system time =      35.00 seconds =       0.58 minutes
	total time  =         94 seconds =       1.57 minutes
                                     G D M A

                                 by Anthony Stone

                           version 2.2.06, 22 June 2011

               Distributed Multipoles from Gaussian wavefunctions

Starting at 20:41:22 on 26 Apr 2020

Using SCF density matrix from file ./SSI/SSI-064PHE-123THR-1-dimer.test.4966.fchk

                         Distributed Multipole Analysis

Standard DMA

Positions and radii in angstrom
Multipole moments in atomic units, ea_0^k for rank k

C          x =  1.504820  y = -2.226725  z = -1.292823 angstrom
           Maximum rank =  0   Radius =  0.650 angstrom
                   Q00  =  -0.212329

C          x =  0.166820  y = -0.279725  z = -0.335823 angstrom
           Maximum rank =  0   Radius =  0.650 angstrom
                   Q00  =  -0.056979

C          x =  1.366820  y = -0.997725  z = -0.415823 angstrom
           Maximum rank =  0   Radius =  0.650 angstrom
                   Q00  =  -0.091486

C          x =  0.063820  y =  0.849275  z =  0.480177 angstrom
           Maximum rank =  0   Radius =  0.650 angstrom
                   Q00  =  -0.080979

C          x =  1.156820  y =  1.263275  z =  1.239177 angstrom
           Maximum rank =  0   Radius =  0.650 angstrom
                   Q00  =  -0.077569

C          x =  2.449820  y = -0.575725  z =  0.358177 angstrom
           Maximum rank =  0   Radius =  0.650 angstrom
                   Q00  =  -0.014674

C          x =  2.350820  y =  0.550275  z =  1.178177 angstrom
           Maximum rank =  0   Radius =  0.650 angstrom
                   Q00  =  -0.077722

H          x = -0.712180  y = -0.594725  z = -0.875823 angstrom
           Maximum rank =  0   Radius =  0.325 angstrom
                   Q00  =   0.059666

H          x = -0.872180  y =  1.384275  z =  0.540177 angstrom
           Maximum rank =  0   Radius =  0.325 angstrom
                   Q00  =   0.063357

H          x =  1.432820  y = -3.113725  z = -0.663823 angstrom
           Maximum rank =  0   Radius =  0.325 angstrom
                   Q00  =   0.104584

H          x =  2.484820  y = -2.208725  z = -1.740823 angstrom
           Maximum rank =  0   Radius =  0.325 angstrom
                   Q00  =   0.101740

H          x =  1.077820  y =  2.137275  z =  1.873177 angstrom
           Maximum rank =  0   Radius =  0.325 angstrom
                   Q00  =   0.060874

H          x =  3.376820  y = -1.123725  z =  0.334177 angstrom
           Maximum rank =  0   Radius =  0.325 angstrom
                   Q00  =   0.055619

H          x =  3.198820  y =  0.864275  z =  1.772177 angstrom
           Maximum rank =  0   Radius =  0.325 angstrom
                   Q00  =   0.065238

H          x =  0.771054  y = -2.303174  z = -2.108754 angstrom
           Maximum rank =  0   Radius =  0.325 angstrom
                   Q00  =   0.102112

C          x = -3.553180  y =  0.327275  z = -0.942823 angstrom
           Maximum rank =  0   Radius =  0.650 angstrom
                   Q00  =  -0.242604

C          x = -4.408180  y =  1.133275  z =  0.033177 angstrom
           Maximum rank =  0   Radius =  0.650 angstrom
                   Q00  =  -0.233362

H          x = -4.062180  y =  0.245275  z = -1.891823 angstrom
           Maximum rank =  0   Radius =  0.325 angstrom
                   Q00  =   0.082095

H          x = -2.612180  y =  0.850275  z = -1.104823 angstrom
           Maximum rank =  0   Radius =  0.325 angstrom
                   Q00  =   0.075318

H          x = -3.351180  y = -0.662725  z = -0.543823 angstrom
           Maximum rank =  0   Radius =  0.325 angstrom
                   Q00  =   0.079788

H          x = -3.814180  y =  1.317275  z =  0.929177 angstrom
           Maximum rank =  0   Radius =  0.325 angstrom
                   Q00  =   0.076336

H          x = -5.323813  y =  0.594290  z =  0.317977 angstrom
           Maximum rank =  0   Radius =  0.325 angstrom
                   Q00  =   0.082341

H          x = -4.672488  y =  2.096225  z = -0.428203 angstrom
           Maximum rank =  0   Radius =  0.325 angstrom
                   Q00  =   0.078636

Total multipoles referred to origin at
           x =   0.000000,  y =    0.000000,  z =    0.000000 angstrom
                   Q00  =  -0.000000

Finished at 20:41:22 on 26 Apr 2020

  DMA results are available in the Python driver through the
	  variable('DMA DISTRIBUTED MULTIPOLES')
  and
	  variable('DMA TOTAL MULTIPOLES')
  commands.

    Psi4 stopped on: Sunday, 26 April 2020 08:41PM
    Psi4 wall time for execution: 0:01:34.44

*** Psi4 exiting successfully. Buy a developer a beer!
