                               Psi4 1.3.2 release

  ==> Input File <==

--------------------------------------------------------------------------
import numpy as np
set {scf_type pk
basis cc-pvdz
d_convergence 10
gdma_switch   0
gdma_limit    0
gdma_origin   [ 0.0,  0.0,  0.0 ]
}
molecule test {
    units Angstrom
    0 1
    --
    0 1
    C                0.028316254447266    -1.799185837455097    -2.870989959992264
    C               -0.217683745552734    -0.726185837455097     0.726010040007736
    C                0.494316254447266    -0.762185837455097    -0.483989959992265
    C               -0.292683745552734    -1.497185837455097    -1.426989959992265
    C               -1.401683745552734    -1.870185837455097    -0.771989959992265
    C                1.453316254447266     0.564814162544903     1.735010040007735
    C                0.236316254447266    -0.055185837455097     1.841010040007735
    C                2.183316254447266     0.552814162544903     0.552010040007735
    C                1.705316254447266    -0.073185837455097    -0.566989959992265
    N               -1.366683745552734    -1.413185837455097     0.510010040007735
    H                1.849316254447266     1.099814162544903     2.588010040007735
    H               -0.352683745552734     0.030814162544903     2.740010040007736
    H                3.132316254447266     1.066814162544903     0.509010040007735
    H                2.255316254447266    -0.048185837455097    -1.493989959992265
    H               -2.135683745552734    -1.514185837455097     1.163010040007735
    H               -2.222683745552734    -2.430185837455097    -1.211989959992265
    H                0.408316254447266    -0.893185837455097    -3.343989959992265
    H               -0.901683745552734    -2.035185837455097    -3.379989959992264
    H                0.743728254447266    -2.623776837455097    -3.006027559992265
    C               -0.473683745552734     3.336814162544903     0.103010040007735
    C               -1.787683745552734     3.001814162544903     0.797010040007735
    H                0.127316254447266     3.998814162544903     0.725010040007735
    H                0.093316254447266     2.422814162544903    -0.071989959992265
    H               -0.667683745552734     3.819814162544903    -0.855989959992265
    H               -1.561683745552734     2.539814162544903     1.759010040007735
    H               -2.377820745552734     3.914165162544903     0.968340040007735
    H               -2.350679745552734     2.274371462544903     0.193800040007735

}
e, wfn = energy('scf', return_wfn=True)
gdma(wfn)
dmavals = variable('DMA DISTRIBUTED MULTIPOLES')
charges = np.array(dmavals)
print(charges)
np.save('SSI-010TRP-081VAL-2-dimer.npy', np.array(charges))--------------------------------------------------------------------------

*** tstart() called on ds3
*** at Tue Apr 28 15:15:32 2020

   => Loading Basis Set <=

    Name: CC-PVDZ
    Role: ORBITAL
    Keyword: BASIS
    atoms 1-9, 20-21   entry C          line   138 file /theoryfs2/ds/metcalf/miniconda2/envs/tf2gpu/share/psi4/basis/cc-pvdz.gbs
    atoms 10           entry N          line   168 file /theoryfs2/ds/metcalf/miniconda2/envs/tf2gpu/share/psi4/basis/cc-pvdz.gbs
    atoms 11-19, 22-27 entry H          line    22 file /theoryfs2/ds/metcalf/miniconda2/envs/tf2gpu/share/psi4/basis/cc-pvdz.gbs

         ---------------------------------------------------------
                                   SCF
               by Justin Turney, Rob Parrish, Andy Simmonett
                          and Daniel G. A. Smith
                              RHF Reference
                        1 Threads,    500 MiB Core
         ---------------------------------------------------------

  ==> Geometry <==

    Molecular point group: c1
    Full point group: C1

    Geometry (in Angstrom), charge = 0, multiplicity = 1:

       Center              X                  Y                   Z               Mass
    ------------   -----------------  -----------------  -----------------  -----------------
         C            0.028316254447    -1.799185837455    -2.870989959992    12.000000000000
         C           -0.217683745553    -0.726185837455     0.726010040008    12.000000000000
         C            0.494316254447    -0.762185837455    -0.483989959992    12.000000000000
         C           -0.292683745553    -1.497185837455    -1.426989959992    12.000000000000
         C           -1.401683745553    -1.870185837455    -0.771989959992    12.000000000000
         C            1.453316254447     0.564814162545     1.735010040008    12.000000000000
         C            0.236316254447    -0.055185837455     1.841010040008    12.000000000000
         C            2.183316254447     0.552814162545     0.552010040008    12.000000000000
         C            1.705316254447    -0.073185837455    -0.566989959992    12.000000000000
         N           -1.366683745553    -1.413185837455     0.510010040008    14.003074004430
         H            1.849316254447     1.099814162545     2.588010040008     1.007825032230
         H           -0.352683745553     0.030814162545     2.740010040008     1.007825032230
         H            3.132316254447     1.066814162545     0.509010040008     1.007825032230
         H            2.255316254447    -0.048185837455    -1.493989959992     1.007825032230
         H           -2.135683745553    -1.514185837455     1.163010040008     1.007825032230
         H           -2.222683745553    -2.430185837455    -1.211989959992     1.007825032230
         H            0.408316254447    -0.893185837455    -3.343989959992     1.007825032230
         H           -0.901683745553    -2.035185837455    -3.379989959992     1.007825032230
         H            0.743728254447    -2.623776837455    -3.006027559992     1.007825032230
         C           -0.473683745553     3.336814162545     0.103010040008    12.000000000000
         C           -1.787683745553     3.001814162545     0.797010040008    12.000000000000
         H            0.127316254447     3.998814162545     0.725010040008     1.007825032230
         H            0.093316254447     2.422814162545    -0.071989959992     1.007825032230
         H           -0.667683745553     3.819814162545    -0.855989959992     1.007825032230
         H           -1.561683745553     2.539814162545     1.759010040008     1.007825032230
         H           -2.377820745553     3.914165162545     0.968340040008     1.007825032230
         H           -2.350679745553     2.274371462545     0.193800040008     1.007825032230

  Running in c1 symmetry.

  Rotational constants: A =      0.03752  B =      0.02187  C =      0.01987 [cm^-1]
  Rotational constants: A =   1124.91124  B =    655.51696  C =    595.61019 [MHz]
  Nuclear repulsion =  675.421409845415383

  Charge       = 0
  Multiplicity = 1
  Electrons    = 88
  Nalpha       = 44
  Nbeta        = 44

  ==> Algorithm <==

  SCF Algorithm Type is PK.
  DIIS enabled.
  MOM disabled.
  Fractional occupation disabled.
  Guess Type is SAD.
  Energy threshold   = 1.00e-06
  Density threshold  = 1.00e-10
  Integral threshold = 0.00e+00

  ==> Primary Basis <==

  Basis Set: CC-PVDZ
    Blend: CC-PVDZ
    Number of shells: 117
    Number of basis function: 243
    Number of Cartesian functions: 255
    Spherical Harmonics?: true
    Max angular momentum: 2

  ==> Pre-Iterations <==

   -------------------------------------------------------
    Irrep   Nso     Nmo     Nalpha   Nbeta   Ndocc  Nsocc
   -------------------------------------------------------
     A        243     243       0       0       0       0
   -------------------------------------------------------
    Total     243     243      44      44      44       0
   -------------------------------------------------------

  ==> Integral Setup <==

  Using integral reordering PK algorithm.
  Sizing the integral batches needed.
  Building batch lookup table.
   Calculation information:
      Number of atoms:                  27
      Number of AO shells:             117
      Number of primitives:            339
      Number of atomic orbitals:       255
      Number of basis functions:       243

      Integral cutoff                 1.00e-12
      Number of threads:                 1

	Batch   1 pq = [       0,    9405] index = [             0,44231715] size =     44231715
	Batch   2 pq = [    9405,   13301] index = [      44231715,88464951] size =     44233236
	Batch   3 pq = [   13301,   16290] index = [      88464951,132690195] size =     44225244
	Batch   4 pq = [   16290,   18810] index = [     132690195,176917455] size =     44227260
	Batch   5 pq = [   18810,   21030] index = [     176917455,221140965] size =     44223510
	Batch   6 pq = [   21030,   23037] index = [     221140965,265363203] size =     44222238
	Batch   7 pq = [   23037,   24883] index = [     265363203,309594286] size =     44231083
	Batch   8 pq = [   24883,   26601] index = [     309594286,353819901] size =     44225615
	Batch   9 pq = [   26601,   28214] index = [     353819901,398029005] size =     44209104
	Batch  10 pq = [   28214,   29646] index = [     398029005,439457481] size =     41428476
  Task number: 40
  Buffer size: 11059200
  Buffer per thread: 2
  We computed 25503474 shell quartets total.
  Whereas there are 23829156 unique shell quartets.
     7.03 percent of shell quartets recomputed by reordering.

  ==> DiskJK: Disk-Based J/K Matrices <==

    J tasked:                  Yes
    K tasked:                  Yes
    wK tasked:                  No
    Memory [MiB]:              375
    Schwarz Cutoff:          1E-12

    OpenMP threads:              1

  Minimum eigenvalue in the overlap matrix is 2.2472289469E-04.
  Using Symmetric Orthogonalization.

  SCF Guess: Superposition of Atomic Densities via on-the-fly atomic UHF.

  ==> Iterations <==

                        Total Energy        Delta E     RMS |[F,P]|

   @RHF iter SAD:  -479.29792267186781   -4.79298e+02   0.00000e+00
   @RHF iter   1:  -479.48278812838066   -1.84865e-01   2.64834e-03 DIIS
   @RHF iter   2:  -479.71952804025238   -2.36740e-01   1.18430e-03 DIIS
   @RHF iter   3:  -479.76306481256097   -4.35368e-02   2.97907e-04 DIIS
   @RHF iter   4:  -479.76677461853865   -3.70981e-03   1.34321e-04 DIIS
   @RHF iter   5:  -479.76737167120592   -5.97053e-04   2.01504e-05 DIIS
   @RHF iter   6:  -479.76739926290594   -2.75917e-05   9.10115e-06 DIIS
   @RHF iter   7:  -479.76740469955689   -5.43665e-06   3.57702e-06 DIIS
   @RHF iter   8:  -479.76740609913821   -1.39958e-06   1.41815e-06 DIIS
   @RHF iter   9:  -479.76740637727329   -2.78135e-07   6.11156e-07 DIIS
   @RHF iter  10:  -479.76740642996117   -5.26879e-08   2.75523e-07 DIIS
   @RHF iter  11:  -479.76740644306966   -1.31085e-08   1.08471e-07 DIIS
   @RHF iter  12:  -479.76740644503758   -1.96792e-09   3.43330e-08 DIIS
   @RHF iter  13:  -479.76740644516940   -1.31820e-10   9.06087e-09 DIIS
   @RHF iter  14:  -479.76740644518100   -1.15961e-11   3.65667e-09 DIIS
   @RHF iter  15:  -479.76740644518452   -3.52429e-12   1.44725e-09 DIIS
   @RHF iter  16:  -479.76740644518520   -6.82121e-13   7.19571e-10 DIIS
   @RHF iter  17:  -479.76740644518583   -6.25278e-13   3.15533e-10 DIIS
   @RHF iter  18:  -479.76740644518350    2.33058e-12   1.34197e-10 DIIS
   @RHF iter  19:  -479.76740644518100    2.50111e-12   4.13392e-11 DIIS
  Energy and wave function converged.

  ==> Post-Iterations <==

    Orbital Energies [Eh]
    ---------------------

    Doubly Occupied:

       1A    -15.599716     2A    -11.260049     3A    -11.259380
       4A    -11.227702     5A    -11.227271     6A    -11.227064
       7A    -11.225477     8A    -11.216892     9A    -11.216157
      10A    -11.213840    11A    -11.209168    12A    -11.201141
      13A     -1.305906    14A     -1.137532    15A     -1.076645
      16A     -1.007223    17A     -1.003484    18A     -0.991755
      19A     -0.933296    20A     -0.843599    21A     -0.823799
      22A     -0.806006    23A     -0.757185    24A     -0.723165
      25A     -0.664743    26A     -0.644071    27A     -0.606205
      28A     -0.599609    29A     -0.594221    30A     -0.586475
      31A     -0.585294    32A     -0.567137    33A     -0.555904
      34A     -0.535412    35A     -0.527167    36A     -0.494750
      37A     -0.489741    38A     -0.479862    39A     -0.474400
      40A     -0.472612    41A     -0.458857    42A     -0.376484
      43A     -0.298067    44A     -0.278905

    Virtual:

      45A      0.128325    46A      0.170358    47A      0.175853
      48A      0.187299    49A      0.194396    50A      0.212068
      51A      0.222173    52A      0.227189    53A      0.233799
      54A      0.254275    55A      0.267541    56A      0.269632
      57A      0.270652    58A      0.277886    59A      0.289210
      60A      0.294987    61A      0.310277    62A      0.320723
      63A      0.375722    64A      0.388186    65A      0.407126
      66A      0.411063    67A      0.422511    68A      0.452584
      69A      0.476146    70A      0.484496    71A      0.497894
      72A      0.514320    73A      0.584311    74A      0.591253
      75A      0.602897    76A      0.612008    77A      0.624861
      78A      0.639516    79A      0.644200    80A      0.655954
      81A      0.668523    82A      0.676451    83A      0.697033
      84A      0.717876    85A      0.730550    86A      0.739712
      87A      0.741873    88A      0.752559    89A      0.759880
      90A      0.770269    91A      0.787181    92A      0.792698
      93A      0.796609    94A      0.813407    95A      0.846626
      96A      0.851503    97A      0.857972    98A      0.867207
      99A      0.869017   100A      0.880487   101A      0.887692
     102A      0.890044   103A      0.900292   104A      0.913141
     105A      0.917714   106A      0.921172   107A      0.931083
     108A      0.946918   109A      0.949915   110A      0.951817
     111A      0.959194   112A      0.973923   113A      0.984172
     114A      1.007055   115A      1.019051   116A      1.043848
     117A      1.069699   118A      1.076611   119A      1.111921
     120A      1.135181   121A      1.140333   122A      1.144258
     123A      1.150182   124A      1.157955   125A      1.169154
     126A      1.182536   127A      1.214526   128A      1.223834
     129A      1.233453   130A      1.249574   131A      1.255708
     132A      1.276376   133A      1.293257   134A      1.313771
     135A      1.336013   136A      1.339196   137A      1.346703
     138A      1.365551   139A      1.383345   140A      1.416754
     141A      1.447723   142A      1.487178   143A      1.499770
     144A      1.518432   145A      1.550304   146A      1.579479
     147A      1.594194   148A      1.601759   149A      1.627205
     150A      1.644349   151A      1.648255   152A      1.685767
     153A      1.689667   154A      1.703830   155A      1.712983
     156A      1.750807   157A      1.778202   158A      1.787084
     159A      1.795368   160A      1.814409   161A      1.834437
     162A      1.842702   163A      1.875504   164A      1.878267
     165A      1.890535   166A      1.901654   167A      1.911134
     168A      1.917536   169A      1.918904   170A      1.935415
     171A      1.944870   172A      1.952503   173A      1.957088
     174A      1.964222   175A      1.965382   176A      1.970523
     177A      1.975381   178A      1.984367   179A      1.997904
     180A      2.002565   181A      2.027936   182A      2.034324
     183A      2.066714   184A      2.083096   185A      2.089587
     186A      2.106766   187A      2.117002   188A      2.120032
     189A      2.123397   190A      2.128806   191A      2.137285
     192A      2.156753   193A      2.172369   194A      2.189470
     195A      2.205620   196A      2.240682   197A      2.257756
     198A      2.293833   199A      2.304548   200A      2.316818
     201A      2.325513   202A      2.330341   203A      2.343117
     204A      2.374581   205A      2.399510   206A      2.426514
     207A      2.460867   208A      2.470686   209A      2.482882
     210A      2.484526   211A      2.547097   212A      2.580017
     213A      2.588310   214A      2.607897   215A      2.613654
     216A      2.644879   217A      2.675967   218A      2.694074
     219A      2.720394   220A      2.774816   221A      2.777814
     222A      2.784370   223A      2.801226   224A      2.810943
     225A      2.828758   226A      2.839759   227A      2.863957
     228A      2.877520   229A      2.884183   230A      2.888860
     231A      2.931665   232A      2.977085   233A      2.983128
     234A      2.992002   235A      3.044257   236A      3.085516
     237A      3.101725   238A      3.151610   239A      3.224163
     240A      3.333481   241A      3.411990   242A      3.765330
     243A      3.999454

    Final Occupation by Irrep:
              A
    DOCC [    44 ]

  @RHF Final Energy:  -479.76740644518100

   => Energetics <=

    Nuclear Repulsion Energy =            675.4214098454153827
    One-Electron Energy =               -1988.8108892649340760
    Two-Electron Energy =                 833.6220729743376978
    Total Energy =                       -479.7674064451809954

Computation Completed

Properties will be evaluated at   0.000000,   0.000000,   0.000000 [a0]

Properties computed using the SCF density matrix

  Nuclear Dipole Moment: [e a0]
     X:    -3.7093      Y:    10.8999      Z:    -2.5493

  Electronic Dipole Moment: [e a0]
     X:     3.0192      Y:   -11.2540      Z:     2.6749

  Dipole Moment: [e a0]
     X:    -0.6901      Y:    -0.3541      Z:     0.1256     Total:     0.7858

  Dipole Moment: [D]
     X:    -1.7541      Y:    -0.9001      Z:     0.3191     Total:     1.9972

*** tstop() called on ds3 at Tue Apr 28 15:20:06 2020
Module time:
	user time   =     197.62 seconds =       3.29 minutes
	system time =      67.86 seconds =       1.13 minutes
	total time  =        274 seconds =       4.57 minutes
Total time:
	user time   =     197.62 seconds =       3.29 minutes
	system time =      67.86 seconds =       1.13 minutes
	total time  =        274 seconds =       4.57 minutes
                                     G D M A

                                 by Anthony Stone

                           version 2.2.06, 22 June 2011

               Distributed Multipoles from Gaussian wavefunctions

Starting at 15:20:6 on 28 Apr 2020

Using SCF density matrix from file ./SSI/SSI-010TRP-081VAL-2-dimer.test.8777.fchk

                         Distributed Multipole Analysis

Standard DMA

Positions and radii in angstrom
Multipole moments in atomic units, ea_0^k for rank k

C          x =  0.028316  y = -1.799186  z = -2.870990 angstrom
           Maximum rank =  0   Radius =  0.650 angstrom
                   Q00  =  -0.211729

C          x = -0.217684  y = -0.726186  z =  0.726010 angstrom
           Maximum rank =  0   Radius =  0.650 angstrom
                   Q00  =   0.255989

C          x =  0.494316  y = -0.762186  z = -0.483990 angstrom
           Maximum rank =  0   Radius =  0.650 angstrom
                   Q00  =  -0.058624

C          x = -0.292684  y = -1.497186  z = -1.426990 angstrom
           Maximum rank =  0   Radius =  0.650 angstrom
                   Q00  =  -0.129593

C          x = -1.401684  y = -1.870186  z = -0.771990 angstrom
           Maximum rank =  0   Radius =  0.650 angstrom
                   Q00  =   0.076993

C          x =  1.453316  y =  0.564814  z =  1.735010 angstrom
           Maximum rank =  0   Radius =  0.650 angstrom
                   Q00  =  -0.002946

C          x =  0.236316  y = -0.055186  z =  1.841010 angstrom
           Maximum rank =  0   Radius =  0.650 angstrom
                   Q00  =  -0.119689

C          x =  2.183316  y =  0.552814  z =  0.552010 angstrom
           Maximum rank =  0   Radius =  0.650 angstrom
                   Q00  =  -0.097650

C          x =  1.705316  y = -0.073186  z = -0.566990 angstrom
           Maximum rank =  0   Radius =  0.650 angstrom
                   Q00  =  -0.090909

N          x = -1.366684  y = -1.413186  z =  0.510010 angstrom
           Maximum rank =  0   Radius =  0.650 angstrom
                   Q00  =  -0.492006

H          x =  1.849316  y =  1.099814  z =  2.588010 angstrom
           Maximum rank =  0   Radius =  0.325 angstrom
                   Q00  =   0.060547

H          x = -0.352684  y =  0.030814  z =  2.740010 angstrom
           Maximum rank =  0   Radius =  0.325 angstrom
                   Q00  =   0.074120

H          x =  3.132316  y =  1.066814  z =  0.509010 angstrom
           Maximum rank =  0   Radius =  0.325 angstrom
                   Q00  =   0.056625

H          x =  2.255316  y = -0.048186  z = -1.493990 angstrom
           Maximum rank =  0   Radius =  0.325 angstrom
                   Q00  =   0.067404

H          x = -2.135684  y = -1.514186  z =  1.163010 angstrom
           Maximum rank =  0   Radius =  0.325 angstrom
                   Q00  =   0.213487

H          x = -2.222684  y = -2.430186  z = -1.211990 angstrom
           Maximum rank =  0   Radius =  0.325 angstrom
                   Q00  =   0.098434

H          x =  0.408316  y = -0.893186  z = -3.343990 angstrom
           Maximum rank =  0   Radius =  0.325 angstrom
                   Q00  =   0.100723

H          x = -0.901684  y = -2.035186  z = -3.379990 angstrom
           Maximum rank =  0   Radius =  0.325 angstrom
                   Q00  =   0.102980

H          x =  0.743728  y = -2.623777  z = -3.006028 angstrom
           Maximum rank =  0   Radius =  0.325 angstrom
                   Q00  =   0.100983

C          x = -0.473684  y =  3.336814  z =  0.103010 angstrom
           Maximum rank =  0   Radius =  0.650 angstrom
                   Q00  =  -0.242134

C          x = -1.787684  y =  3.001814  z =  0.797010 angstrom
           Maximum rank =  0   Radius =  0.650 angstrom
                   Q00  =  -0.226843

H          x =  0.127316  y =  3.998814  z =  0.725010 angstrom
           Maximum rank =  0   Radius =  0.325 angstrom
                   Q00  =   0.071307

H          x =  0.093316  y =  2.422814  z = -0.071990 angstrom
           Maximum rank =  0   Radius =  0.325 angstrom
                   Q00  =   0.101300

H          x = -0.667684  y =  3.819814  z = -0.855990 angstrom
           Maximum rank =  0   Radius =  0.325 angstrom
                   Q00  =   0.070012

H          x = -1.561684  y =  2.539814  z =  1.759010 angstrom
           Maximum rank =  0   Radius =  0.325 angstrom
                   Q00  =   0.073488

H          x = -2.377821  y =  3.914165  z =  0.968340 angstrom
           Maximum rank =  0   Radius =  0.325 angstrom
                   Q00  =   0.071541

H          x = -2.350680  y =  2.274371  z =  0.193800 angstrom
           Maximum rank =  0   Radius =  0.325 angstrom
                   Q00  =   0.076191

Total multipoles referred to origin at
           x =   0.000000,  y =    0.000000,  z =    0.000000 angstrom
                   Q00  =  -0.000000

Finished at 15:20:6 on 28 Apr 2020

  DMA results are available in the Python driver through the
	  variable('DMA DISTRIBUTED MULTIPOLES')
  and
	  variable('DMA TOTAL MULTIPOLES')
  commands.

    Psi4 stopped on: Tuesday, 28 April 2020 03:20PM
    Psi4 wall time for execution: 0:04:34.14

*** Psi4 exiting successfully. Buy a developer a beer!
