                               Psi4 1.3.2 release

  ==> Input File <==

--------------------------------------------------------------------------
import numpy as np
set {scf_type pk
basis cc-pvdz
d_convergence 10
gdma_switch   0
gdma_limit    0
gdma_origin   [ 0.0,  0.0,  0.0 ]
}
molecule test {
    units Angstrom
    0 1
    --
    0 1
    C                0.474358641993868    -2.211571637806171    -1.078431354036938
    O               -0.080641358006132    -0.911571637806170    -1.020431354036938
    H               -1.041641358006132    -1.004571637806171    -0.926431354036938
    H                0.415358641993868    -2.573571637806171    -2.106431354036938
    H               -0.097641358006132    -2.888571637806171    -0.442431354036938
    H                1.525009641993868    -2.208694637806170    -0.752664354036938
    C                0.455358641993868     1.944428362193829     0.974568645963062
    O               -0.766641358006132     1.215428362193829     1.066568645963062
    H               -0.733641358006132     0.670428362193830     1.862568645963062
    H                1.281358641993868     1.235428362193829     0.910568645963062
    H                0.442556641993868     2.578150362193830     0.075550645963062
    H                0.585647641993868     2.549804962193829     1.883713645963062

}
e, wfn = energy('scf', return_wfn=True)
gdma(wfn)
dmavals = variable('DMA DISTRIBUTED MULTIPOLES')
charges = np.array(dmavals)
print(charges)
np.save('SSI-015SER-018THR-1-dimer.npy', np.array(charges))--------------------------------------------------------------------------

*** tstart() called on ds3
*** at Tue Apr 28 07:47:10 2020

   => Loading Basis Set <=

    Name: CC-PVDZ
    Role: ORBITAL
    Keyword: BASIS
    atoms 1, 7      entry C          line   138 file /theoryfs2/ds/metcalf/miniconda2/envs/tf2gpu/share/psi4/basis/cc-pvdz.gbs
    atoms 2, 8      entry O          line   198 file /theoryfs2/ds/metcalf/miniconda2/envs/tf2gpu/share/psi4/basis/cc-pvdz.gbs
    atoms 3-6, 9-12 entry H          line    22 file /theoryfs2/ds/metcalf/miniconda2/envs/tf2gpu/share/psi4/basis/cc-pvdz.gbs

         ---------------------------------------------------------
                                   SCF
               by Justin Turney, Rob Parrish, Andy Simmonett
                          and Daniel G. A. Smith
                              RHF Reference
                        1 Threads,    500 MiB Core
         ---------------------------------------------------------

  ==> Geometry <==

    Molecular point group: c1
    Full point group: C1

    Geometry (in Angstrom), charge = 0, multiplicity = 1:

       Center              X                  Y                   Z               Mass
    ------------   -----------------  -----------------  -----------------  -----------------
         C            0.474358641994    -2.211571637806    -1.078431354037    12.000000000000
         O           -0.080641358006    -0.911571637806    -1.020431354037    15.994914619570
         H           -1.041641358006    -1.004571637806    -0.926431354037     1.007825032230
         H            0.415358641994    -2.573571637806    -2.106431354037     1.007825032230
         H           -0.097641358006    -2.888571637806    -0.442431354037     1.007825032230
         H            1.525009641994    -2.208694637806    -0.752664354037     1.007825032230
         C            0.455358641994     1.944428362194     0.974568645963    12.000000000000
         O           -0.766641358006     1.215428362194     1.066568645963    15.994914619570
         H           -0.733641358006     0.670428362194     1.862568645963     1.007825032230
         H            1.281358641994     1.235428362194     0.910568645963     1.007825032230
         H            0.442556641994     2.578150362194     0.075550645963     1.007825032230
         H            0.585647641994     2.549804962194     1.883713645963     1.007825032230

  Running in c1 symmetry.

  Rotational constants: A =      0.57670  B =      0.06679  C =      0.06400 [cm^-1]
  Rotational constants: A =  17289.10311  B =   2002.25633  C =   1918.65020 [MHz]
  Nuclear repulsion =  125.015238066551731

  Charge       = 0
  Multiplicity = 1
  Electrons    = 36
  Nalpha       = 18
  Nbeta        = 18

  ==> Algorithm <==

  SCF Algorithm Type is PK.
  DIIS enabled.
  MOM disabled.
  Fractional occupation disabled.
  Guess Type is SAD.
  Energy threshold   = 1.00e-06
  Density threshold  = 1.00e-10
  Integral threshold = 0.00e+00

  ==> Primary Basis <==

  Basis Set: CC-PVDZ
    Blend: CC-PVDZ
    Number of shells: 48
    Number of basis function: 96
    Number of Cartesian functions: 100
    Spherical Harmonics?: true
    Max angular momentum: 2

  ==> Pre-Iterations <==

   -------------------------------------------------------
    Irrep   Nso     Nmo     Nalpha   Nbeta   Ndocc  Nsocc
   -------------------------------------------------------
     A         96      96       0       0       0       0
   -------------------------------------------------------
    Total      96      96      18      18      18       0
   -------------------------------------------------------

  ==> Integral Setup <==

  Using in-core PK algorithm.
   Calculation information:
      Number of atoms:                  12
      Number of AO shells:              48
      Number of primitives:            128
      Number of atomic orbitals:       100
      Number of basis functions:        96

      Integral cutoff                 1.00e-12
      Number of threads:                 1

  Performing in-core PK
  Using 21682992 doubles for integral storage.
  We computed 573418 shell quartets total.
  Whereas there are 692076 unique shell quartets.

  ==> DiskJK: Disk-Based J/K Matrices <==

    J tasked:                  Yes
    K tasked:                  Yes
    wK tasked:                  No
    Memory [MiB]:              375
    Schwarz Cutoff:          1E-12

    OpenMP threads:              1

  Minimum eigenvalue in the overlap matrix is 1.6284460692E-02.
  Using Symmetric Orthogonalization.

  SCF Guess: Superposition of Atomic Densities via on-the-fly atomic UHF.

  ==> Iterations <==

                        Total Energy        Delta E     RMS |[F,P]|

   @RHF iter SAD:  -228.78996767619071   -2.28790e+02   0.00000e+00
   @RHF iter   1:  -229.96301399733909   -1.17305e+00   5.30256e-03 DIIS
   @RHF iter   2:  -230.06720024732581   -1.04186e-01   2.81000e-03 DIIS
   @RHF iter   3:  -230.09358986632770   -2.63896e-02   4.67592e-04 DIIS
   @RHF iter   4:  -230.09506844739380   -1.47858e-03   1.17891e-04 DIIS
   @RHF iter   5:  -230.09515732066600   -8.88733e-05   2.90231e-05 DIIS
   @RHF iter   6:  -230.09516305072975   -5.73006e-06   6.49574e-06 DIIS
   @RHF iter   7:  -230.09516352100098   -4.70271e-07   1.42157e-06 DIIS
   @RHF iter   8:  -230.09516354768124   -2.66803e-08   2.90652e-07 DIIS
   @RHF iter   9:  -230.09516354869342   -1.01218e-09   9.81981e-08 DIIS
   @RHF iter  10:  -230.09516354876206   -6.86384e-11   3.40256e-08 DIIS
   @RHF iter  11:  -230.09516354877167   -9.60654e-12   7.83276e-09 DIIS
   @RHF iter  12:  -230.09516354877195   -2.84217e-13   1.63425e-09 DIIS
   @RHF iter  13:  -230.09516354877252   -5.68434e-13   4.35196e-10 DIIS
   @RHF iter  14:  -230.09516354877243    8.52651e-14   1.82732e-10 DIIS
   @RHF iter  15:  -230.09516354877246   -2.84217e-14   6.22400e-11 DIIS
  Energy and wave function converged.

  ==> Post-Iterations <==

    Orbital Energies [Eh]
    ---------------------

    Doubly Occupied:

       1A    -20.540154     2A    -20.537440     3A    -11.270594
       4A    -11.265825     5A     -1.341015     6A     -1.334589
       7A     -0.913780     8A     -0.907397     9A     -0.673981
      10A     -0.667811    11A     -0.611586    12A     -0.601559
      13A     -0.582364    14A     -0.576213    15A     -0.487372
      16A     -0.484510    17A     -0.435444    18A     -0.424801

    Virtual:

      19A      0.175520    20A      0.205143    21A      0.221797
      22A      0.239434    23A      0.263314    24A      0.270579
      25A      0.279082    26A      0.296542    27A      0.367968
      28A      0.375145    29A      0.634680    30A      0.638012
      31A      0.645989    32A      0.652580    33A      0.734514
      34A      0.738966    35A      0.792328    36A      0.836073
      37A      0.865328    38A      0.873696    39A      0.892100
      40A      0.901405    41A      0.915231    42A      0.920488
      43A      1.125112    44A      1.130622    45A      1.144122
      46A      1.166084    47A      1.173054    48A      1.180470
      49A      1.289189    50A      1.297016    51A      1.317861
      52A      1.416143    53A      1.445701    54A      1.473578
      55A      1.606317    56A      1.649780    57A      1.672413
      58A      1.675140    59A      1.678160    60A      1.690655
      61A      1.865727    62A      1.875500    63A      1.906428
      64A      1.909743    65A      1.918631    66A      1.937635
      67A      1.943502    68A      1.983076    69A      2.036653
      70A      2.059934    71A      2.142086    72A      2.176176
      73A      2.302192    74A      2.318851    75A      2.367291
      76A      2.371281    77A      2.381056    78A      2.389901
      79A      2.506892    80A      2.525508    81A      2.741938
      82A      2.759149    83A      2.759715    84A      2.765484
      85A      2.779359    86A      2.791952    87A      3.309135
      88A      3.320585    89A      3.390444    90A      3.395251
      91A      3.446332    92A      3.465314    93A      3.600659
      94A      3.605735    95A      4.088997    96A      4.098293

    Final Occupation by Irrep:
              A
    DOCC [    18 ]

  @RHF Final Energy:  -230.09516354877246

   => Energetics <=

    Nuclear Repulsion Energy =            125.0152380665517313
    One-Electron Energy =                -562.9079383507374814
    Two-Electron Energy =                 207.7975367354133027
    Total Energy =                       -230.0951635487724616

Computation Completed

Properties will be evaluated at   0.000000,   0.000000,   0.000000 [a0]

Properties computed using the SCF density matrix

  Nuclear Dipole Moment: [e a0]
     X:     2.2243      Y:    -1.5375      Z:     0.4731

  Electronic Dipole Moment: [e a0]
     X:    -2.0589      Y:     0.9039      Z:     0.0005

  Dipole Moment: [e a0]
     X:     0.1654      Y:    -0.6336      Z:     0.4736     Total:     0.8081

  Dipole Moment: [D]
     X:     0.4203      Y:    -1.6104      Z:     1.2038     Total:     2.0540

*** tstop() called on ds3 at Tue Apr 28 07:47:14 2020
Module time:
	user time   =       4.06 seconds =       0.07 minutes
	system time =       0.09 seconds =       0.00 minutes
	total time  =          4 seconds =       0.07 minutes
Total time:
	user time   =       4.06 seconds =       0.07 minutes
	system time =       0.09 seconds =       0.00 minutes
	total time  =          4 seconds =       0.07 minutes
                                     G D M A

                                 by Anthony Stone

                           version 2.2.06, 22 June 2011

               Distributed Multipoles from Gaussian wavefunctions

Starting at 7:47:14 on 28 Apr 2020

Using SCF density matrix from file ./SSI/SSI-015SER-018THR-1-dimer.test.6806.fchk

                         Distributed Multipole Analysis

Standard DMA

Positions and radii in angstrom
Multipole moments in atomic units, ea_0^k for rank k

C          x =  0.474359  y = -2.211572  z = -1.078431 angstrom
           Maximum rank =  0   Radius =  0.650 angstrom
                   Q00  =  -0.037242

O          x = -0.080641  y = -0.911572  z = -1.020431 angstrom
           Maximum rank =  0   Radius =  0.650 angstrom
                   Q00  =  -0.585814

H          x = -1.041641  y = -1.004572  z = -0.926431 angstrom
           Maximum rank =  0   Radius =  0.325 angstrom
                   Q00  =   0.391546

H          x =  0.415359  y = -2.573572  z = -2.106431 angstrom
           Maximum rank =  0   Radius =  0.325 angstrom
                   Q00  =   0.067249

H          x = -0.097641  y = -2.888572  z = -0.442431 angstrom
           Maximum rank =  0   Radius =  0.325 angstrom
                   Q00  =   0.060994

H          x =  1.525010  y = -2.208695  z = -0.752664 angstrom
           Maximum rank =  0   Radius =  0.325 angstrom
                   Q00  =   0.103735

C          x =  0.455359  y =  1.944428  z =  0.974569 angstrom
           Maximum rank =  0   Radius =  0.650 angstrom
                   Q00  =  -0.040308

O          x = -0.766641  y =  1.215428  z =  1.066569 angstrom
           Maximum rank =  0   Radius =  0.650 angstrom
                   Q00  =  -0.586790

H          x = -0.733641  y =  0.670428  z =  1.862569 angstrom
           Maximum rank =  0   Radius =  0.325 angstrom
                   Q00  =   0.376582

H          x =  1.281359  y =  1.235428  z =  0.910569 angstrom
           Maximum rank =  0   Radius =  0.325 angstrom
                   Q00  =   0.072131

H          x =  0.442557  y =  2.578150  z =  0.075551 angstrom
           Maximum rank =  0   Radius =  0.325 angstrom
                   Q00  =   0.119834

H          x =  0.585648  y =  2.549805  z =  1.883714 angstrom
           Maximum rank =  0   Radius =  0.325 angstrom
                   Q00  =   0.058083

Total multipoles referred to origin at
           x =   0.000000,  y =    0.000000,  z =    0.000000 angstrom
                   Q00  =  -0.000000

Finished at 7:47:14 on 28 Apr 2020

  DMA results are available in the Python driver through the
	  variable('DMA DISTRIBUTED MULTIPOLES')
  and
	  variable('DMA TOTAL MULTIPOLES')
  commands.

    Psi4 stopped on: Tuesday, 28 April 2020 07:47AM
    Psi4 wall time for execution: 0:00:04.46

*** Psi4 exiting successfully. Buy a developer a beer!
