                               Psi4 1.3.2 release

  ==> Input File <==

--------------------------------------------------------------------------
import numpy as np
set {scf_type pk
basis cc-pvdz
d_convergence 10
gdma_switch   0
gdma_limit    0
gdma_origin   [ 0.0,  0.0,  0.0 ]
}
molecule test {
    units Angstrom
    0 1
    --
    0 1
    C                1.771048728516003    -0.059026941877302    -1.608842361059645
    C                0.579048728516004    -1.346026941877302     0.193157638940355
    C                1.212048728516004    -0.162026941877302    -0.213842361059645
    C                0.017048728516004    -1.452026941877302     1.456157638940355
    C                0.108048728516004    -0.407026941877302     2.340157638940354
    C                1.289048728516003     0.889973058122699     0.677157638940355
    C                0.738048728516004     0.762973058122698     1.945157638940355
    H                0.513048728516004    -2.183026941877302    -0.488842361059645
    H               -0.462951271483996    -2.371026941877302     1.741157638940355
    H                1.759048728516003     0.981973058122699    -1.926842361059645
    H                1.112048728516003    -0.609026941877301    -2.282842361059645
    H               -0.310951271483996    -0.492026941877302     3.334157638940355
    H                1.781048728516003     1.808973058122698     0.393157638940355
    H                0.811048728516004     1.578973058122698     2.646157638940354
    H                2.789488728516003    -0.461632941877302    -1.712202361059645
    C               -2.183951271483997     0.817973058122698    -1.302842361059645
    C               -2.916951271483996     0.721973058122698    -2.639842361059645
    H               -2.878951271483996     0.725973058122698    -0.470842361059645
    H               -1.463951271483996     0.003973058122698    -1.228842361059645
    H               -1.653951271483996     1.768973058122698    -1.226842361059645
    H               -3.424951271483996    -0.241026941877302    -2.669842361059645
    H               -3.668391271483996     1.522495258122698    -2.706972361059645
    H               -2.205741271483996     0.743612258122698    -3.478722361059645

}
e, wfn = energy('scf', return_wfn=True)
gdma(wfn)
dmavals = variable('DMA DISTRIBUTED MULTIPOLES')
charges = np.array(dmavals)
print(charges)
np.save('SSI-132PHE-176VAL-1-dimer.npy', np.array(charges))--------------------------------------------------------------------------

*** tstart() called on ds3
*** at Sun Apr 26 20:51:08 2020

   => Loading Basis Set <=

    Name: CC-PVDZ
    Role: ORBITAL
    Keyword: BASIS
    atoms 1-7, 16-17  entry C          line   138 file /theoryfs2/ds/metcalf/miniconda2/envs/tf2gpu/share/psi4/basis/cc-pvdz.gbs
    atoms 8-15, 18-23 entry H          line    22 file /theoryfs2/ds/metcalf/miniconda2/envs/tf2gpu/share/psi4/basis/cc-pvdz.gbs

         ---------------------------------------------------------
                                   SCF
               by Justin Turney, Rob Parrish, Andy Simmonett
                          and Daniel G. A. Smith
                              RHF Reference
                        1 Threads,    500 MiB Core
         ---------------------------------------------------------

  ==> Geometry <==

    Molecular point group: c1
    Full point group: C1

    Geometry (in Angstrom), charge = 0, multiplicity = 1:

       Center              X                  Y                   Z               Mass
    ------------   -----------------  -----------------  -----------------  -----------------
         C            1.771048728516    -0.059026941877    -1.608842361060    12.000000000000
         C            0.579048728516    -1.346026941877     0.193157638940    12.000000000000
         C            1.212048728516    -0.162026941877    -0.213842361060    12.000000000000
         C            0.017048728516    -1.452026941877     1.456157638940    12.000000000000
         C            0.108048728516    -0.407026941877     2.340157638940    12.000000000000
         C            1.289048728516     0.889973058123     0.677157638940    12.000000000000
         C            0.738048728516     0.762973058123     1.945157638940    12.000000000000
         H            0.513048728516    -2.183026941877    -0.488842361060     1.007825032230
         H           -0.462951271484    -2.371026941877     1.741157638940     1.007825032230
         H            1.759048728516     0.981973058123    -1.926842361060     1.007825032230
         H            1.112048728516    -0.609026941877    -2.282842361060     1.007825032230
         H           -0.310951271484    -0.492026941877     3.334157638940     1.007825032230
         H            1.781048728516     1.808973058123     0.393157638940     1.007825032230
         H            0.811048728516     1.578973058123     2.646157638940     1.007825032230
         H            2.789488728516    -0.461632941877    -1.712202361060     1.007825032230
         C           -2.183951271484     0.817973058123    -1.302842361060    12.000000000000
         C           -2.916951271484     0.721973058123    -2.639842361060    12.000000000000
         H           -2.878951271484     0.725973058123    -0.470842361060     1.007825032230
         H           -1.463951271484     0.003973058123    -1.228842361060     1.007825032230
         H           -1.653951271484     1.768973058123    -1.226842361060     1.007825032230
         H           -3.424951271484    -0.241026941877    -2.669842361060     1.007825032230
         H           -3.668391271484     1.522495258123    -2.706972361060     1.007825032230
         H           -2.205741271484     0.743612258123    -3.478722361060     1.007825032230

  Running in c1 symmetry.

  Rotational constants: A =      0.06264  B =      0.02940  C =      0.02547 [cm^-1]
  Rotational constants: A =   1877.92203  B =    881.43048  C =    763.63687 [MHz]
  Nuclear repulsion =  415.538261575902538

  Charge       = 0
  Multiplicity = 1
  Electrons    = 68
  Nalpha       = 34
  Nbeta        = 34

  ==> Algorithm <==

  SCF Algorithm Type is PK.
  DIIS enabled.
  MOM disabled.
  Fractional occupation disabled.
  Guess Type is SAD.
  Energy threshold   = 1.00e-06
  Density threshold  = 1.00e-10
  Integral threshold = 0.00e+00

  ==> Primary Basis <==

  Basis Set: CC-PVDZ
    Blend: CC-PVDZ
    Number of shells: 96
    Number of basis function: 196
    Number of Cartesian functions: 205
    Spherical Harmonics?: true
    Max angular momentum: 2

  ==> Pre-Iterations <==

   -------------------------------------------------------
    Irrep   Nso     Nmo     Nalpha   Nbeta   Ndocc  Nsocc
   -------------------------------------------------------
     A        196     196       0       0       0       0
   -------------------------------------------------------
    Total     196     196      34      34      34       0
   -------------------------------------------------------

  ==> Integral Setup <==

  Using integral reordering PK algorithm.
  Sizing the integral batches needed.
  Building batch lookup table.
   Calculation information:
      Number of atoms:                  23
      Number of AO shells:              96
      Number of primitives:            268
      Number of atomic orbitals:       205
      Number of basis functions:       196

      Integral cutoff                 1.00e-12
      Number of threads:                 1

	Batch   1 pq = [       0,    9405] index = [             0,44231715] size =     44231715
	Batch   2 pq = [    9405,   13301] index = [      44231715,88464951] size =     44233236
	Batch   3 pq = [   13301,   16290] index = [      88464951,132690195] size =     44225244
	Batch   4 pq = [   16290,   18810] index = [     132690195,176917455] size =     44227260
	Batch   5 pq = [   18810,   19306] index = [     176917455,186370471] size =      9453016
  Task number: 17
  Buffer size: 11059200
  Buffer per thread: 2
  We computed 10320346 shell quartets total.
  Whereas there are 10841496 unique shell quartets.

  ==> DiskJK: Disk-Based J/K Matrices <==

    J tasked:                  Yes
    K tasked:                  Yes
    wK tasked:                  No
    Memory [MiB]:              375
    Schwarz Cutoff:          1E-12

    OpenMP threads:              1

  Minimum eigenvalue in the overlap matrix is 2.9941611686E-04.
  Using Symmetric Orthogonalization.

  SCF Guess: Superposition of Atomic Densities via on-the-fly atomic UHF.

  ==> Iterations <==

                        Total Energy        Delta E     RMS |[F,P]|

   @RHF iter SAD:  -347.94601741078617   -3.47946e+02   0.00000e+00
   @RHF iter   1:  -348.76383882523476   -8.17821e-01   2.91738e-03 DIIS
   @RHF iter   2:  -348.95852067852275   -1.94682e-01   1.21035e-03 DIIS
   @RHF iter   3:  -348.98907085398480   -3.05502e-02   2.57247e-04 DIIS
   @RHF iter   4:  -348.99153224220947   -2.46139e-03   4.98861e-05 DIIS
   @RHF iter   5:  -348.99160007295279   -6.78307e-05   1.62235e-05 DIIS
   @RHF iter   6:  -348.99160668814966   -6.61520e-06   4.42631e-06 DIIS
   @RHF iter   7:  -348.99160725008079   -5.61931e-07   1.33516e-06 DIIS
   @RHF iter   8:  -348.99160730775299   -5.76722e-08   3.24466e-07 DIIS
   @RHF iter   9:  -348.99160731596828   -8.21530e-09   1.42313e-07 DIIS
   @RHF iter  10:  -348.99160731798639   -2.01811e-09   6.62431e-08 DIIS
   @RHF iter  11:  -348.99160731861269   -6.26301e-10   2.22940e-08 DIIS
   @RHF iter  12:  -348.99160731868017   -6.74731e-11   8.19601e-09 DIIS
   @RHF iter  13:  -348.99160731868437   -4.20641e-12   3.30162e-09 DIIS
   @RHF iter  14:  -348.99160731868704   -2.67164e-12   6.15321e-10 DIIS
   @RHF iter  15:  -348.99160731868596    1.08002e-12   2.51542e-10 DIIS
   @RHF iter  16:  -348.99160731868767   -1.70530e-12   7.73984e-11 DIIS
  Energy and wave function converged.

  ==> Post-Iterations <==

    Orbital Energies [Eh]
    ---------------------

    Doubly Occupied:

       1A    -11.239686     2A    -11.233326     3A    -11.231645
       4A    -11.229448     5A    -11.229013     6A    -11.228527
       7A    -11.227954     8A    -11.213802     9A    -11.206358
      10A     -1.156309    11A     -1.046742    12A     -1.012989
      13A     -1.011328    14A     -0.932619    15A     -0.828946
      16A     -0.826001    17A     -0.796133    18A     -0.693002
      19A     -0.633318    20A     -0.628848    21A     -0.594686
      22A     -0.589957    23A     -0.582786    24A     -0.575948
      25A     -0.563313    26A     -0.535928    27A     -0.496655
      28A     -0.488723    29A     -0.484591    30A     -0.481298
      31A     -0.477073    32A     -0.475962    33A     -0.333722
      34A     -0.322071

    Virtual:

      35A      0.135527    36A      0.143072    37A      0.171244
      38A      0.193373    39A      0.210580    40A      0.216706
      41A      0.241765    42A      0.244184    43A      0.253612
      44A      0.262044    45A      0.266843    46A      0.270379
      47A      0.281659    48A      0.290106    49A      0.301155
      50A      0.329953    51A      0.370743    52A      0.376311
      53A      0.399696    54A      0.454298    55A      0.466496
      56A      0.480982    57A      0.495232    58A      0.560145
      59A      0.578654    60A      0.590203    61A      0.599084
      62A      0.607478    63A      0.641721    64A      0.669529
      65A      0.684880    66A      0.692496    67A      0.698980
      68A      0.716818    69A      0.733834    70A      0.740131
      71A      0.748023    72A      0.754330    73A      0.763047
      74A      0.771274    75A      0.782424    76A      0.815319
      77A      0.846620    78A      0.852934    79A      0.863426
      80A      0.866114    81A      0.881270    82A      0.890846
      83A      0.893560    84A      0.898185    85A      0.901269
      86A      0.906564    87A      0.916367    88A      0.921401
      89A      0.934414    90A      0.945226    91A      0.959527
      92A      0.971832    93A      0.987329    94A      1.010707
      95A      1.036169    96A      1.078535    97A      1.127853
      98A      1.130374    99A      1.134593   100A      1.150237
     101A      1.157220   102A      1.161087   103A      1.196751
     104A      1.232814   105A      1.246238   106A      1.254196
     107A      1.258790   108A      1.286780   109A      1.303240
     110A      1.314038   111A      1.327927   112A      1.340467
     113A      1.412273   114A      1.478512   115A      1.487977
     116A      1.514519   117A      1.520072   118A      1.558301
     119A      1.591182   120A      1.602715   121A      1.674246
     122A      1.682342   123A      1.700517   124A      1.701326
     125A      1.742058   126A      1.755651   127A      1.763883
     128A      1.802823   129A      1.811770   130A      1.860994
     131A      1.863103   132A      1.871061   133A      1.890355
     134A      1.897365   135A      1.915315   136A      1.921146
     137A      1.923234   138A      1.935621   139A      1.948117
     140A      1.949590   141A      1.958459   142A      1.960831
     143A      1.966461   144A      1.976426   145A      1.981576
     146A      1.993702   147A      1.999455   148A      2.002907
     149A      2.045312   150A      2.068406   151A      2.085316
     152A      2.100557   153A      2.120928   154A      2.129756
     155A      2.155677   156A      2.158440   157A      2.172133
     158A      2.181349   159A      2.188553   160A      2.260457
     161A      2.282498   162A      2.297808   163A      2.302272
     164A      2.306726   165A      2.312802   166A      2.326684
     167A      2.335128   168A      2.449546   169A      2.476389
     170A      2.479893   171A      2.485671   172A      2.501488
     173A      2.549499   174A      2.567888   175A      2.589340
     176A      2.626332   177A      2.748243   178A      2.761883
     179A      2.767709   180A      2.776302   181A      2.790993
     182A      2.809937   183A      2.822338   184A      2.854410
     185A      2.856791   186A      2.867627   187A      2.877679
     188A      2.964061   189A      2.978945   190A      3.001690
     191A      3.029336   192A      3.037580   193A      3.166244
     194A      3.213519   195A      3.314673   196A      3.993794

    Final Occupation by Irrep:
              A
    DOCC [    34 ]

  @RHF Final Energy:  -348.99160731868767

   => Energetics <=

    Nuclear Repulsion Energy =            415.5382615759025384
    One-Electron Energy =               -1293.8423209646025498
    Two-Electron Energy =                 529.3124520700123412
    Total Energy =                       -348.9916073186876702

Computation Completed

Properties will be evaluated at   0.000000,   0.000000,   0.000000 [a0]

Properties computed using the SCF density matrix

  Nuclear Dipole Moment: [e a0]
     X:    -6.8474      Y:     2.6035      Z:    -9.4480

  Electronic Dipole Moment: [e a0]
     X:     6.9435      Y:    -2.6262      Z:     9.4089

  Dipole Moment: [e a0]
     X:     0.0961      Y:    -0.0227      Z:    -0.0390     Total:     0.1062

  Dipole Moment: [D]
     X:     0.2442      Y:    -0.0578      Z:    -0.0992     Total:     0.2698

*** tstop() called on ds3 at Sun Apr 26 20:53:31 2020
Module time:
	user time   =      81.04 seconds =       1.35 minutes
	system time =      32.66 seconds =       0.54 minutes
	total time  =        143 seconds =       2.38 minutes
Total time:
	user time   =      81.04 seconds =       1.35 minutes
	system time =      32.66 seconds =       0.54 minutes
	total time  =        143 seconds =       2.38 minutes
                                     G D M A

                                 by Anthony Stone

                           version 2.2.06, 22 June 2011

               Distributed Multipoles from Gaussian wavefunctions

Starting at 20:53:31 on 26 Apr 2020

Using SCF density matrix from file ./SSI/SSI-132PHE-176VAL-1-dimer.test.10477.fchk

                         Distributed Multipole Analysis

Standard DMA

Positions and radii in angstrom
Multipole moments in atomic units, ea_0^k for rank k

C          x =  1.771049  y = -0.059027  z = -1.608842 angstrom
           Maximum rank =  0   Radius =  0.650 angstrom
                   Q00  =  -0.205485

C          x =  0.579049  y = -1.346027  z =  0.193158 angstrom
           Maximum rank =  0   Radius =  0.650 angstrom
                   Q00  =  -0.062089

C          x =  1.212049  y = -0.162027  z = -0.213842 angstrom
           Maximum rank =  0   Radius =  0.650 angstrom
                   Q00  =  -0.102687

C          x =  0.017049  y = -1.452027  z =  1.456158 angstrom
           Maximum rank =  0   Radius =  0.650 angstrom
                   Q00  =  -0.070455

C          x =  0.108049  y = -0.407027  z =  2.340158 angstrom
           Maximum rank =  0   Radius =  0.650 angstrom
                   Q00  =  -0.098544

C          x =  1.289049  y =  0.889973  z =  0.677158 angstrom
           Maximum rank =  0   Radius =  0.650 angstrom
                   Q00  =  -0.085900

C          x =  0.738049  y =  0.762973  z =  1.945158 angstrom
           Maximum rank =  0   Radius =  0.650 angstrom
                   Q00  =   0.033079

H          x =  0.513049  y = -2.183027  z = -0.488842 angstrom
           Maximum rank =  0   Radius =  0.325 angstrom
                   Q00  =   0.054113

H          x = -0.462951  y = -2.371027  z =  1.741158 angstrom
           Maximum rank =  0   Radius =  0.325 angstrom
                   Q00  =   0.061413

H          x =  1.759049  y =  0.981973  z = -1.926842 angstrom
           Maximum rank =  0   Radius =  0.325 angstrom
                   Q00  =   0.099076

H          x =  1.112049  y = -0.609027  z = -2.282842 angstrom
           Maximum rank =  0   Radius =  0.325 angstrom
                   Q00  =   0.096127

H          x = -0.310951  y = -0.492027  z =  3.334158 angstrom
           Maximum rank =  0   Radius =  0.325 angstrom
                   Q00  =   0.059569

H          x =  1.781049  y =  1.808973  z =  0.393158 angstrom
           Maximum rank =  0   Radius =  0.325 angstrom
                   Q00  =   0.056506

H          x =  0.811049  y =  1.578973  z =  2.646158 angstrom
           Maximum rank =  0   Radius =  0.325 angstrom
                   Q00  =   0.062006

H          x =  2.789489  y = -0.461633  z = -1.712202 angstrom
           Maximum rank =  0   Radius =  0.325 angstrom
                   Q00  =   0.106162

C          x = -2.183951  y =  0.817973  z = -1.302842 angstrom
           Maximum rank =  0   Radius =  0.650 angstrom
                   Q00  =  -0.217446

C          x = -2.916951  y =  0.721973  z = -2.639842 angstrom
           Maximum rank =  0   Radius =  0.650 angstrom
                   Q00  =  -0.249456

H          x = -2.878951  y =  0.725973  z = -0.470842 angstrom
           Maximum rank =  0   Radius =  0.325 angstrom
                   Q00  =   0.079062

H          x = -1.463951  y =  0.003973  z = -1.228842 angstrom
           Maximum rank =  0   Radius =  0.325 angstrom
                   Q00  =   0.083348

H          x = -1.653951  y =  1.768973  z = -1.226842 angstrom
           Maximum rank =  0   Radius =  0.325 angstrom
                   Q00  =   0.074375

H          x = -3.424951  y = -0.241027  z = -2.669842 angstrom
           Maximum rank =  0   Radius =  0.325 angstrom
                   Q00  =   0.074006

H          x = -3.668391  y =  1.522495  z = -2.706972 angstrom
           Maximum rank =  0   Radius =  0.325 angstrom
                   Q00  =   0.077167

H          x = -2.205741  y =  0.743612  z = -3.478722 angstrom
           Maximum rank =  0   Radius =  0.325 angstrom
                   Q00  =   0.076053

Total multipoles referred to origin at
           x =   0.000000,  y =    0.000000,  z =    0.000000 angstrom
                   Q00  =  -0.000000

Finished at 20:53:31 on 26 Apr 2020

  DMA results are available in the Python driver through the
	  variable('DMA DISTRIBUTED MULTIPOLES')
  and
	  variable('DMA TOTAL MULTIPOLES')
  commands.

    Psi4 stopped on: Sunday, 26 April 2020 08:53PM
    Psi4 wall time for execution: 0:02:23.00

*** Psi4 exiting successfully. Buy a developer a beer!
