                               Psi4 1.3.2 release

  ==> Input File <==

--------------------------------------------------------------------------
import numpy as np
set {scf_type pk
basis cc-pvdz
d_convergence 10
gdma_switch   0
gdma_limit    0
gdma_origin   [ 0.0,  0.0,  0.0 ]
}
molecule test {
    units Angstrom
    0 1
    --
    0 1
    C                0.301819097816573     0.164064035003511     1.253784217968037
    C                1.791819097816573     0.320064035003511     1.489784217968037
    C               -0.093180902183427    -1.317935964996489     1.350784217968037
    C               -0.504180902183427     1.004064035003511     2.245784217968038
    H                0.076819097816573     0.518064035003511     0.247784217968037
    H                1.983819097816573     0.006064035003511     2.511784217968038
    H                0.167819097816573    -1.713935964996490     2.334784217968037
    H               -1.164180902183427    -1.439935964996489     1.192784217968037
    H                0.385819097816573    -1.916935964996489     0.575784217968037
    H               -0.345180902183427     0.661064035003511     3.269784217968037
    H               -0.173180902183427     2.031064035003511     2.144784217968037
    H                2.116359097816573     1.363724035003511     1.365534217968037
    H                2.336269097816573    -0.339655964996489     0.798164217968037
    H               -1.577630902183427     1.011994035003510     2.005714217968037
    C               -0.746180902183427    -0.334935964996489    -2.373215782031963
    C               -0.700180902183427     0.190064035003511    -3.794215782031963
    H               -1.210180902183427     0.404064035003511    -1.718215782031963
    H               -1.338180902183427    -1.250935964996489    -2.340215782031962
    H                0.254819097816573    -0.569935964996489    -2.020215782031963
    H               -0.133180902183427    -0.504935964996489    -4.413215782031962
    H               -0.241700902183427     1.188804035003511    -3.842285782031963
    H               -1.732630902183427     0.249184035003511    -4.169125782031962

}
e, wfn = energy('scf', return_wfn=True)
gdma(wfn)
dmavals = variable('DMA DISTRIBUTED MULTIPOLES')
charges = np.array(dmavals)
print(charges)
np.save('SSI-061ILE-098LEU-1-dimer.npy', np.array(charges))--------------------------------------------------------------------------

*** tstart() called on ds3
*** at Mon Apr 27 09:09:51 2020

   => Loading Basis Set <=

    Name: CC-PVDZ
    Role: ORBITAL
    Keyword: BASIS
    atoms 1-4, 15-16  entry C          line   138 file /theoryfs2/ds/metcalf/miniconda2/envs/tf2gpu/share/psi4/basis/cc-pvdz.gbs
    atoms 5-14, 17-22 entry H          line    22 file /theoryfs2/ds/metcalf/miniconda2/envs/tf2gpu/share/psi4/basis/cc-pvdz.gbs

         ---------------------------------------------------------
                                   SCF
               by Justin Turney, Rob Parrish, Andy Simmonett
                          and Daniel G. A. Smith
                              RHF Reference
                        1 Threads,    500 MiB Core
         ---------------------------------------------------------

  ==> Geometry <==

    Molecular point group: c1
    Full point group: C1

    Geometry (in Angstrom), charge = 0, multiplicity = 1:

       Center              X                  Y                   Z               Mass
    ------------   -----------------  -----------------  -----------------  -----------------
         C            0.301819097817     0.164064035004     1.253784217968    12.000000000000
         C            1.791819097817     0.320064035004     1.489784217968    12.000000000000
         C           -0.093180902183    -1.317935964996     1.350784217968    12.000000000000
         C           -0.504180902183     1.004064035004     2.245784217968    12.000000000000
         H            0.076819097817     0.518064035004     0.247784217968     1.007825032230
         H            1.983819097817     0.006064035004     2.511784217968     1.007825032230
         H            0.167819097817    -1.713935964996     2.334784217968     1.007825032230
         H           -1.164180902183    -1.439935964996     1.192784217968     1.007825032230
         H            0.385819097817    -1.916935964996     0.575784217968     1.007825032230
         H           -0.345180902183     0.661064035004     3.269784217968     1.007825032230
         H           -0.173180902183     2.031064035004     2.144784217968     1.007825032230
         H            2.116359097817     1.363724035004     1.365534217968     1.007825032230
         H            2.336269097817    -0.339655964996     0.798164217968     1.007825032230
         H           -1.577630902183     1.011994035004     2.005714217968     1.007825032230
         C           -0.746180902183    -0.334935964996    -2.373215782032    12.000000000000
         C           -0.700180902183     0.190064035004    -3.794215782032    12.000000000000
         H           -1.210180902183     0.404064035004    -1.718215782032     1.007825032230
         H           -1.338180902183    -1.250935964996    -2.340215782032     1.007825032230
         H            0.254819097817    -0.569935964996    -2.020215782032     1.007825032230
         H           -0.133180902183    -0.504935964996    -4.413215782032     1.007825032230
         H           -0.241700902183     1.188804035004    -3.842285782032     1.007825032230
         H           -1.732630902183     0.249184035004    -4.169125782032     1.007825032230

  Running in c1 symmetry.

  Rotational constants: A =      0.14661  B =      0.03089  C =      0.03067 [cm^-1]
  Rotational constants: A =   4395.25783  B =    925.90919  C =    919.32491 [MHz]
  Nuclear repulsion =  244.087798614306990

  Charge       = 0
  Multiplicity = 1
  Electrons    = 52
  Nalpha       = 26
  Nbeta        = 26

  ==> Algorithm <==

  SCF Algorithm Type is PK.
  DIIS enabled.
  MOM disabled.
  Fractional occupation disabled.
  Guess Type is SAD.
  Energy threshold   = 1.00e-06
  Density threshold  = 1.00e-10
  Integral threshold = 0.00e+00

  ==> Primary Basis <==

  Basis Set: CC-PVDZ
    Blend: CC-PVDZ
    Number of shells: 84
    Number of basis function: 164
    Number of Cartesian functions: 170
    Spherical Harmonics?: true
    Max angular momentum: 2

  ==> Pre-Iterations <==

   -------------------------------------------------------
    Irrep   Nso     Nmo     Nalpha   Nbeta   Ndocc  Nsocc
   -------------------------------------------------------
     A        164     164       0       0       0       0
   -------------------------------------------------------
    Total     164     164      26      26      26       0
   -------------------------------------------------------

  ==> Integral Setup <==

  Using integral reordering PK algorithm.
  Sizing the integral batches needed.
  Building batch lookup table.
   Calculation information:
      Number of atoms:                  22
      Number of AO shells:              84
      Number of primitives:            212
      Number of atomic orbitals:       170
      Number of basis functions:       164

      Integral cutoff                 1.00e-12
      Number of threads:                 1

	Batch   1 pq = [       0,    9405] index = [             0,44231715] size =     44231715
	Batch   2 pq = [    9405,   13530] index = [      44231715,91537215] size =     47305500
  Task number: 9
  Buffer size: 11059200
  Buffer per thread: 2
  We computed 5559781 shell quartets total.
  Whereas there are 6374235 unique shell quartets.

  ==> DiskJK: Disk-Based J/K Matrices <==

    J tasked:                  Yes
    K tasked:                  Yes
    wK tasked:                  No
    Memory [MiB]:              375
    Schwarz Cutoff:          1E-12

    OpenMP threads:              1

  Minimum eigenvalue in the overlap matrix is 4.5108885360E-03.
  Using Symmetric Orthogonalization.

  SCF Guess: Superposition of Atomic Densities via on-the-fly atomic UHF.

  ==> Iterations <==

                        Total Energy        Delta E     RMS |[F,P]|

   @RHF iter SAD:  -235.44998064012424   -2.35450e+02   0.00000e+00
   @RHF iter   1:  -236.31032117105539   -8.60341e-01   3.55349e-03 DIIS
   @RHF iter   2:  -236.50247519753208   -1.92154e-01   1.54911e-03 DIIS
   @RHF iter   3:  -236.53703059976775   -3.45554e-02   3.14857e-04 DIIS
   @RHF iter   4:  -236.53967719289136   -2.64659e-03   6.99287e-05 DIIS
   @RHF iter   5:  -236.53976377957315   -8.65867e-05   1.57676e-05 DIIS
   @RHF iter   6:  -236.53976933861932   -5.55905e-06   2.72168e-06 DIIS
   @RHF iter   7:  -236.53976952244213   -1.83823e-07   6.48906e-07 DIIS
   @RHF iter   8:  -236.53976953434744   -1.19053e-08   1.57818e-07 DIIS
   @RHF iter   9:  -236.53976953506117   -7.13726e-10   4.51150e-08 DIIS
   @RHF iter  10:  -236.53976953512989   -6.87237e-11   9.82662e-09 DIIS
   @RHF iter  11:  -236.53976953513265   -2.75691e-12   1.96735e-09 DIIS
   @RHF iter  12:  -236.53976953513262    2.84217e-14   3.76555e-10 DIIS
   @RHF iter  13:  -236.53976953513319   -5.68434e-13   8.47575e-11 DIIS
  Energy and wave function converged.

  ==> Post-Iterations <==

    Orbital Energies [Eh]
    ---------------------

    Doubly Occupied:

       1A    -11.220571     2A    -11.219165     3A    -11.216726
       4A    -11.213734     5A    -11.213174     6A    -11.212120
       7A     -1.081625     8A     -1.022930     9A     -0.926016
      10A     -0.923899    11A     -0.836605    12A     -0.762196
      13A     -0.633673    14A     -0.603168    15A     -0.599084
      16A     -0.589060    17A     -0.581324    18A     -0.537504
      19A     -0.532916    20A     -0.504786    21A     -0.503613
      22A     -0.488388    23A     -0.484491    24A     -0.457973
      25A     -0.454814    26A     -0.454210

    Virtual:

      27A      0.167634    28A      0.192966    29A      0.210822
      30A      0.221061    31A      0.226197    32A      0.245484
      33A      0.255762    34A      0.261631    35A      0.263302
      36A      0.271222    37A      0.287926    38A      0.306237
      39A      0.309574    40A      0.313364    41A      0.324201
      42A      0.329748    43A      0.368880    44A      0.394125
      45A      0.407505    46A      0.415521    47A      0.549117
      48A      0.565285    49A      0.595849    50A      0.601896
      51A      0.605122    52A      0.615736    53A      0.629854
      54A      0.669203    55A      0.685867    56A      0.719641
      57A      0.778607    58A      0.785044    59A      0.798153
      60A      0.831192    61A      0.846573    62A      0.859401
      63A      0.875229    64A      0.888634    65A      0.891715
      66A      0.893782    67A      0.901187    68A      0.903907
      69A      0.908685    70A      0.912854    71A      0.915032
      72A      0.917003    73A      0.938743    74A      0.944844
      75A      0.955310    76A      0.959713    77A      0.973379
      78A      0.988661    79A      1.001174    80A      1.009293
      81A      1.122893    82A      1.133080    83A      1.137496
      84A      1.147583    85A      1.226179    86A      1.243311
      87A      1.375432    88A      1.398834    89A      1.411517
      90A      1.475224    91A      1.485443    92A      1.544805
      93A      1.561095    94A      1.582612    95A      1.667183
      96A      1.671809    97A      1.677027    98A      1.680013
      99A      1.683971   100A      1.695850   101A      1.702726
     102A      1.714773   103A      1.731220   104A      1.831658
     105A      1.846574   106A      1.854842   107A      1.860677
     108A      1.892279   109A      1.902973   110A      1.922135
     111A      1.928562   112A      1.941155   113A      1.946495
     114A      1.949390   115A      1.961277   116A      1.964475
     117A      1.967598   118A      1.975116   119A      1.999103
     120A      2.002351   121A      2.014849   122A      2.043982
     123A      2.063278   124A      2.094580   125A      2.105638
     126A      2.117368   127A      2.123401   128A      2.135623
     129A      2.145814   130A      2.249766   131A      2.259929
     132A      2.294186   133A      2.306091   134A      2.315252
     135A      2.328572   136A      2.345921   137A      2.363631
     138A      2.388723   139A      2.452370   140A      2.472877
     141A      2.478803   142A      2.561128   143A      2.576980
     144A      2.592305   145A      2.613251   146A      2.623741
     147A      2.719132   148A      2.721203   149A      2.751902
     150A      2.763904   151A      2.782648   152A      2.784857
     153A      2.799525   154A      2.805435   155A      2.826943
     156A      2.847072   157A      2.847163   158A      2.857324
     159A      2.859580   160A      2.952235   161A      2.966104
     162A      3.015657   163A      3.032591   164A      3.141809

    Final Occupation by Irrep:
              A
    DOCC [    26 ]

  @RHF Final Energy:  -236.53976953513319

   => Energetics <=

    Nuclear Repulsion Energy =            244.0877986143069904
    One-Electron Energy =                -800.7076064846658028
    Two-Electron Energy =                 320.0800383352256517
    Total Energy =                       -236.5397695351331890

Computation Completed

Properties will be evaluated at   0.000000,   0.000000,   0.000000 [a0]

Properties computed using the SCF density matrix

  Nuclear Dipole Moment: [e a0]
     X:    -0.5572      Y:    -0.2833      Z:    -1.9278

  Electronic Dipole Moment: [e a0]
     X:     0.5283      Y:     0.2929      Z:     1.8536

  Dipole Moment: [e a0]
     X:    -0.0289      Y:     0.0095      Z:    -0.0741     Total:     0.0801

  Dipole Moment: [D]
     X:    -0.0734      Y:     0.0242      Z:    -0.1885     Total:     0.2037

*** tstop() called on ds3 at Mon Apr 27 09:11:34 2020
Module time:
	user time   =      28.84 seconds =       0.48 minutes
	system time =       9.92 seconds =       0.17 minutes
	total time  =        103 seconds =       1.72 minutes
Total time:
	user time   =      28.84 seconds =       0.48 minutes
	system time =       9.92 seconds =       0.17 minutes
	total time  =        103 seconds =       1.72 minutes
                                     G D M A

                                 by Anthony Stone

                           version 2.2.06, 22 June 2011

               Distributed Multipoles from Gaussian wavefunctions

Starting at 9:11:34 on 27 Apr 2020

Using SCF density matrix from file ./SSI/SSI-061ILE-098LEU-1-dimer.test.1490.fchk

                         Distributed Multipole Analysis

Standard DMA

Positions and radii in angstrom
Multipole moments in atomic units, ea_0^k for rank k

C          x =  0.301819  y =  0.164064  z =  1.253784 angstrom
           Maximum rank =  0   Radius =  0.650 angstrom
                   Q00  =   0.007574

C          x =  1.791819  y =  0.320064  z =  1.489784 angstrom
           Maximum rank =  0   Radius =  0.650 angstrom
                   Q00  =  -0.220427

C          x = -0.093181  y = -1.317936  z =  1.350784 angstrom
           Maximum rank =  0   Radius =  0.650 angstrom
                   Q00  =  -0.259247

C          x = -0.504181  y =  1.004064  z =  2.245784 angstrom
           Maximum rank =  0   Radius =  0.650 angstrom
                   Q00  =  -0.251207

H          x =  0.076819  y =  0.518064  z =  0.247784 angstrom
           Maximum rank =  0   Radius =  0.325 angstrom
                   Q00  =   0.017202

H          x =  1.983819  y =  0.006064  z =  2.511784 angstrom
           Maximum rank =  0   Radius =  0.325 angstrom
                   Q00  =   0.072015

H          x =  0.167819  y = -1.713936  z =  2.334784 angstrom
           Maximum rank =  0   Radius =  0.325 angstrom
                   Q00  =   0.075721

H          x = -1.164181  y = -1.439936  z =  1.192784 angstrom
           Maximum rank =  0   Radius =  0.325 angstrom
                   Q00  =   0.080785

H          x =  0.385819  y = -1.916936  z =  0.575784 angstrom
           Maximum rank =  0   Radius =  0.325 angstrom
                   Q00  =   0.081199

H          x = -0.345181  y =  0.661064  z =  3.269784 angstrom
           Maximum rank =  0   Radius =  0.325 angstrom
                   Q00  =   0.077561

H          x = -0.173181  y =  2.031064  z =  2.144784 angstrom
           Maximum rank =  0   Radius =  0.325 angstrom
                   Q00  =   0.077359

H          x =  2.116359  y =  1.363724  z =  1.365534 angstrom
           Maximum rank =  0   Radius =  0.325 angstrom
                   Q00  =   0.080292

H          x =  2.336269  y = -0.339656  z =  0.798164 angstrom
           Maximum rank =  0   Radius =  0.325 angstrom
                   Q00  =   0.078219

H          x = -1.577631  y =  1.011994  z =  2.005714 angstrom
           Maximum rank =  0   Radius =  0.325 angstrom
                   Q00  =   0.081132

C          x = -0.746181  y = -0.334936  z = -2.373216 angstrom
           Maximum rank =  0   Radius =  0.650 angstrom
                   Q00  =  -0.231830

C          x = -0.700181  y =  0.190064  z = -3.794216 angstrom
           Maximum rank =  0   Radius =  0.650 angstrom
                   Q00  =  -0.231828

H          x = -1.210181  y =  0.404064  z = -1.718216 angstrom
           Maximum rank =  0   Radius =  0.325 angstrom
                   Q00  =   0.076996

H          x = -1.338181  y = -1.250936  z = -2.340216 angstrom
           Maximum rank =  0   Radius =  0.325 angstrom
                   Q00  =   0.078502

H          x =  0.254819  y = -0.569936  z = -2.020216 angstrom
           Maximum rank =  0   Radius =  0.325 angstrom
                   Q00  =   0.076675

H          x = -0.133181  y = -0.504936  z = -4.413216 angstrom
           Maximum rank =  0   Radius =  0.325 angstrom
                   Q00  =   0.078987

H          x = -0.241701  y =  1.188804  z = -3.842286 angstrom
           Maximum rank =  0   Radius =  0.325 angstrom
                   Q00  =   0.078757

H          x = -1.732631  y =  0.249184  z = -4.169126 angstrom
           Maximum rank =  0   Radius =  0.325 angstrom
                   Q00  =   0.075562

Total multipoles referred to origin at
           x =   0.000000,  y =    0.000000,  z =    0.000000 angstrom
                   Q00  =  -0.000000

Finished at 9:11:34 on 27 Apr 2020

  DMA results are available in the Python driver through the
	  variable('DMA DISTRIBUTED MULTIPOLES')
  and
	  variable('DMA TOTAL MULTIPOLES')
  commands.

    Psi4 stopped on: Monday, 27 April 2020 09:11AM
    Psi4 wall time for execution: 0:01:43.21

*** Psi4 exiting successfully. Buy a developer a beer!
