                               Psi4 1.3.2 release

  ==> Input File <==

--------------------------------------------------------------------------
import numpy as np
set {scf_type pk
basis cc-pvdz
d_convergence 10
gdma_switch   0
gdma_limit    0
gdma_origin   [ 0.0,  0.0,  0.0 ]
}
molecule test {
    units Angstrom
    0 1
    --
    0 1
    C                1.318145514809837    -0.270595732750069     1.275847486004667
    C                2.408145514809837     0.316404267249931     2.175847486004667
    H                0.434145514809837     0.369404267249931     1.288847486004667
    H                1.677145514809837    -0.359595732750069     0.251847486004667
    H                1.037145514809837    -1.269595732750069     1.611847486004667
    H                3.274145514809836    -0.339595732750069     2.142847486004667
    H                2.045009514809836     0.364294267249931     3.213073486004667
    H                2.721258514809837     1.306614267249931     1.813295486004667
    C               -1.205854485190163     0.085404267249931    -1.351152513995333
    C               -2.521854485190163    -0.121595732750069    -2.101152513995333
    H               -1.379854485190163     0.504404267249931    -0.361152513995333
    H               -0.707854485190163    -0.876595732750069    -1.228152513995333
    H               -0.555854485190163     0.756404267249931    -1.916152513995333
    H               -3.104854485190163    -0.857595732750069    -1.548152513995333
    H               -3.096089485190163     0.815014267249931    -2.156079513995333
    H               -2.327459485190163    -0.527665732750069    -3.104805513995333

}
e, wfn = energy('scf', return_wfn=True)
gdma(wfn)
dmavals = variable('DMA DISTRIBUTED MULTIPOLES')
charges = np.array(dmavals)
print(charges)
np.save('SSI-118ILE-136VAL-1-dimer.npy', np.array(charges))--------------------------------------------------------------------------

*** tstart() called on ds3
*** at Sun Apr 26 23:24:56 2020

   => Loading Basis Set <=

    Name: CC-PVDZ
    Role: ORBITAL
    Keyword: BASIS
    atoms 1-2, 9-10  entry C          line   138 file /theoryfs2/ds/metcalf/miniconda2/envs/tf2gpu/share/psi4/basis/cc-pvdz.gbs
    atoms 3-8, 11-16 entry H          line    22 file /theoryfs2/ds/metcalf/miniconda2/envs/tf2gpu/share/psi4/basis/cc-pvdz.gbs

         ---------------------------------------------------------
                                   SCF
               by Justin Turney, Rob Parrish, Andy Simmonett
                          and Daniel G. A. Smith
                              RHF Reference
                        1 Threads,    500 MiB Core
         ---------------------------------------------------------

  ==> Geometry <==

    Molecular point group: c1
    Full point group: C1

    Geometry (in Angstrom), charge = 0, multiplicity = 1:

       Center              X                  Y                   Z               Mass
    ------------   -----------------  -----------------  -----------------  -----------------
         C            1.318145514810    -0.270595732750     1.275847486005    12.000000000000
         C            2.408145514810     0.316404267250     2.175847486005    12.000000000000
         H            0.434145514810     0.369404267250     1.288847486005     1.007825032230
         H            1.677145514810    -0.359595732750     0.251847486005     1.007825032230
         H            1.037145514810    -1.269595732750     1.611847486005     1.007825032230
         H            3.274145514810    -0.339595732750     2.142847486005     1.007825032230
         H            2.045009514810     0.364294267250     3.213073486005     1.007825032230
         H            2.721258514810     1.306614267250     1.813295486005     1.007825032230
         C           -1.205854485190     0.085404267250    -1.351152513995    12.000000000000
         C           -2.521854485190    -0.121595732750    -2.101152513995    12.000000000000
         H           -1.379854485190     0.504404267250    -0.361152513995     1.007825032230
         H           -0.707854485190    -0.876595732750    -1.228152513995     1.007825032230
         H           -0.555854485190     0.756404267250    -1.916152513995     1.007825032230
         H           -3.104854485190    -0.857595732750    -1.548152513995     1.007825032230
         H           -3.096089485190     0.815014267250    -2.156079513995     1.007825032230
         H           -2.327459485190    -0.527665732750    -3.104805513995     1.007825032230

  Running in c1 symmetry.

  Rotational constants: A =      1.02335  B =      0.03880  C =      0.03858 [cm^-1]
  Rotational constants: A =  30679.24087  B =   1163.06097  C =   1156.59762 [MHz]
  Nuclear repulsion =  119.760184828374292

  Charge       = 0
  Multiplicity = 1
  Electrons    = 36
  Nalpha       = 18
  Nbeta        = 18

  ==> Algorithm <==

  SCF Algorithm Type is PK.
  DIIS enabled.
  MOM disabled.
  Fractional occupation disabled.
  Guess Type is SAD.
  Energy threshold   = 1.00e-06
  Density threshold  = 1.00e-10
  Integral threshold = 0.00e+00

  ==> Primary Basis <==

  Basis Set: CC-PVDZ
    Blend: CC-PVDZ
    Number of shells: 60
    Number of basis function: 116
    Number of Cartesian functions: 120
    Spherical Harmonics?: true
    Max angular momentum: 2

  ==> Pre-Iterations <==

   -------------------------------------------------------
    Irrep   Nso     Nmo     Nalpha   Nbeta   Ndocc  Nsocc
   -------------------------------------------------------
     A        116     116       0       0       0       0
   -------------------------------------------------------
    Total     116     116      18      18      18       0
   -------------------------------------------------------

  ==> Integral Setup <==

  Using integral reordering PK algorithm.
  Sizing the integral batches needed.
  Building batch lookup table.
   Calculation information:
      Number of atoms:                  16
      Number of AO shells:              60
      Number of primitives:            148
      Number of atomic orbitals:       120
      Number of basis functions:       116

      Integral cutoff                 1.00e-12
      Number of threads:                 1

	Batch   1 pq = [       0,    6786] index = [             0,23028291] size =     23028291
  Task number: 3
  Buffer size: 11059200
  Buffer per thread: 2
  We computed 1323414 shell quartets total.
  Whereas there are 1675365 unique shell quartets.

  ==> DiskJK: Disk-Based J/K Matrices <==

    J tasked:                  Yes
    K tasked:                  Yes
    wK tasked:                  No
    Memory [MiB]:              375
    Schwarz Cutoff:          1E-12

    OpenMP threads:              1

  Minimum eigenvalue in the overlap matrix is 6.1889600742E-03.
  Using Symmetric Orthogonalization.

  SCF Guess: Superposition of Atomic Densities via on-the-fly atomic UHF.

  ==> Iterations <==

                        Total Energy        Delta E     RMS |[F,P]|

   @RHF iter SAD:  -157.34102959128916   -1.57341e+02   0.00000e+00
   @RHF iter   1:  -158.30802890466921   -9.66999e-01   4.21084e-03 DIIS
   @RHF iter   2:  -158.44145744402044   -1.33429e-01   1.79475e-03 DIIS
   @RHF iter   3:  -158.46483680409108   -2.33794e-02   3.50061e-04 DIIS
   @RHF iter   4:  -158.46667008114031   -1.83328e-03   3.89274e-05 DIIS
   @RHF iter   5:  -158.46669373851921   -2.36574e-05   6.72802e-06 DIIS
   @RHF iter   6:  -158.46669439739048   -6.58871e-07   1.11595e-06 DIIS
   @RHF iter   7:  -158.46669440933533   -1.19448e-08   3.17778e-07 DIIS
   @RHF iter   8:  -158.46669441023116   -8.95824e-10   3.80132e-08 DIIS
   @RHF iter   9:  -158.46669441025401   -2.28511e-11   6.83329e-09 DIIS
   @RHF iter  10:  -158.46669441025500   -9.94760e-13   1.74031e-09 DIIS
   @RHF iter  11:  -158.46669441025446    5.40012e-13   3.80699e-10 DIIS
   @RHF iter  12:  -158.46669441025517   -7.10543e-13   1.12974e-10 DIIS
   @RHF iter  13:  -158.46669441025534   -1.70530e-13   2.34407e-11 DIIS
  Energy and wave function converged.

  ==> Post-Iterations <==

    Orbital Energies [Eh]
    ---------------------

    Doubly Occupied:

       1A    -11.218695     2A    -11.218658     3A    -11.215893
       4A    -11.215765     5A     -1.018185     6A     -1.016097
       7A     -0.839547     8A     -0.832706     9A     -0.599656
      10A     -0.597390    11A     -0.596626    12A     -0.594154
      13A     -0.505706    14A     -0.495320    15A     -0.489394
      16A     -0.484366    17A     -0.483759    18A     -0.479943

    Virtual:

      19A      0.177818    20A      0.193247    21A      0.220932
      22A      0.234067    23A      0.245424    24A      0.261571
      25A      0.266792    26A      0.278473    27A      0.281413
      28A      0.287242    29A      0.295721    30A      0.343607
      31A      0.382528    32A      0.411932    33A      0.566522
      34A      0.590523    35A      0.593579    36A      0.603571
      37A      0.605518    38A      0.643176    39A      0.675264
      40A      0.697904    41A      0.705223    42A      0.740883
      43A      0.842503    44A      0.890758    45A      0.892584
      46A      0.892904    47A      0.894639    48A      0.897425
      49A      0.899417    50A      0.907994    51A      0.916029
      52A      0.921721    53A      0.925862    54A      0.949408
      55A      0.955678    56A      0.997826    57A      1.124000
      58A      1.126616    59A      1.131608    60A      1.144417
      61A      1.214341    62A      1.263464    63A      1.467668
      64A      1.473576    65A      1.481815    66A      1.486051
      67A      1.575746    68A      1.584832    69A      1.679677
      70A      1.680499    71A      1.694638    72A      1.696764
      73A      1.847952    74A      1.857745    75A      1.867742
      76A      1.879360    77A      1.893672    78A      1.921044
      79A      1.938329    80A      1.941734    81A      1.943687
      82A      1.947815    83A      1.951490    84A      1.954241
      85A      1.960569    86A      1.969791    87A      1.989163
      88A      2.057457    89A      2.091391    90A      2.096487
      91A      2.113119    92A      2.121583    93A      2.295719
      94A      2.309288    95A      2.318147    96A      2.335053
      97A      2.447487    98A      2.455068    99A      2.470612
     100A      2.476524   101A      2.555093   102A      2.558060
     103A      2.572940   104A      2.576031   105A      2.759264
     106A      2.763308   107A      2.784265   108A      2.787304
     109A      2.844584   110A      2.852457   111A      2.856596
     112A      2.864998   113A      2.944176   114A      2.946201
     115A      2.956419   116A      2.969544

    Final Occupation by Irrep:
              A
    DOCC [    18 ]

  @RHF Final Energy:  -158.46669441025534

   => Energetics <=

    Nuclear Repulsion Energy =            119.7601848283742925
    One-Electron Energy =                -448.6500406044226565
    Two-Electron Energy =                 170.4231613657930211
    Total Energy =                       -158.4666944102553430

Computation Completed

Properties will be evaluated at   0.000000,   0.000000,   0.000000 [a0]

Properties computed using the SCF density matrix

  Nuclear Dipole Moment: [e a0]
     X:     0.0158      Y:    -0.1073      Z:     0.0068

  Electronic Dipole Moment: [e a0]
     X:    -0.0104      Y:     0.0880      Z:    -0.0051

  Dipole Moment: [e a0]
     X:     0.0054      Y:    -0.0194      Z:     0.0017     Total:     0.0202

  Dipole Moment: [D]
     X:     0.0137      Y:    -0.0493      Z:     0.0042     Total:     0.0513

*** tstop() called on ds3 at Sun Apr 26 23:25:05 2020
Module time:
	user time   =       6.66 seconds =       0.11 minutes
	system time =       2.84 seconds =       0.05 minutes
	total time  =          9 seconds =       0.15 minutes
Total time:
	user time   =       6.66 seconds =       0.11 minutes
	system time =       2.84 seconds =       0.05 minutes
	total time  =          9 seconds =       0.15 minutes
                                     G D M A

                                 by Anthony Stone

                           version 2.2.06, 22 June 2011

               Distributed Multipoles from Gaussian wavefunctions

Starting at 23:25:5 on 26 Apr 2020

Using SCF density matrix from file ./SSI/SSI-118ILE-136VAL-1-dimer.test.31103.fchk

                         Distributed Multipole Analysis

Standard DMA

Positions and radii in angstrom
Multipole moments in atomic units, ea_0^k for rank k

C          x =  1.318146  y = -0.270596  z =  1.275847 angstrom
           Maximum rank =  0   Radius =  0.650 angstrom
                   Q00  =  -0.238640

C          x =  2.408146  y =  0.316404  z =  2.175847 angstrom
           Maximum rank =  0   Radius =  0.650 angstrom
                   Q00  =  -0.235946

H          x =  0.434146  y =  0.369404  z =  1.288847 angstrom
           Maximum rank =  0   Radius =  0.325 angstrom
                   Q00  =   0.078720

H          x =  1.677146  y = -0.359596  z =  0.251847 angstrom
           Maximum rank =  0   Radius =  0.325 angstrom
                   Q00  =   0.079250

H          x =  1.037146  y = -1.269596  z =  1.611847 angstrom
           Maximum rank =  0   Radius =  0.325 angstrom
                   Q00  =   0.078578

H          x =  3.274146  y = -0.339596  z =  2.142847 angstrom
           Maximum rank =  0   Radius =  0.325 angstrom
                   Q00  =   0.078435

H          x =  2.045010  y =  0.364294  z =  3.213073 angstrom
           Maximum rank =  0   Radius =  0.325 angstrom
                   Q00  =   0.079410

H          x =  2.721259  y =  1.306614  z =  1.813295 angstrom
           Maximum rank =  0   Radius =  0.325 angstrom
                   Q00  =   0.080360

C          x = -1.205854  y =  0.085404  z = -1.351153 angstrom
           Maximum rank =  0   Radius =  0.650 angstrom
                   Q00  =  -0.247154

C          x = -2.521854  y = -0.121596  z = -2.101153 angstrom
           Maximum rank =  0   Radius =  0.650 angstrom
                   Q00  =  -0.225782

H          x = -1.379854  y =  0.504404  z = -0.361153 angstrom
           Maximum rank =  0   Radius =  0.325 angstrom
                   Q00  =   0.079784

H          x = -0.707854  y = -0.876596  z = -1.228153 angstrom
           Maximum rank =  0   Radius =  0.325 angstrom
                   Q00  =   0.078409

H          x = -0.555854  y =  0.756404  z = -1.916153 angstrom
           Maximum rank =  0   Radius =  0.325 angstrom
                   Q00  =   0.077650

H          x = -3.104854  y = -0.857596  z = -1.548153 angstrom
           Maximum rank =  0   Radius =  0.325 angstrom
                   Q00  =   0.076831

H          x = -3.096089  y =  0.815014  z = -2.156080 angstrom
           Maximum rank =  0   Radius =  0.325 angstrom
                   Q00  =   0.080281

H          x = -2.327459  y = -0.527666  z = -3.104806 angstrom
           Maximum rank =  0   Radius =  0.325 angstrom
                   Q00  =   0.079813

Total multipoles referred to origin at
           x =   0.000000,  y =    0.000000,  z =    0.000000 angstrom
                   Q00  =  -0.000000

Finished at 23:25:5 on 26 Apr 2020

  DMA results are available in the Python driver through the
	  variable('DMA DISTRIBUTED MULTIPOLES')
  and
	  variable('DMA TOTAL MULTIPOLES')
  commands.

    Psi4 stopped on: Sunday, 26 April 2020 11:25PM
    Psi4 wall time for execution: 0:00:09.30

*** Psi4 exiting successfully. Buy a developer a beer!
