                               Psi4 1.3.2 release

  ==> Input File <==

--------------------------------------------------------------------------
import numpy as np
set {scf_type pk
basis cc-pvdz
d_convergence 10
gdma_switch   0
gdma_limit    0
gdma_origin   [ 0.0,  0.0,  0.0 ]
}
molecule test {
    units Angstrom
    0 1
    --
    0 1
    C                1.553871809465200     0.832279261770057    -0.467352858886995
    C                3.036871809465200     0.885279261770057    -0.861352858886995
    H                1.412871809465200     0.143279261770057     0.365647141113005
    H                1.223871809465200     1.825279261770057    -0.162352858886995
    H                0.943871809465200     0.510279261770057    -1.310352858886995
    H                3.149871809465200     1.515279261770057    -1.744352858886995
    H                3.435851809465200    -0.120780738229943    -1.057971858886995
    H                3.590861809465200     1.324756261770057    -0.018762858886995
    C               -1.673128190534801    -0.442720738229943     0.503647141113005
    C               -2.916128190534800    -1.281720738229943     0.817647141113005
    H               -1.963128190534801     0.489279261770057     0.017647141113005
    H               -1.149128190534800    -0.206720738229943     1.428647141113005
    H               -1.003128190534801    -0.997720738229943    -0.150352858886995
    H               -3.520128190534800    -0.708720738229943     1.520647141113005
    H               -3.501108190534800    -1.460005738229943    -0.096692858886995
    H               -2.638288190534800    -2.232249738229943     1.296497141113005

}
e, wfn = energy('scf', return_wfn=True)
gdma(wfn)
dmavals = variable('DMA DISTRIBUTED MULTIPOLES')
charges = np.array(dmavals)
print(charges)
np.save('SSI-131THR-149LEU-1-dimer.npy', np.array(charges))--------------------------------------------------------------------------

*** tstart() called on ds3
*** at Tue Apr 28 11:26:38 2020

   => Loading Basis Set <=

    Name: CC-PVDZ
    Role: ORBITAL
    Keyword: BASIS
    atoms 1-2, 9-10  entry C          line   138 file /theoryfs2/ds/metcalf/miniconda2/envs/tf2gpu/share/psi4/basis/cc-pvdz.gbs
    atoms 3-8, 11-16 entry H          line    22 file /theoryfs2/ds/metcalf/miniconda2/envs/tf2gpu/share/psi4/basis/cc-pvdz.gbs

         ---------------------------------------------------------
                                   SCF
               by Justin Turney, Rob Parrish, Andy Simmonett
                          and Daniel G. A. Smith
                              RHF Reference
                        1 Threads,    500 MiB Core
         ---------------------------------------------------------

  ==> Geometry <==

    Molecular point group: c1
    Full point group: C1

    Geometry (in Angstrom), charge = 0, multiplicity = 1:

       Center              X                  Y                   Z               Mass
    ------------   -----------------  -----------------  -----------------  -----------------
         C            1.553871809465     0.832279261770    -0.467352858887    12.000000000000
         C            3.036871809465     0.885279261770    -0.861352858887    12.000000000000
         H            1.412871809465     0.143279261770     0.365647141113     1.007825032230
         H            1.223871809465     1.825279261770    -0.162352858887     1.007825032230
         H            0.943871809465     0.510279261770    -1.310352858887     1.007825032230
         H            3.149871809465     1.515279261770    -1.744352858887     1.007825032230
         H            3.435851809465    -0.120780738230    -1.057971858887     1.007825032230
         H            3.590861809465     1.324756261770    -0.018762858887     1.007825032230
         C           -1.673128190535    -0.442720738230     0.503647141113    12.000000000000
         C           -2.916128190535    -1.281720738230     0.817647141113    12.000000000000
         H           -1.963128190535     0.489279261770     0.017647141113     1.007825032230
         H           -1.149128190535    -0.206720738230     1.428647141113     1.007825032230
         H           -1.003128190535    -0.997720738230    -0.150352858887     1.007825032230
         H           -3.520128190535    -0.708720738230     1.520647141113     1.007825032230
         H           -3.501108190535    -1.460005738230    -0.096692858887     1.007825032230
         H           -2.638288190535    -2.232249738230     1.296497141113     1.007825032230

  Running in c1 symmetry.

  Rotational constants: A =      1.08024  B =      0.03877  C =      0.03853 [cm^-1]
  Rotational constants: A =  32384.78077  B =   1162.32866  C =   1155.12700 [MHz]
  Nuclear repulsion =  119.806666954959113

  Charge       = 0
  Multiplicity = 1
  Electrons    = 36
  Nalpha       = 18
  Nbeta        = 18

  ==> Algorithm <==

  SCF Algorithm Type is PK.
  DIIS enabled.
  MOM disabled.
  Fractional occupation disabled.
  Guess Type is SAD.
  Energy threshold   = 1.00e-06
  Density threshold  = 1.00e-10
  Integral threshold = 0.00e+00

  ==> Primary Basis <==

  Basis Set: CC-PVDZ
    Blend: CC-PVDZ
    Number of shells: 60
    Number of basis function: 116
    Number of Cartesian functions: 120
    Spherical Harmonics?: true
    Max angular momentum: 2

  ==> Pre-Iterations <==

   -------------------------------------------------------
    Irrep   Nso     Nmo     Nalpha   Nbeta   Ndocc  Nsocc
   -------------------------------------------------------
     A        116     116       0       0       0       0
   -------------------------------------------------------
    Total     116     116      18      18      18       0
   -------------------------------------------------------

  ==> Integral Setup <==

  Using integral reordering PK algorithm.
  Sizing the integral batches needed.
  Building batch lookup table.
   Calculation information:
      Number of atoms:                  16
      Number of AO shells:              60
      Number of primitives:            148
      Number of atomic orbitals:       120
      Number of basis functions:       116

      Integral cutoff                 1.00e-12
      Number of threads:                 1

	Batch   1 pq = [       0,    6786] index = [             0,23028291] size =     23028291
  Task number: 3
  Buffer size: 11059200
  Buffer per thread: 2
  We computed 1326748 shell quartets total.
  Whereas there are 1675365 unique shell quartets.

  ==> DiskJK: Disk-Based J/K Matrices <==

    J tasked:                  Yes
    K tasked:                  Yes
    wK tasked:                  No
    Memory [MiB]:              375
    Schwarz Cutoff:          1E-12

    OpenMP threads:              1

  Minimum eigenvalue in the overlap matrix is 5.7657386463E-03.
  Using Symmetric Orthogonalization.

  SCF Guess: Superposition of Atomic Densities via on-the-fly atomic UHF.

  ==> Iterations <==

                        Total Energy        Delta E     RMS |[F,P]|

   @RHF iter SAD:  -157.33057708707992   -1.57331e+02   0.00000e+00
   @RHF iter   1:  -158.30838686190697   -9.77810e-01   4.20094e-03 DIIS
   @RHF iter   2:  -158.44145647076647   -1.33070e-01   1.78401e-03 DIIS
   @RHF iter   3:  -158.46458514769611   -2.31287e-02   3.49525e-04 DIIS
   @RHF iter   4:  -158.46641211733942   -1.82697e-03   3.91105e-05 DIIS
   @RHF iter   5:  -158.46643594354185   -2.38262e-05   6.99287e-06 DIIS
   @RHF iter   6:  -158.46643663752030   -6.93978e-07   1.29187e-06 DIIS
   @RHF iter   7:  -158.46643665265580   -1.51355e-08   3.18912e-07 DIIS
   @RHF iter   8:  -158.46643665361296   -9.57158e-10   3.46355e-08 DIIS
   @RHF iter   9:  -158.46643665363169   -1.87299e-11   4.91429e-09 DIIS
   @RHF iter  10:  -158.46643665363177   -8.52651e-14   1.15997e-09 DIIS
   @RHF iter  11:  -158.46643665363155    2.27374e-13   3.14309e-10 DIIS
   @RHF iter  12:  -158.46643665363251   -9.66338e-13   7.15482e-11 DIIS
  Energy and wave function converged.

  ==> Post-Iterations <==

    Orbital Energies [Eh]
    ---------------------

    Doubly Occupied:

       1A    -11.219073     2A    -11.218640     3A    -11.215658
       4A    -11.215528     5A     -1.017424     6A     -1.015130
       7A     -0.839185     8A     -0.831977     9A     -0.599679
      10A     -0.598391    11A     -0.596132    12A     -0.593788
      13A     -0.503064    14A     -0.492766    15A     -0.490103
      16A     -0.487256    17A     -0.483681    18A     -0.478733

    Virtual:

      19A      0.177016    20A      0.193847    21A      0.220372
      22A      0.239544    23A      0.245063    24A      0.262263
      25A      0.265414    26A      0.278861    27A      0.282673
      28A      0.287628    29A      0.302927    30A      0.306974
      31A      0.363963    32A      0.425340    33A      0.561785
      34A      0.597645    35A      0.599381    36A      0.602062
      37A      0.603684    38A      0.661693    39A      0.672532
      40A      0.687983    41A      0.709997    42A      0.746620
      43A      0.826987    44A      0.888464    45A      0.892615
      46A      0.893648    47A      0.895215    48A      0.896233
      49A      0.901987    50A      0.909010    51A      0.914381
      52A      0.916324    53A      0.929847    54A      0.949938
      55A      0.968198    56A      0.999846    57A      1.122938
      58A      1.124084    59A      1.135967    60A      1.145146
      61A      1.205882    62A      1.283023    63A      1.465586
      64A      1.467333    65A      1.483818    66A      1.489030
      67A      1.580207    68A      1.585698    69A      1.678956
      70A      1.679365    71A      1.693874    72A      1.695037
      73A      1.850164    74A      1.852224    75A      1.878684
      76A      1.886918    77A      1.890025    78A      1.914366
      79A      1.936285    80A      1.938054    81A      1.943436
      82A      1.945226    83A      1.951363    84A      1.951916
      85A      1.963540    86A      1.967225    87A      1.988352
      88A      2.079800    89A      2.100114    90A      2.102325
      91A      2.118715    92A      2.124808    93A      2.291987
      94A      2.299386    95A      2.304948    96A      2.390709
      97A      2.444349    98A      2.448726    99A      2.471064
     100A      2.477193   101A      2.557082   102A      2.563215
     103A      2.573933   104A      2.579127   105A      2.755822
     106A      2.768853   107A      2.787195   108A      2.799694
     109A      2.836286   110A      2.840374   111A      2.852626
     112A      2.855762   113A      2.933914   114A      2.939733
     115A      2.957603   116A      2.967498

    Final Occupation by Irrep:
              A
    DOCC [    18 ]

  @RHF Final Energy:  -158.46643665363251

   => Energetics <=

    Nuclear Repulsion Energy =            119.8066669549591126
    One-Electron Energy =                -448.7537853266856587
    Two-Electron Energy =                 170.4806817180940470
    Total Energy =                       -158.4664366536325133

Computation Completed

Properties will be evaluated at   0.000000,   0.000000,   0.000000 [a0]

Properties computed using the SCF density matrix

  Nuclear Dipole Moment: [e a0]
     X:    -0.0166      Y:     0.0768      Z:     0.0827

  Electronic Dipole Moment: [e a0]
     X:     0.0121      Y:    -0.0620      Z:    -0.0747

  Dipole Moment: [e a0]
     X:    -0.0045      Y:     0.0148      Z:     0.0081     Total:     0.0175

  Dipole Moment: [D]
     X:    -0.0115      Y:     0.0377      Z:     0.0205     Total:     0.0445

*** tstop() called on ds3 at Tue Apr 28 11:26:48 2020
Module time:
	user time   =       7.36 seconds =       0.12 minutes
	system time =       2.89 seconds =       0.05 minutes
	total time  =         10 seconds =       0.17 minutes
Total time:
	user time   =       7.36 seconds =       0.12 minutes
	system time =       2.89 seconds =       0.05 minutes
	total time  =         10 seconds =       0.17 minutes
                                     G D M A

                                 by Anthony Stone

                           version 2.2.06, 22 June 2011

               Distributed Multipoles from Gaussian wavefunctions

Starting at 11:26:48 on 28 Apr 2020

Using SCF density matrix from file ./SSI/SSI-131THR-149LEU-1-dimer.test.17204.fchk

                         Distributed Multipole Analysis

Standard DMA

Positions and radii in angstrom
Multipole moments in atomic units, ea_0^k for rank k

C          x =  1.553872  y =  0.832279  z = -0.467353 angstrom
           Maximum rank =  0   Radius =  0.650 angstrom
                   Q00  =  -0.239347

C          x =  3.036872  y =  0.885279  z = -0.861353 angstrom
           Maximum rank =  0   Radius =  0.650 angstrom
                   Q00  =  -0.236246

H          x =  1.412872  y =  0.143279  z =  0.365647 angstrom
           Maximum rank =  0   Radius =  0.325 angstrom
                   Q00  =   0.079542

H          x =  1.223872  y =  1.825279  z = -0.162353 angstrom
           Maximum rank =  0   Radius =  0.325 angstrom
                   Q00  =   0.079127

H          x =  0.943872  y =  0.510279  z = -1.310353 angstrom
           Maximum rank =  0   Radius =  0.325 angstrom
                   Q00  =   0.078511

H          x =  3.149872  y =  1.515279  z = -1.744353 angstrom
           Maximum rank =  0   Radius =  0.325 angstrom
                   Q00  =   0.081076

H          x =  3.435852  y = -0.120781  z = -1.057972 angstrom
           Maximum rank =  0   Radius =  0.325 angstrom
                   Q00  =   0.080328

H          x =  3.590862  y =  1.324756  z = -0.018763 angstrom
           Maximum rank =  0   Radius =  0.325 angstrom
                   Q00  =   0.076703

C          x = -1.673128  y = -0.442721  z =  0.503647 angstrom
           Maximum rank =  0   Radius =  0.650 angstrom
                   Q00  =  -0.239003

C          x = -2.916128  y = -1.281721  z =  0.817647 angstrom
           Maximum rank =  0   Radius =  0.650 angstrom
                   Q00  =  -0.234894

H          x = -1.963128  y =  0.489279  z =  0.017647 angstrom
           Maximum rank =  0   Radius =  0.325 angstrom
                   Q00  =   0.080133

H          x = -1.149128  y = -0.206721  z =  1.428647 angstrom
           Maximum rank =  0   Radius =  0.325 angstrom
                   Q00  =   0.078171

H          x = -1.003128  y = -0.997721  z = -0.150353 angstrom
           Maximum rank =  0   Radius =  0.325 angstrom
                   Q00  =   0.078200

H          x = -3.520128  y = -0.708721  z =  1.520647 angstrom
           Maximum rank =  0   Radius =  0.325 angstrom
                   Q00  =   0.077081

H          x = -3.501108  y = -1.460006  z = -0.096693 angstrom
           Maximum rank =  0   Radius =  0.325 angstrom
                   Q00  =   0.080332

H          x = -2.638288  y = -2.232250  z =  1.296497 angstrom
           Maximum rank =  0   Radius =  0.325 angstrom
                   Q00  =   0.080288

Total multipoles referred to origin at
           x =   0.000000,  y =    0.000000,  z =    0.000000 angstrom
                   Q00  =  -0.000000

Finished at 11:26:48 on 28 Apr 2020

  DMA results are available in the Python driver through the
	  variable('DMA DISTRIBUTED MULTIPOLES')
  and
	  variable('DMA TOTAL MULTIPOLES')
  commands.

    Psi4 stopped on: Tuesday, 28 April 2020 11:26AM
    Psi4 wall time for execution: 0:00:09.89

*** Psi4 exiting successfully. Buy a developer a beer!
