                               Psi4 1.3.2 release

  ==> Input File <==

--------------------------------------------------------------------------
import numpy as np
set {scf_type pk
basis cc-pvdz
d_convergence 10
gdma_switch   0
gdma_limit    0
gdma_origin   [ 0.0,  0.0,  0.0 ]
}
molecule test {
    units Angstrom
    0 1
    --
    0 1
    C               -1.976904322167096    -1.531411289477814     2.016470053550258
    O               -1.395904322167096    -0.778411289477814     0.964470053550258
    H               -1.981904322167096    -0.033411289477814     0.781470053550258
    H               -2.965904322167096    -1.877411289477814     1.711470053550258
    H               -1.348337322167096    -2.405377289477814     2.242500053550258
    H               -2.080378322167096    -0.890306289477814     2.904320053550258
    C                0.729095677832904     0.572588710522186    -1.112529946449741
    C                2.021095677832904    -0.211411289477814    -0.882529946449742
    C                0.934095677832904     2.072588710522186    -1.235529946449742
    H                0.204095677832904     0.190588710522186    -1.989529946449741
    H                0.099095677832904     0.447588710522186    -0.254529946449742
    H                2.756095677832904     0.127588710522186    -1.614529946449741
    H               -0.036904322167096     2.565588710522186    -1.179529946449742
    H                1.532095677832904     2.436588710522186    -0.398529946449742
    H                1.833736677832904    -1.290239289477814    -0.987541946449742
    H                2.415332677832904    -0.017559289477814     0.125933053550258
    H                1.397477677832904     2.356128710522186    -2.192024946449742

}
e, wfn = energy('scf', return_wfn=True)
gdma(wfn)
dmavals = variable('DMA DISTRIBUTED MULTIPOLES')
charges = np.array(dmavals)
print(charges)
np.save('SSI-021THR-148GLN-1-dimer.npy', np.array(charges))--------------------------------------------------------------------------

*** tstart() called on ds3
*** at Mon Apr 27 21:39:42 2020

   => Loading Basis Set <=

    Name: CC-PVDZ
    Role: ORBITAL
    Keyword: BASIS
    atoms 1, 7-9     entry C          line   138 file /theoryfs2/ds/metcalf/miniconda2/envs/tf2gpu/share/psi4/basis/cc-pvdz.gbs
    atoms 2          entry O          line   198 file /theoryfs2/ds/metcalf/miniconda2/envs/tf2gpu/share/psi4/basis/cc-pvdz.gbs
    atoms 3-6, 10-17 entry H          line    22 file /theoryfs2/ds/metcalf/miniconda2/envs/tf2gpu/share/psi4/basis/cc-pvdz.gbs

         ---------------------------------------------------------
                                   SCF
               by Justin Turney, Rob Parrish, Andy Simmonett
                          and Daniel G. A. Smith
                              RHF Reference
                        1 Threads,    500 MiB Core
         ---------------------------------------------------------

  ==> Geometry <==

    Molecular point group: c1
    Full point group: C1

    Geometry (in Angstrom), charge = 0, multiplicity = 1:

       Center              X                  Y                   Z               Mass
    ------------   -----------------  -----------------  -----------------  -----------------
         C           -1.976904322167    -1.531411289478     2.016470053550    12.000000000000
         O           -1.395904322167    -0.778411289478     0.964470053550    15.994914619570
         H           -1.981904322167    -0.033411289478     0.781470053550     1.007825032230
         H           -2.965904322167    -1.877411289478     1.711470053550     1.007825032230
         H           -1.348337322167    -2.405377289478     2.242500053550     1.007825032230
         H           -2.080378322167    -0.890306289478     2.904320053550     1.007825032230
         C            0.729095677833     0.572588710522    -1.112529946450    12.000000000000
         C            2.021095677833    -0.211411289478    -0.882529946450    12.000000000000
         C            0.934095677833     2.072588710522    -1.235529946450    12.000000000000
         H            0.204095677833     0.190588710522    -1.989529946450     1.007825032230
         H            0.099095677833     0.447588710522    -0.254529946450     1.007825032230
         H            2.756095677833     0.127588710522    -1.614529946450     1.007825032230
         H           -0.036904322167     2.565588710522    -1.179529946450     1.007825032230
         H            1.532095677833     2.436588710522    -0.398529946450     1.007825032230
         H            1.833736677833    -1.290239289478    -0.987541946450     1.007825032230
         H            2.415332677833    -0.017559289478     0.125933053550     1.007825032230
         H            1.397477677833     2.356128710522    -2.192024946450     1.007825032230

  Running in c1 symmetry.

  Rotational constants: A =      0.25167  B =      0.04334  C =      0.03868 [cm^-1]
  Rotational constants: A =   7544.97722  B =   1299.41030  C =   1159.66941 [MHz]
  Nuclear repulsion =  179.132044430487838

  Charge       = 0
  Multiplicity = 1
  Electrons    = 44
  Nalpha       = 22
  Nbeta        = 22

  ==> Algorithm <==

  SCF Algorithm Type is PK.
  DIIS enabled.
  MOM disabled.
  Fractional occupation disabled.
  Guess Type is SAD.
  Energy threshold   = 1.00e-06
  Density threshold  = 1.00e-10
  Integral threshold = 0.00e+00

  ==> Primary Basis <==

  Basis Set: CC-PVDZ
    Blend: CC-PVDZ
    Number of shells: 66
    Number of basis function: 130
    Number of Cartesian functions: 135
    Spherical Harmonics?: true
    Max angular momentum: 2

  ==> Pre-Iterations <==

   -------------------------------------------------------
    Irrep   Nso     Nmo     Nalpha   Nbeta   Ndocc  Nsocc
   -------------------------------------------------------
     A        130     130       0       0       0       0
   -------------------------------------------------------
    Total     130     130      22      22      22       0
   -------------------------------------------------------

  ==> Integral Setup <==

  Using integral reordering PK algorithm.
  Sizing the integral batches needed.
  Building batch lookup table.
   Calculation information:
      Number of atoms:                  17
      Number of AO shells:              66
      Number of primitives:            170
      Number of atomic orbitals:       135
      Number of basis functions:       130

      Integral cutoff                 1.00e-12
      Number of threads:                 1

	Batch   1 pq = [       0,    8515] index = [             0,36256870] size =     36256870
  Task number: 4
  Buffer size: 11059200
  Buffer per thread: 2
  We computed 1946413 shell quartets total.
  Whereas there are 2445366 unique shell quartets.

  ==> DiskJK: Disk-Based J/K Matrices <==

    J tasked:                  Yes
    K tasked:                  Yes
    wK tasked:                  No
    Memory [MiB]:              375
    Schwarz Cutoff:          1E-12

    OpenMP threads:              1

  Minimum eigenvalue in the overlap matrix is 5.3166798223E-03.
  Using Symmetric Orthogonalization.

  SCF Guess: Superposition of Atomic Densities via on-the-fly atomic UHF.

  ==> Iterations <==

                        Total Energy        Delta E     RMS |[F,P]|

   @RHF iter SAD:  -232.11747615229470   -2.32117e+02   0.00000e+00
   @RHF iter   1:  -233.13832730183452   -1.02085e+00   4.16597e-03 DIIS
   @RHF iter   2:  -233.28446348144530   -1.46136e-01   1.98522e-03 DIIS
   @RHF iter   3:  -233.31417022825855   -2.97067e-02   3.88412e-04 DIIS
   @RHF iter   4:  -233.31626412682161   -2.09390e-03   1.16419e-04 DIIS
   @RHF iter   5:  -233.31639267508842   -1.28548e-04   2.51995e-05 DIIS
   @RHF iter   6:  -233.31640073946267   -8.06437e-06   5.36037e-06 DIIS
   @RHF iter   7:  -233.31640121994027   -4.80478e-07   1.40151e-06 DIIS
   @RHF iter   8:  -233.31640125090502   -3.09647e-08   4.44721e-07 DIIS
   @RHF iter   9:  -233.31640125493055   -4.02554e-09   9.49968e-08 DIIS
   @RHF iter  10:  -233.31640125515261   -2.22059e-10   1.96310e-08 DIIS
   @RHF iter  11:  -233.31640125516111   -8.49809e-12   4.68736e-09 DIIS
   @RHF iter  12:  -233.31640125516293   -1.81899e-12   1.16193e-09 DIIS
   @RHF iter  13:  -233.31640125516225    6.82121e-13   3.05079e-10 DIIS
   @RHF iter  14:  -233.31640125516267   -4.26326e-13   1.16221e-10 DIIS
   @RHF iter  15:  -233.31640125516225    4.26326e-13   3.90560e-11 DIIS
  Energy and wave function converged.

  ==> Post-Iterations <==

    Orbital Energies [Eh]
    ---------------------

    Doubly Occupied:

       1A    -20.554712     2A    -11.280078     3A    -11.206305
       4A    -11.205198     5A    -11.199453     6A     -1.355205
       7A     -1.042640     8A     -0.922748     9A     -0.914013
      10A     -0.783571    11A     -0.685152    12A     -0.620730
      13A     -0.617089    14A     -0.594151    15A     -0.582529
      16A     -0.537728    17A     -0.522432    18A     -0.500951
      19A     -0.460097    20A     -0.459480    21A     -0.450161
      22A     -0.442002

    Virtual:

      23A      0.172617    24A      0.197443    25A      0.215668
      26A      0.240730    27A      0.244994    28A      0.259675
      29A      0.261908    30A      0.273922    31A      0.277992
      32A      0.299943    33A      0.305939    34A      0.346814
      35A      0.368357    36A      0.388770    37A      0.438832
      38A      0.591226    39A      0.616739    40A      0.625138
      41A      0.631001    42A      0.634185    43A      0.637360
      44A      0.649074    45A      0.739725    46A      0.792061
      47A      0.815486    48A      0.827580    49A      0.856471
      50A      0.863260    51A      0.883701    52A      0.897818
      53A      0.898245    54A      0.902104    55A      0.909662
      56A      0.914733    57A      0.921907    58A      0.928395
      59A      0.941789    60A      0.975271    61A      1.023395
      62A      1.125071    63A      1.133622    64A      1.136781
      65A      1.150165    66A      1.166424    67A      1.216338
      68A      1.319109    69A      1.392062    70A      1.420741
      71A      1.463183    72A      1.472139    73A      1.500972
      74A      1.574321    75A      1.596342    76A      1.654694
      77A      1.661939    78A      1.666295    79A      1.684242
      80A      1.693553    81A      1.726887    82A      1.851223
      83A      1.874768    84A      1.879560    85A      1.881887
      86A      1.891542    87A      1.918596    88A      1.923444
      89A      1.935616    90A      1.955697    91A      1.972518
      92A      1.977836    93A      1.991601    94A      1.996804
      95A      2.015683    96A      2.023207    97A      2.048533
      98A      2.065292    99A      2.144805   100A      2.192965
     101A      2.199226   102A      2.292512   103A      2.301931
     104A      2.307737   105A      2.329414   106A      2.351656
     107A      2.355720   108A      2.369984   109A      2.500988
     110A      2.522424   111A      2.550029   112A      2.587094
     113A      2.640768   114A      2.656174   115A      2.744441
     116A      2.745553   117A      2.763238   118A      2.768571
     119A      2.777956   120A      2.787837   121A      2.839652
     122A      2.932350   123A      2.968627   124A      3.000251
     125A      3.089205   126A      3.300574   127A      3.377655
     128A      3.456953   129A      3.587599   130A      4.092947

    Final Occupation by Irrep:
              A
    DOCC [    22 ]

  @RHF Final Energy:  -233.31640125516225

   => Energetics <=

    Nuclear Repulsion Energy =            179.1320444304878379
    One-Electron Energy =                -671.0240452901805384
    Two-Electron Energy =                 258.5755996045304528
    Total Energy =                       -233.3164012551622477

Computation Completed

Properties will be evaluated at   0.000000,   0.000000,   0.000000 [a0]

Properties computed using the SCF density matrix

  Nuclear Dipole Moment: [e a0]
     X:     1.7037      Y:     1.5054      Z:    -0.7927

  Electronic Dipole Moment: [e a0]
     X:    -2.4591      Y:    -1.4866      Z:     1.2500

  Dipole Moment: [e a0]
     X:    -0.7554      Y:     0.0187      Z:     0.4573     Total:     0.8832

  Dipole Moment: [D]
     X:    -1.9201      Y:     0.0477      Z:     1.1623     Total:     2.2450

*** tstop() called on ds3 at Mon Apr 27 21:39:59 2020
Module time:
	user time   =      11.22 seconds =       0.19 minutes
	system time =       5.61 seconds =       0.09 minutes
	total time  =         17 seconds =       0.28 minutes
Total time:
	user time   =      11.22 seconds =       0.19 minutes
	system time =       5.61 seconds =       0.09 minutes
	total time  =         17 seconds =       0.28 minutes
                                     G D M A

                                 by Anthony Stone

                           version 2.2.06, 22 June 2011

               Distributed Multipoles from Gaussian wavefunctions

Starting at 21:39:59 on 27 Apr 2020

Using SCF density matrix from file ./SSI/SSI-021THR-148GLN-1-dimer.test.20237.fchk

                         Distributed Multipole Analysis

Standard DMA

Positions and radii in angstrom
Multipole moments in atomic units, ea_0^k for rank k

C          x = -1.976904  y = -1.531411  z =  2.016470 angstrom
           Maximum rank =  0   Radius =  0.650 angstrom
                   Q00  =  -0.041116

O          x = -1.395904  y = -0.778411  z =  0.964470 angstrom
           Maximum rank =  0   Radius =  0.650 angstrom
                   Q00  =  -0.572020

H          x = -1.981904  y = -0.033411  z =  0.781470 angstrom
           Maximum rank =  0   Radius =  0.325 angstrom
                   Q00  =   0.375336

H          x = -2.965904  y = -1.877411  z =  1.711470 angstrom
           Maximum rank =  0   Radius =  0.325 angstrom
                   Q00  =   0.066742

H          x = -1.348337  y = -2.405377  z =  2.242500 angstrom
           Maximum rank =  0   Radius =  0.325 angstrom
                   Q00  =   0.119581

H          x = -2.080378  y = -0.890306  z =  2.904320 angstrom
           Maximum rank =  0   Radius =  0.325 angstrom
                   Q00  =   0.066800

C          x =  0.729096  y =  0.572589  z = -1.112530 angstrom
           Maximum rank =  0   Radius =  0.650 angstrom
                   Q00  =  -0.077129

C          x =  2.021096  y = -0.211411  z = -0.882530 angstrom
           Maximum rank =  0   Radius =  0.650 angstrom
                   Q00  =  -0.235432

C          x =  0.934096  y =  2.072589  z = -1.235530 angstrom
           Maximum rank =  0   Radius =  0.650 angstrom
                   Q00  =  -0.240280

H          x =  0.204096  y =  0.190589  z = -1.989530 angstrom
           Maximum rank =  0   Radius =  0.325 angstrom
                   Q00  =   0.040997

H          x =  0.099096  y =  0.447589  z = -0.254530 angstrom
           Maximum rank =  0   Radius =  0.325 angstrom
                   Q00  =   0.053364

H          x =  2.756096  y =  0.127589  z = -1.614530 angstrom
           Maximum rank =  0   Radius =  0.325 angstrom
                   Q00  =   0.065366

H          x = -0.036904  y =  2.565589  z = -1.179530 angstrom
           Maximum rank =  0   Radius =  0.325 angstrom
                   Q00  =   0.070382

H          x =  1.532096  y =  2.436589  z = -0.398530 angstrom
           Maximum rank =  0   Radius =  0.325 angstrom
                   Q00  =   0.073261

H          x =  1.833737  y = -1.290239  z = -0.987542 angstrom
           Maximum rank =  0   Radius =  0.325 angstrom
                   Q00  =   0.085435

H          x =  2.415333  y = -0.017559  z =  0.125933 angstrom
           Maximum rank =  0   Radius =  0.325 angstrom
                   Q00  =   0.075581

H          x =  1.397478  y =  2.356129  z = -2.192025 angstrom
           Maximum rank =  0   Radius =  0.325 angstrom
                   Q00  =   0.073133

Total multipoles referred to origin at
           x =   0.000000,  y =    0.000000,  z =    0.000000 angstrom
                   Q00  =  -0.000000

Finished at 21:39:59 on 27 Apr 2020

  DMA results are available in the Python driver through the
	  variable('DMA DISTRIBUTED MULTIPOLES')
  and
	  variable('DMA TOTAL MULTIPOLES')
  commands.

    Psi4 stopped on: Monday, 27 April 2020 09:39PM
    Psi4 wall time for execution: 0:00:16.96

*** Psi4 exiting successfully. Buy a developer a beer!
