                               Psi4 1.3.2 release

  ==> Input File <==

--------------------------------------------------------------------------
import numpy as np
set {scf_type pk
basis cc-pvdz
d_convergence 10
gdma_switch   0
gdma_limit    0
gdma_origin   [ 0.0,  0.0,  0.0 ]
}
molecule test {
    units Angstrom
    -1 1
    --
    -1 1
    C               -2.800483810442328     0.482159818501890    -2.308970687617610
    C               -0.267483810442328    -1.207840181498109    -0.339970687617610
    C               -1.994483810442328    -0.434840181498110    -1.458970687617610
    C               -2.412483810442328    -1.502840181498110    -0.736970687617610
    N               -0.645483810442328    -0.274840181498110    -1.208970687617610
    N               -1.312483810442328    -1.984840181498110    -0.059970687617610
    H                0.747516189557672    -1.398840181498110    -0.017970687617610
    H               -1.261483810442328    -2.847840181498110     0.473029312382390
    H               -3.418483810442328    -1.903840181498109    -0.716970687617610
    H               -3.662483810442328    -0.066840181498110    -2.691970687617610
    H               -2.200483810442328     0.814159818501890    -3.156970687617610
    H               -3.148523810442328     1.347952318501891    -1.726500687617610
    C                1.251516189557672     1.697159818501891     2.299029312382390
    C                2.261516189557673     1.130159818501891     1.367029312382390
    O                3.075516189557672     1.866159818501891     0.762029312382390
    O                2.239516189557672    -0.099840181498110     1.248029312382390
    H                1.205516189557672     1.083159818501890     3.203029312382390
    H                0.276516189557672     1.652159818501890     1.811029312382390
    H                1.486876189557672     2.731714318501890     2.589379312382390

}
e, wfn = energy('scf', return_wfn=True)
gdma(wfn)
dmavals = variable('DMA DISTRIBUTED MULTIPOLES')
charges = np.array(dmavals)
print(charges)
np.save('SSI-148HIE-152GLU-1-dimer.npy', np.array(charges))--------------------------------------------------------------------------

*** tstart() called on ds3
*** at Mon Apr 27 12:45:36 2020

   => Loading Basis Set <=

    Name: CC-PVDZ
    Role: ORBITAL
    Keyword: BASIS
    atoms 1-4, 13-14  entry C          line   138 file /theoryfs2/ds/metcalf/miniconda2/envs/tf2gpu/share/psi4/basis/cc-pvdz.gbs
    atoms 5-6         entry N          line   168 file /theoryfs2/ds/metcalf/miniconda2/envs/tf2gpu/share/psi4/basis/cc-pvdz.gbs
    atoms 7-12, 17-19 entry H          line    22 file /theoryfs2/ds/metcalf/miniconda2/envs/tf2gpu/share/psi4/basis/cc-pvdz.gbs
    atoms 15-16       entry O          line   198 file /theoryfs2/ds/metcalf/miniconda2/envs/tf2gpu/share/psi4/basis/cc-pvdz.gbs

         ---------------------------------------------------------
                                   SCF
               by Justin Turney, Rob Parrish, Andy Simmonett
                          and Daniel G. A. Smith
                              RHF Reference
                        1 Threads,    500 MiB Core
         ---------------------------------------------------------

  ==> Geometry <==

    Molecular point group: c1
    Full point group: C1

    Geometry (in Angstrom), charge = -1, multiplicity = 1:

       Center              X                  Y                   Z               Mass
    ------------   -----------------  -----------------  -----------------  -----------------
         C           -2.800483810442     0.482159818502    -2.308970687618    12.000000000000
         C           -0.267483810442    -1.207840181498    -0.339970687618    12.000000000000
         C           -1.994483810442    -0.434840181498    -1.458970687618    12.000000000000
         C           -2.412483810442    -1.502840181498    -0.736970687618    12.000000000000
         N           -0.645483810442    -0.274840181498    -1.208970687618    14.003074004430
         N           -1.312483810442    -1.984840181498    -0.059970687618    14.003074004430
         H            0.747516189558    -1.398840181498    -0.017970687618     1.007825032230
         H           -1.261483810442    -2.847840181498     0.473029312382     1.007825032230
         H           -3.418483810442    -1.903840181498    -0.716970687618     1.007825032230
         H           -3.662483810442    -0.066840181498    -2.691970687618     1.007825032230
         H           -2.200483810442     0.814159818502    -3.156970687618     1.007825032230
         H           -3.148523810442     1.347952318502    -1.726500687618     1.007825032230
         C            1.251516189558     1.697159818502     2.299029312382    12.000000000000
         C            2.261516189558     1.130159818502     1.367029312382    12.000000000000
         O            3.075516189558     1.866159818502     0.762029312382    15.994914619570
         O            2.239516189558    -0.099840181498     1.248029312382    15.994914619570
         H            1.205516189558     1.083159818502     3.203029312382     1.007825032230
         H            0.276516189558     1.652159818502     1.811029312382     1.007825032230
         H            1.486876189558     2.731714318502     2.589379312382     1.007825032230

  Running in c1 symmetry.

  Rotational constants: A =      0.08052  B =      0.01736  C =      0.01593 [cm^-1]
  Rotational constants: A =   2414.01440  B =    520.54485  C =    477.60462 [MHz]
  Nuclear repulsion =  482.199469525993152

  Charge       = -1
  Multiplicity = 1
  Electrons    = 76
  Nalpha       = 38
  Nbeta        = 38

  ==> Algorithm <==

  SCF Algorithm Type is PK.
  DIIS enabled.
  MOM disabled.
  Fractional occupation disabled.
  Guess Type is SAD.
  Energy threshold   = 1.00e-06
  Density threshold  = 1.00e-10
  Integral threshold = 0.00e+00

  ==> Primary Basis <==

  Basis Set: CC-PVDZ
    Blend: CC-PVDZ
    Number of shells: 87
    Number of basis function: 185
    Number of Cartesian functions: 195
    Spherical Harmonics?: true
    Max angular momentum: 2

  ==> Pre-Iterations <==

   -------------------------------------------------------
    Irrep   Nso     Nmo     Nalpha   Nbeta   Ndocc  Nsocc
   -------------------------------------------------------
     A        185     185       0       0       0       0
   -------------------------------------------------------
    Total     185     185      38      38      38       0
   -------------------------------------------------------

  ==> Integral Setup <==

  Using integral reordering PK algorithm.
  Sizing the integral batches needed.
  Building batch lookup table.
   Calculation information:
      Number of atoms:                  19
      Number of AO shells:              87
      Number of primitives:            265
      Number of atomic orbitals:       195
      Number of basis functions:       185

      Integral cutoff                 1.00e-12
      Number of threads:                 1

	Batch   1 pq = [       0,    9405] index = [             0,44231715] size =     44231715
	Batch   2 pq = [    9405,   13301] index = [      44231715,88464951] size =     44233236
	Batch   3 pq = [   13301,   16290] index = [      88464951,132690195] size =     44225244
	Batch   4 pq = [   16290,   17205] index = [     132690195,148014615] size =     15324420
  Task number: 14
  Buffer size: 11059200
  Buffer per thread: 2
  We computed 5389328 shell quartets total.
  Whereas there are 7328706 unique shell quartets.

  ==> DiskJK: Disk-Based J/K Matrices <==

    J tasked:                  Yes
    K tasked:                  Yes
    wK tasked:                  No
    Memory [MiB]:              375
    Schwarz Cutoff:          1E-12

    OpenMP threads:              1

  Minimum eigenvalue in the overlap matrix is 1.2500053283E-03.
  Using Symmetric Orthogonalization.

  SCF Guess: Superposition of Atomic Densities via on-the-fly atomic UHF.

  ==> Iterations <==

                        Total Energy        Delta E     RMS |[F,P]|

   @RHF iter SAD:  -489.80208198256486   -4.89802e+02   0.00000e+00
   @RHF iter   1:  -490.79212774064820   -9.90046e-01   4.25773e-03 DIIS
   @RHF iter   2:  -491.03538666950789   -2.43259e-01   2.41261e-03 DIIS
   @RHF iter   3:  -491.11130957460352   -7.59229e-02   4.11967e-04 DIIS
   @RHF iter   4:  -491.11495795475889   -3.64838e-03   1.65710e-04 DIIS
   @RHF iter   5:  -491.11555594918207   -5.97994e-04   3.56516e-05 DIIS
   @RHF iter   6:  -491.11558852917517   -3.25800e-05   1.58693e-05 DIIS
   @RHF iter   7:  -491.11559497007835   -6.44090e-06   3.93822e-06 DIIS
   @RHF iter   8:  -491.11559587783756   -9.07759e-07   1.54904e-06 DIIS
   @RHF iter   9:  -491.11559603273099   -1.54893e-07   6.91269e-07 DIIS
   @RHF iter  10:  -491.11559605487537   -2.21444e-08   1.61482e-07 DIIS
   @RHF iter  11:  -491.11559605652621   -1.65085e-09   5.58663e-08 DIIS
   @RHF iter  12:  -491.11559605664615   -1.19940e-10   2.87125e-08 DIIS
   @RHF iter  13:  -491.11559605667219   -2.60343e-11   7.90110e-09 DIIS
   @RHF iter  14:  -491.11559605667492   -2.72848e-12   3.20080e-09 DIIS
   @RHF iter  15:  -491.11559605667429    6.25278e-13   7.13187e-10 DIIS
   @RHF iter  16:  -491.11559605667446   -1.70530e-13   3.66297e-10 DIIS
   @RHF iter  17:  -491.11559605667156    2.89901e-12   1.37475e-10 DIIS
   @RHF iter  18:  -491.11559605667492   -3.35376e-12   5.85792e-11 DIIS
  Energy and wave function converged.

  ==> Post-Iterations <==

    Orbital Energies [Eh]
    ---------------------

    Doubly Occupied:

       1A    -20.254650     2A    -20.250115     3A    -15.508354
       4A    -15.410211     5A    -11.169320     6A    -11.143489
       7A    -11.136244     8A    -11.134361     9A    -11.106460
      10A    -11.041768    11A     -1.227196    12A     -1.149779
      13A     -1.040390    14A     -1.033103    15A     -0.929035
      16A     -0.840780    17A     -0.795890    18A     -0.704064
      19A     -0.649791    20A     -0.628750    21A     -0.503774
      22A     -0.499050    23A     -0.497229    24A     -0.481911
      25A     -0.457507    26A     -0.441810    27A     -0.423609
      28A     -0.410115    29A     -0.404155    30A     -0.400684
      31A     -0.336500    32A     -0.297795    33A     -0.293309
      34A     -0.266777    35A     -0.201111    36A     -0.180045
      37A     -0.166774    38A     -0.156685

    Virtual:

      39A      0.274671    40A      0.284992    41A      0.295474
      42A      0.324326    43A      0.333561    44A      0.360790
      45A      0.362836    46A      0.391152    47A      0.400916
      48A      0.420573    49A      0.428129    50A      0.474099
      51A      0.494098    52A      0.510470    53A      0.533019
      54A      0.580496    55A      0.590196    56A      0.593751
      57A      0.699036    58A      0.711901    59A      0.724158
      60A      0.733834    61A      0.741371    62A      0.762874
      63A      0.809553    64A      0.820421    65A      0.833764
      66A      0.847470    67A      0.869792    68A      0.885099
      69A      0.895719    70A      0.912993    71A      0.938569
      72A      0.947597    73A      0.966474    74A      0.983650
      75A      0.990288    76A      1.001078    77A      1.011065
      78A      1.032721    79A      1.044178    80A      1.046579
      81A      1.056212    82A      1.079401    83A      1.083536
      84A      1.102200    85A      1.127809    86A      1.162231
      87A      1.175720    88A      1.178680    89A      1.214160
      90A      1.226247    91A      1.264518    92A      1.267927
      93A      1.289533    94A      1.346462    95A      1.352044
      96A      1.357679    97A      1.380649    98A      1.407201
      99A      1.422665   100A      1.433753   101A      1.453847
     102A      1.519412   103A      1.558314   104A      1.572202
     105A      1.578185   106A      1.598332   107A      1.599693
     108A      1.618485   109A      1.623331   110A      1.668991
     111A      1.702722   112A      1.716323   113A      1.723362
     114A      1.744839   115A      1.759140   116A      1.780226
     117A      1.810219   118A      1.846389   119A      1.875588
     120A      1.900709   121A      1.926950   122A      1.936111
     123A      1.968189   124A      1.988210   125A      2.022030
     126A      2.047268   127A      2.054264   128A      2.068121
     129A      2.073327   130A      2.082257   131A      2.104488
     132A      2.136872   133A      2.141561   134A      2.151733
     135A      2.172007   136A      2.212720   137A      2.219917
     138A      2.248869   139A      2.277334   140A      2.304951
     141A      2.321637   142A      2.358553   143A      2.373335
     144A      2.392802   145A      2.428956   146A      2.441329
     147A      2.452496   148A      2.475382   149A      2.547376
     150A      2.566811   151A      2.594018   152A      2.601518
     153A      2.657077   154A      2.685137   155A      2.719098
     156A      2.738045   157A      2.791871   158A      2.809524
     159A      2.826255   160A      2.852354   161A      2.884533
     162A      2.896991   163A      2.922317   164A      2.934870
     165A      2.958968   166A      2.975475   167A      2.998817
     168A      3.005285   169A      3.044331   170A      3.086587
     171A      3.169101   172A      3.246212   173A      3.268750
     174A      3.282240   175A      3.304430   176A      3.353467
     177A      3.377819   178A      3.578521   179A      3.648853
     180A      3.817647   181A      3.851129   182A      3.896861
     183A      4.072002   184A      4.121900   185A      4.215560

    Final Occupation by Irrep:
              A
    DOCC [    38 ]

  @RHF Final Energy:  -491.11559605667492

   => Energetics <=

    Nuclear Repulsion Energy =            482.1994695259931518
    One-Electron Energy =               -1639.4849479184970278
    Two-Electron Energy =                 666.1698823358289019
    Total Energy =                       -491.1155960566749172

Computation Completed

Properties will be evaluated at   0.000000,   0.000000,   0.000000 [a0]

Properties computed using the SCF density matrix

  Nuclear Dipole Moment: [e a0]
     X:    -9.3201      Y:     1.3386      Z:    -0.2059

  Electronic Dipole Moment: [e a0]
     X:     4.4308      Y:    -3.8588      Z:    -0.5995

  Dipole Moment: [e a0]
     X:    -4.8892      Y:    -2.5203      Z:    -0.8054     Total:     5.5592

  Dipole Moment: [D]
     X:   -12.4272      Y:    -6.4059      Z:    -2.0472     Total:    14.1302

*** tstop() called on ds3 at Mon Apr 27 12:47:19 2020
Module time:
	user time   =      49.40 seconds =       0.82 minutes
	system time =      31.16 seconds =       0.52 minutes
	total time  =        103 seconds =       1.72 minutes
Total time:
	user time   =      49.40 seconds =       0.82 minutes
	system time =      31.16 seconds =       0.52 minutes
	total time  =        103 seconds =       1.72 minutes
                                     G D M A

                                 by Anthony Stone

                           version 2.2.06, 22 June 2011

               Distributed Multipoles from Gaussian wavefunctions

Starting at 12:47:19 on 27 Apr 2020

Using SCF density matrix from file ./SSI/SSI-148HIE-152GLU-1-dimer.test.3992.fchk

                         Distributed Multipole Analysis

Standard DMA

Positions and radii in angstrom
Multipole moments in atomic units, ea_0^k for rank k

C          x = -2.800484  y =  0.482160  z = -2.308971 angstrom
           Maximum rank =  0   Radius =  0.650 angstrom
                   Q00  =  -0.194104

C          x = -0.267484  y = -1.207840  z = -0.339971 angstrom
           Maximum rank =  0   Radius =  0.650 angstrom
                   Q00  =   0.484073

C          x = -1.994484  y = -0.434840  z = -1.458971 angstrom
           Maximum rank =  0   Radius =  0.650 angstrom
                   Q00  =   0.260841

C          x = -2.412484  y = -1.502840  z = -0.736971 angstrom
           Maximum rank =  0   Radius =  0.650 angstrom
                   Q00  =  -0.030204

N          x = -0.645484  y = -0.274840  z = -1.208971 angstrom
           Maximum rank =  0   Radius =  0.650 angstrom
                   Q00  =  -0.788625

N          x = -1.312484  y = -1.984840  z = -0.059971 angstrom
           Maximum rank =  0   Radius =  0.650 angstrom
                   Q00  =  -0.459612

H          x =  0.747516  y = -1.398840  z = -0.017971 angstrom
           Maximum rank =  0   Radius =  0.325 angstrom
                   Q00  =   0.150683

H          x = -1.261484  y = -2.847840  z =  0.473029 angstrom
           Maximum rank =  0   Radius =  0.325 angstrom
                   Q00  =   0.205741

H          x = -3.418484  y = -1.903840  z = -0.716971 angstrom
           Maximum rank =  0   Radius =  0.325 angstrom
                   Q00  =   0.074135

H          x = -3.662484  y = -0.066840  z = -2.691971 angstrom
           Maximum rank =  0   Radius =  0.325 angstrom
                   Q00  =   0.071923

H          x = -2.200484  y =  0.814160  z = -3.156971 angstrom
           Maximum rank =  0   Radius =  0.325 angstrom
                   Q00  =   0.110089

H          x = -3.148524  y =  1.347952  z = -1.726501 angstrom
           Maximum rank =  0   Radius =  0.325 angstrom
                   Q00  =   0.098010

C          x =  1.251516  y =  1.697160  z =  2.299029 angstrom
           Maximum rank =  0   Radius =  0.650 angstrom
                   Q00  =  -0.274351

C          x =  2.261516  y =  1.130160  z =  1.367029 angstrom
           Maximum rank =  0   Radius =  0.650 angstrom
                   Q00  =   0.995462

O          x =  3.075516  y =  1.866160  z =  0.762029 angstrom
           Maximum rank =  0   Radius =  0.650 angstrom
                   Q00  =  -0.940403

O          x =  2.239516  y = -0.099840  z =  1.248029 angstrom
           Maximum rank =  0   Radius =  0.650 angstrom
                   Q00  =  -0.944599

H          x =  1.205516  y =  1.083160  z =  3.203029 angstrom
           Maximum rank =  0   Radius =  0.325 angstrom
                   Q00  =   0.052674

H          x =  0.276516  y =  1.652160  z =  1.811029 angstrom
           Maximum rank =  0   Radius =  0.325 angstrom
                   Q00  =   0.086496

H          x =  1.486876  y =  2.731714  z =  2.589379 angstrom
           Maximum rank =  0   Radius =  0.325 angstrom
                   Q00  =   0.041770

Total multipoles referred to origin at
           x =   0.000000,  y =    0.000000,  z =    0.000000 angstrom
                   Q00  =  -1.000000

Finished at 12:47:19 on 27 Apr 2020

  DMA results are available in the Python driver through the
	  variable('DMA DISTRIBUTED MULTIPOLES')
  and
	  variable('DMA TOTAL MULTIPOLES')
  commands.

    Psi4 stopped on: Monday, 27 April 2020 12:47PM
    Psi4 wall time for execution: 0:01:42.71

*** Psi4 exiting successfully. Buy a developer a beer!
