                               Psi4 1.3.2 release

  ==> Input File <==

--------------------------------------------------------------------------
import numpy as np
set {scf_type pk
basis cc-pvdz
d_convergence 10
gdma_switch   0
gdma_limit    0
gdma_origin   [ 0.0,  0.0,  0.0 ]
}
molecule test {
    units Angstrom
    0 1
    --
    0 1
    C               -0.790592121183694    -2.979871089051396     0.658687487173622
    C                0.160407878816305    -3.771871089051396     1.555687487173621
    C               -1.845592121183694    -2.216871089051396     1.442687487173621
    H               -0.224592121183695    -2.281871089051396     0.040687487173622
    H               -1.295592121183694    -3.691871089051396     0.003687487173622
    H               -0.449592121183695    -4.438871089051395     2.166687487173622
    H               -2.395592121183695    -2.911871089051396     2.079687487173622
    H               -1.357592121183695    -1.486871089051396     2.089687487173622
    H                0.748597878816305    -3.090181089051396     2.187607487173621
    H                0.834167878816305    -4.391061089051396     0.945227487173622
    H               -2.568142121183695    -1.704091089051396     0.790787487173622
    C               -1.351592121183694     2.988128910948604    -2.171312512826378
    C                0.873407878816305     0.060128910948604    -1.052312512826378
    C                1.121407878816305     0.382128910948604     0.276687487173622
    C                0.064407878816305     0.896128910948604    -1.838312512826378
    C               -0.492592121183695     2.071128910948604    -1.312312512826378
    C                0.584407878816305     1.555128910948604     0.814687487173622
    C               -0.228592121183695     2.383128910948604     0.029687487173622
    O                1.917407878816306    -0.434871089051396     1.018687487173622
    H                1.319407878816306    -0.830871089051396    -1.466312512826378
    H               -0.119592121183695     0.632128910948604    -2.871312512826379
    H                0.784407878816305     1.812128910948604     1.845687487173622
    H                2.414407878816305     0.095128910948604     1.681687487173622
    H               -1.915592121183694     3.658128910948604    -1.519312512826378
    H               -2.083592121183695     2.375128910948604    -2.699312512826378
    H               -0.644592121183695     3.283128910948604     0.464687487173622
    H               -0.795602121183695     3.593428910948604    -2.902393512826378

}
e, wfn = energy('scf', return_wfn=True)
gdma(wfn)
dmavals = variable('DMA DISTRIBUTED MULTIPOLES')
charges = np.array(dmavals)
print(charges)
np.save('SSI-021GLN-057TYR-1-dimer.npy', np.array(charges))--------------------------------------------------------------------------

*** tstart() called on ds3
*** at Mon Apr 27 08:07:22 2020

   => Loading Basis Set <=

    Name: CC-PVDZ
    Role: ORBITAL
    Keyword: BASIS
    atoms 1-3, 12-18  entry C          line   138 file /theoryfs2/ds/metcalf/miniconda2/envs/tf2gpu/share/psi4/basis/cc-pvdz.gbs
    atoms 4-11, 20-27 entry H          line    22 file /theoryfs2/ds/metcalf/miniconda2/envs/tf2gpu/share/psi4/basis/cc-pvdz.gbs
    atoms 19          entry O          line   198 file /theoryfs2/ds/metcalf/miniconda2/envs/tf2gpu/share/psi4/basis/cc-pvdz.gbs

         ---------------------------------------------------------
                                   SCF
               by Justin Turney, Rob Parrish, Andy Simmonett
                          and Daniel G. A. Smith
                              RHF Reference
                        1 Threads,    500 MiB Core
         ---------------------------------------------------------

  ==> Geometry <==

    Molecular point group: c1
    Full point group: C1

    Geometry (in Angstrom), charge = 0, multiplicity = 1:

       Center              X                  Y                   Z               Mass
    ------------   -----------------  -----------------  -----------------  -----------------
         C           -0.790592121184    -2.979871089051     0.658687487174    12.000000000000
         C            0.160407878816    -3.771871089051     1.555687487174    12.000000000000
         C           -1.845592121184    -2.216871089051     1.442687487174    12.000000000000
         H           -0.224592121184    -2.281871089051     0.040687487174     1.007825032230
         H           -1.295592121184    -3.691871089051     0.003687487174     1.007825032230
         H           -0.449592121184    -4.438871089051     2.166687487174     1.007825032230
         H           -2.395592121184    -2.911871089051     2.079687487174     1.007825032230
         H           -1.357592121184    -1.486871089051     2.089687487174     1.007825032230
         H            0.748597878816    -3.090181089051     2.187607487174     1.007825032230
         H            0.834167878816    -4.391061089051     0.945227487174     1.007825032230
         H           -2.568142121184    -1.704091089051     0.790787487174     1.007825032230
         C           -1.351592121184     2.988128910949    -2.171312512826    12.000000000000
         C            0.873407878816     0.060128910949    -1.052312512826    12.000000000000
         C            1.121407878816     0.382128910949     0.276687487174    12.000000000000
         C            0.064407878816     0.896128910949    -1.838312512826    12.000000000000
         C           -0.492592121184     2.071128910949    -1.312312512826    12.000000000000
         C            0.584407878816     1.555128910949     0.814687487174    12.000000000000
         C           -0.228592121184     2.383128910949     0.029687487174    12.000000000000
         O            1.917407878816    -0.434871089051     1.018687487174    15.994914619570
         H            1.319407878816    -0.830871089051    -1.466312512826     1.007825032230
         H           -0.119592121184     0.632128910949    -2.871312512826     1.007825032230
         H            0.784407878816     1.812128910949     1.845687487174     1.007825032230
         H            2.414407878816     0.095128910949     1.681687487174     1.007825032230
         H           -1.915592121184     3.658128910949    -1.519312512826     1.007825032230
         H           -2.083592121184     2.375128910949    -2.699312512826     1.007825032230
         H           -0.644592121184     3.283128910949     0.464687487174     1.007825032230
         H           -0.795602121184     3.593428910949    -2.902393512826     1.007825032230

  Running in c1 symmetry.

  Rotational constants: A =      0.05308  B =      0.01704  C =      0.01535 [cm^-1]
  Rotational constants: A =   1591.34204  B =    510.87311  C =    460.12540 [MHz]
  Nuclear repulsion =  584.882863600847259

  Charge       = 0
  Multiplicity = 1
  Electrons    = 84
  Nalpha       = 42
  Nbeta        = 42

  ==> Algorithm <==

  SCF Algorithm Type is PK.
  DIIS enabled.
  MOM disabled.
  Fractional occupation disabled.
  Guess Type is SAD.
  Energy threshold   = 1.00e-06
  Density threshold  = 1.00e-10
  Integral threshold = 0.00e+00

  ==> Primary Basis <==

  Basis Set: CC-PVDZ
    Blend: CC-PVDZ
    Number of shells: 114
    Number of basis function: 234
    Number of Cartesian functions: 245
    Spherical Harmonics?: true
    Max angular momentum: 2

  ==> Pre-Iterations <==

   -------------------------------------------------------
    Irrep   Nso     Nmo     Nalpha   Nbeta   Ndocc  Nsocc
   -------------------------------------------------------
     A        234     234       0       0       0       0
   -------------------------------------------------------
    Total     234     234      42      42      42       0
   -------------------------------------------------------

  ==> Integral Setup <==

  Using integral reordering PK algorithm.
  Sizing the integral batches needed.
  Building batch lookup table.
   Calculation information:
      Number of atoms:                  27
      Number of AO shells:             114
      Number of primitives:            322
      Number of atomic orbitals:       245
      Number of basis functions:       234

      Integral cutoff                 1.00e-12
      Number of threads:                 1

	Batch   1 pq = [       0,    9405] index = [             0,44231715] size =     44231715
	Batch   2 pq = [    9405,   13301] index = [      44231715,88464951] size =     44233236
	Batch   3 pq = [   13301,   16290] index = [      88464951,132690195] size =     44225244
	Batch   4 pq = [   16290,   18810] index = [     132690195,176917455] size =     44227260
	Batch   5 pq = [   18810,   21030] index = [     176917455,221140965] size =     44223510
	Batch   6 pq = [   21030,   23037] index = [     221140965,265363203] size =     44222238
	Batch   7 pq = [   23037,   24883] index = [     265363203,309594286] size =     44231083
	Batch   8 pq = [   24883,   26601] index = [     309594286,353819901] size =     44225615
	Batch   9 pq = [   26601,   27495] index = [     353819901,378001260] size =     24181359
  Task number: 35
  Buffer size: 11059200
  Buffer per thread: 2
  We computed 20037953 shell quartets total.
  Whereas there are 21487290 unique shell quartets.

  ==> DiskJK: Disk-Based J/K Matrices <==

    J tasked:                  Yes
    K tasked:                  Yes
    wK tasked:                  No
    Memory [MiB]:              375
    Schwarz Cutoff:          1E-12

    OpenMP threads:              1

  Minimum eigenvalue in the overlap matrix is 3.3004452577E-04.
  Using Symmetric Orthogonalization.

  SCF Guess: Superposition of Atomic Densities via on-the-fly atomic UHF.

  ==> Iterations <==

                        Total Energy        Delta E     RMS |[F,P]|

   @RHF iter SAD:  -461.58816509418284   -4.61588e+02   0.00000e+00
   @RHF iter   1:  -462.60581159886920   -1.01765e+00   2.81526e-03 DIIS
   @RHF iter   2:  -462.84856549336189   -2.42754e-01   1.20604e-03 DIIS
   @RHF iter   3:  -462.88862065762987   -4.00552e-02   2.64395e-04 DIIS
   @RHF iter   4:  -462.89187486608984   -3.25421e-03   9.69532e-05 DIIS
   @RHF iter   5:  -462.89217052661269   -2.95661e-04   2.06594e-05 DIIS
   @RHF iter   6:  -462.89218971435781   -1.91877e-05   6.56265e-06 DIIS
   @RHF iter   7:  -462.89219166467353   -1.95032e-06   1.80828e-06 DIIS
   @RHF iter   8:  -462.89219187583740   -2.11164e-07   7.03255e-07 DIIS
   @RHF iter   9:  -462.89219190407533   -2.82379e-08   2.27048e-07 DIIS
   @RHF iter  10:  -462.89219190792483   -3.84949e-09   7.27353e-08 DIIS
   @RHF iter  11:  -462.89219190863366   -7.08837e-10   3.38037e-08 DIIS
   @RHF iter  12:  -462.89219190879453   -1.60867e-10   1.66300e-08 DIIS
   @RHF iter  13:  -462.89219190884683   -5.22959e-11   7.46982e-09 DIIS
   @RHF iter  14:  -462.89219190885387   -7.04858e-12   1.92234e-09 DIIS
   @RHF iter  15:  -462.89219190885274    1.13687e-12   5.89604e-10 DIIS
   @RHF iter  16:  -462.89219190885603   -3.29692e-12   2.04134e-10 DIIS
   @RHF iter  17:  -462.89219190885376    2.27374e-12   8.75070e-11 DIIS
  Energy and wave function converged.

  ==> Post-Iterations <==

    Orbital Energies [Eh]
    ---------------------

    Doubly Occupied:

       1A    -20.586986     2A    -11.298468     3A    -11.242386
       4A    -11.241404     5A    -11.239452     6A    -11.236308
       7A    -11.232696     8A    -11.231521     9A    -11.205936
      10A    -11.205328    11A    -11.204315    12A     -1.398995
      13A     -1.146814    14A     -1.042801    15A     -1.034982
      16A     -1.015124    17A     -0.926444    18A     -0.911986
      19A     -0.843162    20A     -0.800433    21A     -0.783193
      22A     -0.728815    23A     -0.666028    24A     -0.643294
      25A     -0.620769    26A     -0.611117    27A     -0.587518
      28A     -0.585446    29A     -0.583572    30A     -0.571211
      31A     -0.561215    32A     -0.533942    33A     -0.522741
      34A     -0.519671    35A     -0.498594    36A     -0.484650
      37A     -0.467498    38A     -0.462423    39A     -0.456052
      40A     -0.454105    41A     -0.336556    42A     -0.306121

    Virtual:

      43A      0.125219    44A      0.150205    45A      0.171615
      46A      0.186156    47A      0.199705    48A      0.214192
      49A      0.218126    50A      0.238798    51A      0.250512
      52A      0.252108    53A      0.257380    54A      0.267774
      55A      0.277053    56A      0.283776    57A      0.290045
      58A      0.306299    59A      0.320096    60A      0.330681
      61A      0.365740    62A      0.374779    63A      0.383957
      64A      0.433742    65A      0.443591    66A      0.452738
      67A      0.475654    68A      0.491940    69A      0.513610
      70A      0.584468    71A      0.597212    72A      0.609176
      73A      0.618338    74A      0.626797    75A      0.630905
      76A      0.638558    77A      0.655551    78A      0.679625
      79A      0.681908    80A      0.699336    81A      0.728682
      82A      0.732646    83A      0.735094    84A      0.752315
      85A      0.761985    86A      0.778412    87A      0.790297
      88A      0.799878    89A      0.817227    90A      0.823226
      91A      0.830810    92A      0.844847    93A      0.861002
      94A      0.866739    95A      0.878316    96A      0.879019
      97A      0.886250    98A      0.894217    99A      0.898692
     100A      0.901969   101A      0.911574   102A      0.917797
     103A      0.919172   104A      0.923783   105A      0.938484
     106A      0.939850   107A      0.948937   108A      0.958844
     109A      0.978867   110A      0.988468   111A      1.000539
     112A      1.017396   113A      1.037442   114A      1.088301
     115A      1.119954   116A      1.130412   117A      1.140041
     118A      1.142515   119A      1.155386   120A      1.162885
     121A      1.200473   122A      1.225741   123A      1.245403
     124A      1.249618   125A      1.267336   126A      1.287157
     127A      1.299782   128A      1.305877   129A      1.320557
     130A      1.352848   131A      1.372240   132A      1.386546
     133A      1.391020   134A      1.464568   135A      1.486256
     136A      1.493806   137A      1.519645   138A      1.530553
     139A      1.536341   140A      1.548258   141A      1.617367
     142A      1.627316   143A      1.645245   144A      1.683372
     145A      1.686285   146A      1.697672   147A      1.704459
     148A      1.710885   149A      1.727707   150A      1.745799
     151A      1.776563   152A      1.798581   153A      1.800211
     154A      1.852069   155A      1.874592   156A      1.883926
     157A      1.887905   158A      1.893439   159A      1.895149
     160A      1.904663   161A      1.912009   162A      1.924611
     163A      1.929876   164A      1.942065   165A      1.944784
     166A      1.952513   167A      1.963439   168A      1.970439
     169A      1.975591   170A      1.988073   171A      1.997006
     172A      2.004963   173A      2.018905   174A      2.024363
     175A      2.030989   176A      2.041454   177A      2.044249
     178A      2.051712   179A      2.063931   180A      2.074776
     181A      2.127665   182A      2.133793   183A      2.140242
     184A      2.157561   185A      2.178699   186A      2.199296
     187A      2.210998   188A      2.253027   189A      2.266285
     190A      2.301048   191A      2.305358   192A      2.313415
     193A      2.325025   194A      2.334892   195A      2.347307
     196A      2.363521   197A      2.405315   198A      2.422251
     199A      2.466136   200A      2.499119   201A      2.512843
     202A      2.517243   203A      2.548231   204A      2.575561
     205A      2.586121   206A      2.598200   207A      2.611415
     208A      2.634162   209A      2.643454   210A      2.734428
     211A      2.763099   212A      2.768214   213A      2.776605
     214A      2.780291   215A      2.802101   216A      2.804033
     217A      2.820858   218A      2.841100   219A      2.886645
     220A      2.935019   221A      2.960059   222A      2.973641
     223A      2.989332   224A      3.006717   225A      3.063315
     226A      3.090061   227A      3.102354   228A      3.267985
     229A      3.282483   230A      3.359675   231A      3.571499
     232A      3.669903   233A      3.937742   234A      4.127466

    Final Occupation by Irrep:
              A
    DOCC [    42 ]

  @RHF Final Energy:  -462.89219190885376

   => Energetics <=

    Nuclear Repulsion Energy =            584.8828636008472586
    One-Electron Energy =               -1787.4899744335443756
    Two-Electron Energy =                 739.7149189238433564
    Total Energy =                       -462.8921919088537607

Computation Completed

Properties will be evaluated at   0.000000,   0.000000,   0.000000 [a0]

Properties computed using the SCF density matrix

  Nuclear Dipole Moment: [e a0]
     X:    -7.2553      Y:    -8.7940      Z:     2.6649

  Electronic Dipole Moment: [e a0]
     X:     7.3911      Y:     9.4820      Z:    -2.5864

  Dipole Moment: [e a0]
     X:     0.1358      Y:     0.6880      Z:     0.0785     Total:     0.7056

  Dipole Moment: [D]
     X:     0.3451      Y:     1.7486      Z:     0.1995     Total:     1.7935

*** tstop() called on ds3 at Mon Apr 27 08:13:42 2020
Module time:
	user time   =     147.65 seconds =       2.46 minutes
	system time =      52.34 seconds =       0.87 minutes
	total time  =        380 seconds =       6.33 minutes
Total time:
	user time   =     147.65 seconds =       2.46 minutes
	system time =      52.34 seconds =       0.87 minutes
	total time  =        380 seconds =       6.33 minutes
                                     G D M A

                                 by Anthony Stone

                           version 2.2.06, 22 June 2011

               Distributed Multipoles from Gaussian wavefunctions

Starting at 8:13:42 on 27 Apr 2020

Using SCF density matrix from file ./SSI/SSI-021GLN-057TYR-1-dimer.test.650.fchk

                         Distributed Multipole Analysis

Standard DMA

Positions and radii in angstrom
Multipole moments in atomic units, ea_0^k for rank k

C          x = -0.790592  y = -2.979871  z =  0.658687 angstrom
           Maximum rank =  0   Radius =  0.650 angstrom
                   Q00  =  -0.077063

C          x =  0.160408  y = -3.771871  z =  1.555687 angstrom
           Maximum rank =  0   Radius =  0.650 angstrom
                   Q00  =  -0.236005

C          x = -1.845592  y = -2.216871  z =  1.442687 angstrom
           Maximum rank =  0   Radius =  0.650 angstrom
                   Q00  =  -0.242886

H          x = -0.224592  y = -2.281871  z =  0.040687 angstrom
           Maximum rank =  0   Radius =  0.325 angstrom
                   Q00  =   0.060734

H          x = -1.295592  y = -3.691871  z =  0.003687 angstrom
           Maximum rank =  0   Radius =  0.325 angstrom
                   Q00  =   0.035066

H          x = -0.449592  y = -4.438871  z =  2.166687 angstrom
           Maximum rank =  0   Radius =  0.325 angstrom
                   Q00  =   0.067687

H          x = -2.395592  y = -2.911871  z =  2.079687 angstrom
           Maximum rank =  0   Radius =  0.325 angstrom
                   Q00  =   0.067348

H          x = -1.357592  y = -1.486871  z =  2.089687 angstrom
           Maximum rank =  0   Radius =  0.325 angstrom
                   Q00  =   0.075716

H          x =  0.748598  y = -3.090181  z =  2.187607 angstrom
           Maximum rank =  0   Radius =  0.325 angstrom
                   Q00  =   0.080565

H          x =  0.834168  y = -4.391061  z =  0.945227 angstrom
           Maximum rank =  0   Radius =  0.325 angstrom
                   Q00  =   0.080642

H          x = -2.568142  y = -1.704091  z =  0.790787 angstrom
           Maximum rank =  0   Radius =  0.325 angstrom
                   Q00  =   0.084296

C          x = -1.351592  y =  2.988129  z = -2.171313 angstrom
           Maximum rank =  0   Radius =  0.650 angstrom
                   Q00  =  -0.207203

C          x =  0.873408  y =  0.060129  z = -1.052313 angstrom
           Maximum rank =  0   Radius =  0.650 angstrom
                   Q00  =  -0.116892

C          x =  1.121408  y =  0.382129  z =  0.276687 angstrom
           Maximum rank =  0   Radius =  0.650 angstrom
                   Q00  =   0.289953

C          x =  0.064408  y =  0.896129  z = -1.838313 angstrom
           Maximum rank =  0   Radius =  0.650 angstrom
                   Q00  =   0.039436

C          x = -0.492592  y =  2.071129  z = -1.312313 angstrom
           Maximum rank =  0   Radius =  0.650 angstrom
                   Q00  =  -0.127866

C          x =  0.584408  y =  1.555129  z =  0.814687 angstrom
           Maximum rank =  0   Radius =  0.650 angstrom
                   Q00  =  -0.159134

C          x = -0.228592  y =  2.383129  z =  0.029687 angstrom
           Maximum rank =  0   Radius =  0.650 angstrom
                   Q00  =  -0.061495

O          x =  1.917408  y = -0.434871  z =  1.018687 angstrom
           Maximum rank =  0   Radius =  0.650 angstrom
                   Q00  =  -0.657036

H          x =  1.319408  y = -0.830871  z = -1.466313 angstrom
           Maximum rank =  0   Radius =  0.325 angstrom
                   Q00  =   0.084313

H          x = -0.119592  y =  0.632129  z = -2.871313 angstrom
           Maximum rank =  0   Radius =  0.325 angstrom
                   Q00  =   0.064755

H          x =  0.784408  y =  1.812129  z =  1.845687 angstrom
           Maximum rank =  0   Radius =  0.325 angstrom
                   Q00  =   0.073715

H          x =  2.414408  y =  0.095129  z =  1.681687 angstrom
           Maximum rank =  0   Radius =  0.325 angstrom
                   Q00  =   0.412159

H          x = -1.915592  y =  3.658129  z = -1.519313 angstrom
           Maximum rank =  0   Radius =  0.325 angstrom
                   Q00  =   0.096960

H          x = -2.083592  y =  2.375129  z = -2.699313 angstrom
           Maximum rank =  0   Radius =  0.325 angstrom
                   Q00  =   0.098757

H          x = -0.644592  y =  3.283129  z =  0.464687 angstrom
           Maximum rank =  0   Radius =  0.325 angstrom
                   Q00  =   0.070817

H          x = -0.795602  y =  3.593429  z = -2.902394 angstrom
           Maximum rank =  0   Radius =  0.325 angstrom
                   Q00  =   0.102663

Total multipoles referred to origin at
           x =   0.000000,  y =    0.000000,  z =    0.000000 angstrom
                   Q00  =  -0.000000

Finished at 8:13:42 on 27 Apr 2020

  DMA results are available in the Python driver through the
	  variable('DMA DISTRIBUTED MULTIPOLES')
  and
	  variable('DMA TOTAL MULTIPOLES')
  commands.

    Psi4 stopped on: Monday, 27 April 2020 08:13AM
    Psi4 wall time for execution: 0:06:20.16

*** Psi4 exiting successfully. Buy a developer a beer!
