                               Psi4 1.3.2 release

  ==> Input File <==

--------------------------------------------------------------------------
import numpy as np
set {scf_type pk
basis cc-pvdz
d_convergence 10
gdma_switch   0
gdma_limit    0
gdma_origin   [ 0.0,  0.0,  0.0 ]
}
molecule test {
    units Angstrom
    0 1
    --
    0 1
    C                0.930862590024825    -2.103849570362882     3.331935148123226
    C               -0.597137409975175    -0.350849570362882    -0.297064851876774
    C                0.753862590024825    -0.219849570362882     0.022935148123227
    C               -1.453137409975175    -1.039849570362882     0.556935148123227
    C                1.243862590024825    -0.785849570362882     1.200935148123226
    C               -0.954137409975175    -1.603849570362882     1.732935148123226
    C                0.396862590024825    -1.483849570362882     2.064935148123227
    O               -1.087137409975175     0.192150429637118    -1.446064851876774
    H               -0.375137409975175     0.554150429637118    -1.983064851876774
    H                1.417862590024825     0.320150429637118    -0.634064851876773
    H               -2.500137409975175    -1.138849570362882     0.301935148123226
    H                2.293862590024824    -0.679849570362882     1.445935148123227
    H               -1.625137409975175    -2.143849570362882     2.390935148123226
    H                1.897862590024825    -2.558849570362882     3.116935148123226
    H                0.257862590024825    -2.902849570362882     3.649935148123226
    H                1.049072590024825    -1.383029570362882     4.154395148123227
    C                0.525862590024825     2.521150429637118    -3.005064851876774
    C                0.211862590024825     4.000150429637118    -3.164064851876774
    H               -0.403137409975175     1.968150429637118    -2.942064851876774
    H                1.067862590024825     2.180150429637118    -3.888064851876774
    H                1.147862590024825     2.351150429637118    -2.128064851876774
    H                1.028862590024825     4.471150429637118    -3.711064851876774
    H                0.106962590024825     4.496110429637118    -2.187834851876774
    H               -0.717377409975175     4.117070429637118    -3.740994851876774

}
e, wfn = energy('scf', return_wfn=True)
gdma(wfn)
dmavals = variable('DMA DISTRIBUTED MULTIPOLES')
charges = np.array(dmavals)
print(charges)
np.save('SSI-094TYR-097THR-1-dimer.npy', np.array(charges))--------------------------------------------------------------------------

*** tstart() called on ds3
*** at Tue Apr 28 13:33:11 2020

   => Loading Basis Set <=

    Name: CC-PVDZ
    Role: ORBITAL
    Keyword: BASIS
    atoms 1-7, 17-18  entry C          line   138 file /theoryfs2/ds/metcalf/miniconda2/envs/tf2gpu/share/psi4/basis/cc-pvdz.gbs
    atoms 8           entry O          line   198 file /theoryfs2/ds/metcalf/miniconda2/envs/tf2gpu/share/psi4/basis/cc-pvdz.gbs
    atoms 9-16, 19-24 entry H          line    22 file /theoryfs2/ds/metcalf/miniconda2/envs/tf2gpu/share/psi4/basis/cc-pvdz.gbs

         ---------------------------------------------------------
                                   SCF
               by Justin Turney, Rob Parrish, Andy Simmonett
                          and Daniel G. A. Smith
                              RHF Reference
                        1 Threads,    500 MiB Core
         ---------------------------------------------------------

  ==> Geometry <==

    Molecular point group: c1
    Full point group: C1

    Geometry (in Angstrom), charge = 0, multiplicity = 1:

       Center              X                  Y                   Z               Mass
    ------------   -----------------  -----------------  -----------------  -----------------
         C            0.930862590025    -2.103849570363     3.331935148123    12.000000000000
         C           -0.597137409975    -0.350849570363    -0.297064851877    12.000000000000
         C            0.753862590025    -0.219849570363     0.022935148123    12.000000000000
         C           -1.453137409975    -1.039849570363     0.556935148123    12.000000000000
         C            1.243862590025    -0.785849570363     1.200935148123    12.000000000000
         C           -0.954137409975    -1.603849570363     1.732935148123    12.000000000000
         C            0.396862590025    -1.483849570363     2.064935148123    12.000000000000
         O           -1.087137409975     0.192150429637    -1.446064851877    15.994914619570
         H           -0.375137409975     0.554150429637    -1.983064851877     1.007825032230
         H            1.417862590025     0.320150429637    -0.634064851877     1.007825032230
         H           -2.500137409975    -1.138849570363     0.301935148123     1.007825032230
         H            2.293862590025    -0.679849570363     1.445935148123     1.007825032230
         H           -1.625137409975    -2.143849570363     2.390935148123     1.007825032230
         H            1.897862590025    -2.558849570363     3.116935148123     1.007825032230
         H            0.257862590025    -2.902849570363     3.649935148123     1.007825032230
         H            1.049072590025    -1.383029570363     4.154395148123     1.007825032230
         C            0.525862590025     2.521150429637    -3.005064851877    12.000000000000
         C            0.211862590025     4.000150429637    -3.164064851877    12.000000000000
         H           -0.403137409975     1.968150429637    -2.942064851877     1.007825032230
         H            1.067862590025     2.180150429637    -3.888064851877     1.007825032230
         H            1.147862590025     2.351150429637    -2.128064851877     1.007825032230
         H            1.028862590025     4.471150429637    -3.711064851877     1.007825032230
         H            0.106962590025     4.496110429637    -2.187834851877     1.007825032230
         H           -0.717377409975     4.117070429637    -3.740994851877     1.007825032230

  Running in c1 symmetry.

  Rotational constants: A =      0.10018  B =      0.01534  C =      0.01384 [cm^-1]
  Rotational constants: A =   3003.33120  B =    459.88148  C =    414.90946 [MHz]
  Nuclear repulsion =  486.269093380271954

  Charge       = 0
  Multiplicity = 1
  Electrons    = 76
  Nalpha       = 38
  Nbeta        = 38

  ==> Algorithm <==

  SCF Algorithm Type is PK.
  DIIS enabled.
  MOM disabled.
  Fractional occupation disabled.
  Guess Type is SAD.
  Energy threshold   = 1.00e-06
  Density threshold  = 1.00e-10
  Integral threshold = 0.00e+00

  ==> Primary Basis <==

  Basis Set: CC-PVDZ
    Blend: CC-PVDZ
    Number of shells: 102
    Number of basis function: 210
    Number of Cartesian functions: 220
    Spherical Harmonics?: true
    Max angular momentum: 2

  ==> Pre-Iterations <==

   -------------------------------------------------------
    Irrep   Nso     Nmo     Nalpha   Nbeta   Ndocc  Nsocc
   -------------------------------------------------------
     A        210     210       0       0       0       0
   -------------------------------------------------------
    Total     210     210      38      38      38       0
   -------------------------------------------------------

  ==> Integral Setup <==

  Using integral reordering PK algorithm.
  Sizing the integral batches needed.
  Building batch lookup table.
   Calculation information:
      Number of atoms:                  24
      Number of AO shells:             102
      Number of primitives:            290
      Number of atomic orbitals:       220
      Number of basis functions:       210

      Integral cutoff                 1.00e-12
      Number of threads:                 1

	Batch   1 pq = [       0,    9405] index = [             0,44231715] size =     44231715
	Batch   2 pq = [    9405,   13301] index = [      44231715,88464951] size =     44233236
	Batch   3 pq = [   13301,   16290] index = [      88464951,132690195] size =     44225244
	Batch   4 pq = [   16290,   18810] index = [     132690195,176917455] size =     44227260
	Batch   5 pq = [   18810,   21030] index = [     176917455,221140965] size =     44223510
	Batch   6 pq = [   21030,   22155] index = [     221140965,245433090] size =     24292125
  Task number: 23
  Buffer size: 11059200
  Buffer per thread: 2
  We computed 10135488 shell quartets total.
  Whereas there are 13799631 unique shell quartets.

  ==> DiskJK: Disk-Based J/K Matrices <==

    J tasked:                  Yes
    K tasked:                  Yes
    wK tasked:                  No
    Memory [MiB]:              375
    Schwarz Cutoff:          1E-12

    OpenMP threads:              1

  Minimum eigenvalue in the overlap matrix is 3.2377800742E-04.
  Using Symmetric Orthogonalization.

  SCF Guess: Superposition of Atomic Densities via on-the-fly atomic UHF.

  ==> Iterations <==

                        Total Energy        Delta E     RMS |[F,P]|

   @RHF iter SAD:  -422.75065222934205   -4.22751e+02   0.00000e+00
   @RHF iter   1:  -423.60062402629035   -8.49972e-01   2.96155e-03 DIIS
   @RHF iter   2:  -423.81463756227225   -2.14014e-01   1.24399e-03 DIIS
   @RHF iter   3:  -423.84903201391211   -3.43945e-02   2.86166e-04 DIIS
   @RHF iter   4:  -423.85193689988165   -2.90489e-03   1.18476e-04 DIIS
   @RHF iter   5:  -423.85230033192528   -3.63432e-04   2.05880e-05 DIIS
   @RHF iter   6:  -423.85231861543406   -1.82835e-05   6.41792e-06 DIIS
   @RHF iter   7:  -423.85232031318213   -1.69775e-06   2.07795e-06 DIIS
   @RHF iter   8:  -423.85232054202532   -2.28843e-07   7.73714e-07 DIIS
   @RHF iter   9:  -423.85232057633937   -3.43140e-08   3.16247e-07 DIIS
   @RHF iter  10:  -423.85232058345429   -7.11492e-09   1.32864e-07 DIIS
   @RHF iter  11:  -423.85232058561519   -2.16090e-09   5.96295e-08 DIIS
   @RHF iter  12:  -423.85232058603896   -4.23768e-10   2.83217e-08 DIIS
   @RHF iter  13:  -423.85232058611274   -7.37828e-11   7.92256e-09 DIIS
   @RHF iter  14:  -423.85232058611638   -3.63798e-12   2.27432e-09 DIIS
   @RHF iter  15:  -423.85232058611695   -5.68434e-13   6.87104e-10 DIIS
   @RHF iter  16:  -423.85232058611678    1.70530e-13   2.02254e-10 DIIS
   @RHF iter  17:  -423.85232058611848   -1.70530e-12   6.82814e-11 DIIS
  Energy and wave function converged.

  ==> Post-Iterations <==

    Orbital Energies [Eh]
    ---------------------

    Doubly Occupied:

       1A    -20.578163     2A    -11.296657     3A    -11.238061
       4A    -11.236932     5A    -11.231877     6A    -11.231758
       7A    -11.230030     8A    -11.227994     9A    -11.226864
      10A    -11.226862    11A     -1.397383    12A     -1.147110
      13A     -1.035833    14A     -1.032930    15A     -1.014679
      16A     -0.923826    17A     -0.852651    18A     -0.840446
      19A     -0.798618    20A     -0.729766    21A     -0.665438
      22A     -0.639390    23A     -0.617776    24A     -0.610995
      25A     -0.602951    26A     -0.584315    27A     -0.582465
      28A     -0.569814    29A     -0.563806    30A     -0.525488
      31A     -0.513057    32A     -0.498990    33A     -0.497245
      34A     -0.491524    35A     -0.481557    36A     -0.463780
      37A     -0.336137    38A     -0.298973

    Virtual:

      39A      0.130719    40A      0.158031    41A      0.175552
      42A      0.188013    43A      0.197609    44A      0.218329
      45A      0.226179    46A      0.237386    47A      0.240507
      48A      0.257579    49A      0.271011    50A      0.278854
      51A      0.290115    52A      0.292600    53A      0.305444
      54A      0.344264    55A      0.376145    56A      0.378752
      57A      0.395906    58A      0.443358    59A      0.467909
      60A      0.497266    61A      0.500906    62A      0.507848
      63A      0.581767    64A      0.587626    65A      0.615066
      66A      0.630040    67A      0.635404    68A      0.652137
      69A      0.670213    70A      0.679405    71A      0.690665
      72A      0.696073    73A      0.714038    74A      0.721619
      75A      0.733834    76A      0.743234    77A      0.752457
      78A      0.770851    79A      0.786325    80A      0.793648
      81A      0.806052    82A      0.829885    83A      0.837306
      84A      0.851002    85A      0.869063    86A      0.876051
      87A      0.879896    88A      0.881623    89A      0.888573
      90A      0.893089    91A      0.901878    92A      0.907098
      93A      0.918142    94A      0.929015    95A      0.938379
      96A      0.943166    97A      0.955729    98A      0.967552
      99A      0.974550   100A      1.016446   101A      1.043223
     102A      1.059880   103A      1.096853   104A      1.117510
     105A      1.137937   106A      1.147014   107A      1.148332
     108A      1.169590   109A      1.201780   110A      1.211727
     111A      1.245765   112A      1.248344   113A      1.282410
     114A      1.294195   115A      1.307730   116A      1.316165
     117A      1.334558   118A      1.367394   119A      1.380116
     120A      1.415271   121A      1.475632   122A      1.482611
     123A      1.500845   124A      1.510965   125A      1.523871
     126A      1.554388   127A      1.581706   128A      1.618386
     129A      1.643631   130A      1.678370   131A      1.684963
     132A      1.699117   133A      1.718579   134A      1.731411
     135A      1.751509   136A      1.781157   137A      1.802144
     138A      1.808650   139A      1.840212   140A      1.850624
     141A      1.870532   142A      1.884566   143A      1.892951
     144A      1.895286   145A      1.905463   146A      1.914398
     147A      1.916052   148A      1.927416   149A      1.934617
     150A      1.936563   151A      1.943665   152A      1.962300
     153A      1.967501   154A      1.981797   155A      1.991018
     156A      2.003266   157A      2.040525   158A      2.044417
     159A      2.060659   160A      2.067763   161A      2.073096
     162A      2.135071   163A      2.155574   164A      2.160068
     165A      2.162560   166A      2.191910   167A      2.212328
     168A      2.231252   169A      2.257994   170A      2.272754
     171A      2.284005   172A      2.298946   173A      2.301887
     174A      2.331606   175A      2.373228   176A      2.411577
     177A      2.417136   178A      2.427035   179A      2.470759
     180A      2.483883   181A      2.512753   182A      2.534468
     183A      2.550526   184A      2.593141   185A      2.603229
     186A      2.615390   187A      2.652285   188A      2.745098
     189A      2.755377   190A      2.768864   191A      2.785638
     192A      2.792075   193A      2.808597   194A      2.814340
     195A      2.835478   196A      2.845070   197A      2.901094
     198A      2.931716   199A      2.958244   200A      2.961976
     201A      3.002083   202A      3.087334   203A      3.110209
     204A      3.269080   205A      3.276084   206A      3.366722
     207A      3.583383   208A      3.699363   209A      3.963676
     210A      4.216507

    Final Occupation by Irrep:
              A
    DOCC [    38 ]

  @RHF Final Energy:  -423.85232058611848

   => Energetics <=

    Nuclear Repulsion Energy =            486.2690933802719542
    One-Electron Energy =               -1538.1585454519643008
    Two-Electron Energy =                 628.0371314855739229
    Total Energy =                       -423.8523205861184806

Computation Completed

Properties will be evaluated at   0.000000,   0.000000,   0.000000 [a0]

Properties computed using the SCF density matrix

  Nuclear Dipole Moment: [e a0]
     X:     4.3513      Y:     9.0483      Z:    -5.7772

  Electronic Dipole Moment: [e a0]
     X:    -3.7806      Y:    -8.8706      Z:     5.7163

  Dipole Moment: [e a0]
     X:     0.5708      Y:     0.1776      Z:    -0.0609     Total:     0.6009

  Dipole Moment: [D]
     X:     1.4508      Y:     0.4515      Z:    -0.1549     Total:     1.5273

*** tstop() called on ds3 at Tue Apr 28 13:36:23 2020
Module time:
	user time   =      77.77 seconds =       1.30 minutes
	system time =      36.42 seconds =       0.61 minutes
	total time  =        192 seconds =       3.20 minutes
Total time:
	user time   =      77.77 seconds =       1.30 minutes
	system time =      36.42 seconds =       0.61 minutes
	total time  =        192 seconds =       3.20 minutes
                                     G D M A

                                 by Anthony Stone

                           version 2.2.06, 22 June 2011

               Distributed Multipoles from Gaussian wavefunctions

Starting at 13:36:23 on 28 Apr 2020

Using SCF density matrix from file ./SSI/SSI-094TYR-097THR-1-dimer.test.16361.fchk

                         Distributed Multipole Analysis

Standard DMA

Positions and radii in angstrom
Multipole moments in atomic units, ea_0^k for rank k

C          x =  0.930863  y = -2.103850  z =  3.331935 angstrom
           Maximum rank =  0   Radius =  0.650 angstrom
                   Q00  =  -0.191569

C          x = -0.597137  y = -0.350850  z = -0.297065 angstrom
           Maximum rank =  0   Radius =  0.650 angstrom
                   Q00  =   0.327874

C          x =  0.753863  y = -0.219850  z =  0.022935 angstrom
           Maximum rank =  0   Radius =  0.650 angstrom
                   Q00  =  -0.201844

C          x = -1.453137  y = -1.039850  z =  0.556935 angstrom
           Maximum rank =  0   Radius =  0.650 angstrom
                   Q00  =  -0.111584

C          x =  1.243863  y = -0.785850  z =  1.200935 angstrom
           Maximum rank =  0   Radius =  0.650 angstrom
                   Q00  =  -0.026388

C          x = -0.954137  y = -1.603850  z =  1.732935 angstrom
           Maximum rank =  0   Radius =  0.650 angstrom
                   Q00  =   0.034186

C          x =  0.396863  y = -1.483850  z =  2.064935 angstrom
           Maximum rank =  0   Radius =  0.650 angstrom
                   Q00  =  -0.136301

O          x = -1.087137  y =  0.192150  z = -1.446065 angstrom
           Maximum rank =  0   Radius =  0.650 angstrom
                   Q00  =  -0.683040

H          x = -0.375137  y =  0.554150  z = -1.983065 angstrom
           Maximum rank =  0   Radius =  0.325 angstrom
                   Q00  =   0.423959

H          x =  1.417863  y =  0.320150  z = -0.634065 angstrom
           Maximum rank =  0   Radius =  0.325 angstrom
                   Q00  =   0.072678

H          x = -2.500137  y = -1.138850  z =  0.301935 angstrom
           Maximum rank =  0   Radius =  0.325 angstrom
                   Q00  =   0.078293

H          x =  2.293863  y = -0.679850  z =  1.445935 angstrom
           Maximum rank =  0   Radius =  0.325 angstrom
                   Q00  =   0.067288

H          x = -1.625137  y = -2.143850  z =  2.390935 angstrom
           Maximum rank =  0   Radius =  0.325 angstrom
                   Q00  =   0.064227

H          x =  1.897863  y = -2.558850  z =  3.116935 angstrom
           Maximum rank =  0   Radius =  0.325 angstrom
                   Q00  =   0.095035

H          x =  0.257863  y = -2.902850  z =  3.649935 angstrom
           Maximum rank =  0   Radius =  0.325 angstrom
                   Q00  =   0.095536

H          x =  1.049073  y = -1.383030  z =  4.154395 angstrom
           Maximum rank =  0   Radius =  0.325 angstrom
                   Q00  =   0.099495

C          x =  0.525863  y =  2.521150  z = -3.005065 angstrom
           Maximum rank =  0   Radius =  0.650 angstrom
                   Q00  =  -0.293435

C          x =  0.211863  y =  4.000150  z = -3.164065 angstrom
           Maximum rank =  0   Radius =  0.650 angstrom
                   Q00  =  -0.218438

H          x = -0.403137  y =  1.968150  z = -2.942065 angstrom
           Maximum rank =  0   Radius =  0.325 angstrom
                   Q00  =   0.076668

H          x =  1.067863  y =  2.180150  z = -3.888065 angstrom
           Maximum rank =  0   Radius =  0.325 angstrom
                   Q00  =   0.089372

H          x =  1.147863  y =  2.351150  z = -2.128065 angstrom
           Maximum rank =  0   Radius =  0.325 angstrom
                   Q00  =   0.081199

H          x =  1.028863  y =  4.471150  z = -3.711065 angstrom
           Maximum rank =  0   Radius =  0.325 angstrom
                   Q00  =   0.084430

H          x =  0.106963  y =  4.496110  z = -2.187835 angstrom
           Maximum rank =  0   Radius =  0.325 angstrom
                   Q00  =   0.084197

H          x = -0.717377  y =  4.117070  z = -3.740995 angstrom
           Maximum rank =  0   Radius =  0.325 angstrom
                   Q00  =   0.088159

Total multipoles referred to origin at
           x =   0.000000,  y =    0.000000,  z =    0.000000 angstrom
                   Q00  =  -0.000000

Finished at 13:36:23 on 28 Apr 2020

  DMA results are available in the Python driver through the
	  variable('DMA DISTRIBUTED MULTIPOLES')
  and
	  variable('DMA TOTAL MULTIPOLES')
  commands.

    Psi4 stopped on: Tuesday, 28 April 2020 01:36PM
    Psi4 wall time for execution: 0:03:12.44

*** Psi4 exiting successfully. Buy a developer a beer!
