                               Psi4 1.3.2 release

  ==> Input File <==

--------------------------------------------------------------------------
import numpy as np
set {scf_type pk
basis cc-pvdz
d_convergence 10
gdma_switch   0
gdma_limit    0
gdma_origin   [ 0.0,  0.0,  0.0 ]
}
molecule test {
    units Angstrom
    0 1
    --
    0 1
    C               -2.739254705745747     0.947882734327543    -0.662176677008324
    C               -0.353254705745747    -1.446117265672457     1.063823322991676
    C                0.624745294254253    -0.579117265672457     1.532823322991676
    C               -1.437254705745747    -0.947117265672457     0.351823322991676
    C               -1.550254705745747     0.414882734327543     0.093823322991676
    C                0.514745294254253     0.783882734327543     1.283823322991676
    C               -0.572254705745747     1.278882734327543     0.573823322991676
    H               -0.271254705745747    -2.508117265672456     1.257823322991676
    H                1.472745294254253    -0.965117265672457     2.081823322991676
    H               -2.208254705745747    -1.607117265672457    -0.003176677008324
    H                1.287745294254254     1.458882734327543     1.613823322991676
    H               -3.144254705745746     1.790882734327543    -0.106176677008324
    H               -3.504254705745747     0.180882734327543    -0.692176677008324
    H               -0.652254705745747     2.340882734327543     0.387823322991676
    H               -2.510494705745747     1.321502734327543    -1.671176677008324
    C                2.412745294254253    -0.633117265672457    -1.143176677008324
    C                2.627745294254254     0.125882734327543    -2.439176677008324
    H                3.234745294254253    -1.313117265672457    -0.928176677008324
    H                2.397745294254253     0.095882734327543    -0.338176677008324
    H                1.467745294254253    -1.174117265672457    -1.177176677008324
    H                3.567745294254253     0.673882734327543    -2.356176677008324
    H                1.825745294254253     0.857882734327543    -2.536176677008324
    H                2.660055294254253    -0.509467265672457    -3.336556677008323

}
e, wfn = energy('scf', return_wfn=True)
gdma(wfn)
dmavals = variable('DMA DISTRIBUTED MULTIPOLES')
charges = np.array(dmavals)
print(charges)
np.save('SSI-094PHE-098ILE-1-dimer.npy', np.array(charges))--------------------------------------------------------------------------

*** tstart() called on ds3
*** at Mon Apr 27 21:35:22 2020

   => Loading Basis Set <=

    Name: CC-PVDZ
    Role: ORBITAL
    Keyword: BASIS
    atoms 1-7, 16-17  entry C          line   138 file /theoryfs2/ds/metcalf/miniconda2/envs/tf2gpu/share/psi4/basis/cc-pvdz.gbs
    atoms 8-15, 18-23 entry H          line    22 file /theoryfs2/ds/metcalf/miniconda2/envs/tf2gpu/share/psi4/basis/cc-pvdz.gbs

         ---------------------------------------------------------
                                   SCF
               by Justin Turney, Rob Parrish, Andy Simmonett
                          and Daniel G. A. Smith
                              RHF Reference
                        1 Threads,    500 MiB Core
         ---------------------------------------------------------

  ==> Geometry <==

    Molecular point group: c1
    Full point group: C1

    Geometry (in Angstrom), charge = 0, multiplicity = 1:

       Center              X                  Y                   Z               Mass
    ------------   -----------------  -----------------  -----------------  -----------------
         C           -2.739254705746     0.947882734328    -0.662176677008    12.000000000000
         C           -0.353254705746    -1.446117265672     1.063823322992    12.000000000000
         C            0.624745294254    -0.579117265672     1.532823322992    12.000000000000
         C           -1.437254705746    -0.947117265672     0.351823322992    12.000000000000
         C           -1.550254705746     0.414882734328     0.093823322992    12.000000000000
         C            0.514745294254     0.783882734328     1.283823322992    12.000000000000
         C           -0.572254705746     1.278882734328     0.573823322992    12.000000000000
         H           -0.271254705746    -2.508117265672     1.257823322992     1.007825032230
         H            1.472745294254    -0.965117265672     2.081823322992     1.007825032230
         H           -2.208254705746    -1.607117265672    -0.003176677008     1.007825032230
         H            1.287745294254     1.458882734328     1.613823322992     1.007825032230
         H           -3.144254705746     1.790882734328    -0.106176677008     1.007825032230
         H           -3.504254705746     0.180882734328    -0.692176677008     1.007825032230
         H           -0.652254705746     2.340882734328     0.387823322992     1.007825032230
         H           -2.510494705746     1.321502734328    -1.671176677008     1.007825032230
         C            2.412745294254    -0.633117265672    -1.143176677008    12.000000000000
         C            2.627745294254     0.125882734328    -2.439176677008    12.000000000000
         H            3.234745294254    -1.313117265672    -0.928176677008     1.007825032230
         H            2.397745294254     0.095882734328    -0.338176677008     1.007825032230
         H            1.467745294254    -1.174117265672    -1.177176677008     1.007825032230
         H            3.567745294254     0.673882734328    -2.356176677008     1.007825032230
         H            1.825745294254     0.857882734328    -2.536176677008     1.007825032230
         H            2.660055294254    -0.509467265672    -3.336556677008     1.007825032230

  Running in c1 symmetry.

  Rotational constants: A =      0.06452  B =      0.03209  C =      0.02762 [cm^-1]
  Rotational constants: A =   1934.36843  B =    961.91033  C =    827.92101 [MHz]
  Nuclear repulsion =  421.228122397438881

  Charge       = 0
  Multiplicity = 1
  Electrons    = 68
  Nalpha       = 34
  Nbeta        = 34

  ==> Algorithm <==

  SCF Algorithm Type is PK.
  DIIS enabled.
  MOM disabled.
  Fractional occupation disabled.
  Guess Type is SAD.
  Energy threshold   = 1.00e-06
  Density threshold  = 1.00e-10
  Integral threshold = 0.00e+00

  ==> Primary Basis <==

  Basis Set: CC-PVDZ
    Blend: CC-PVDZ
    Number of shells: 96
    Number of basis function: 196
    Number of Cartesian functions: 205
    Spherical Harmonics?: true
    Max angular momentum: 2

  ==> Pre-Iterations <==

   -------------------------------------------------------
    Irrep   Nso     Nmo     Nalpha   Nbeta   Ndocc  Nsocc
   -------------------------------------------------------
     A        196     196       0       0       0       0
   -------------------------------------------------------
    Total     196     196      34      34      34       0
   -------------------------------------------------------

  ==> Integral Setup <==

  Using integral reordering PK algorithm.
  Sizing the integral batches needed.
  Building batch lookup table.
   Calculation information:
      Number of atoms:                  23
      Number of AO shells:              96
      Number of primitives:            268
      Number of atomic orbitals:       205
      Number of basis functions:       196

      Integral cutoff                 1.00e-12
      Number of threads:                 1

	Batch   1 pq = [       0,    9405] index = [             0,44231715] size =     44231715
	Batch   2 pq = [    9405,   13301] index = [      44231715,88464951] size =     44233236
	Batch   3 pq = [   13301,   16290] index = [      88464951,132690195] size =     44225244
	Batch   4 pq = [   16290,   18810] index = [     132690195,176917455] size =     44227260
	Batch   5 pq = [   18810,   19306] index = [     176917455,186370471] size =      9453016
  Task number: 17
  Buffer size: 11059200
  Buffer per thread: 2
  We computed 10605589 shell quartets total.
  Whereas there are 10841496 unique shell quartets.

  ==> DiskJK: Disk-Based J/K Matrices <==

    J tasked:                  Yes
    K tasked:                  Yes
    wK tasked:                  No
    Memory [MiB]:              375
    Schwarz Cutoff:          1E-12

    OpenMP threads:              1

  Minimum eigenvalue in the overlap matrix is 3.0453913838E-04.
  Using Symmetric Orthogonalization.

  SCF Guess: Superposition of Atomic Densities via on-the-fly atomic UHF.

  ==> Iterations <==

                        Total Energy        Delta E     RMS |[F,P]|

   @RHF iter SAD:  -347.97829264441634   -3.47978e+02   0.00000e+00
   @RHF iter   1:  -348.75804822502272   -7.79756e-01   2.92278e-03 DIIS
   @RHF iter   2:  -348.95272555226120   -1.94677e-01   1.21811e-03 DIIS
   @RHF iter   3:  -348.98361134499589   -3.08858e-02   2.61722e-04 DIIS
   @RHF iter   4:  -348.98611396116104   -2.50262e-03   5.69534e-05 DIIS
   @RHF iter   5:  -348.98619749224827   -8.35311e-05   1.91832e-05 DIIS
   @RHF iter   6:  -348.98620662253268   -9.13028e-06   5.23663e-06 DIIS
   @RHF iter   7:  -348.98620743790065   -8.15368e-07   1.32527e-06 DIIS
   @RHF iter   8:  -348.98620751687156   -7.89709e-08   4.22549e-07 DIIS
   @RHF iter   9:  -348.98620753467048   -1.77989e-08   1.95290e-07 DIIS
   @RHF iter  10:  -348.98620753953526   -4.86477e-09   8.90520e-08 DIIS
   @RHF iter  11:  -348.98620754072658   -1.19132e-09   2.65399e-08 DIIS
   @RHF iter  12:  -348.98620754080071   -7.41238e-11   9.65009e-09 DIIS
   @RHF iter  13:  -348.98620754080468   -3.97904e-12   3.96787e-09 DIIS
   @RHF iter  14:  -348.98620754080582   -1.13687e-12   9.56722e-10 DIIS
   @RHF iter  15:  -348.98620754080707   -1.25056e-12   3.11097e-10 DIIS
   @RHF iter  16:  -348.98620754080861   -1.53477e-12   7.83533e-11 DIIS
  Energy and wave function converged.

  ==> Post-Iterations <==

    Orbital Energies [Eh]
    ---------------------

    Doubly Occupied:

       1A    -11.239972     2A    -11.234612     3A    -11.234283
       4A    -11.230176     5A    -11.229868     6A    -11.229612
       7A    -11.228762     8A    -11.208389     9A    -11.201480
      10A     -1.154985    11A     -1.045787    12A     -1.013487
      13A     -1.011022    14A     -0.932502    15A     -0.827976
      16A     -0.825521    17A     -0.796339    18A     -0.692517
      19A     -0.633490    20A     -0.630235    21A     -0.591670
      22A     -0.589315    23A     -0.583536    24A     -0.574713
      25A     -0.562786    26A     -0.538738    27A     -0.503274
      28A     -0.485823    29A     -0.484425    30A     -0.482840
      31A     -0.475556    32A     -0.465436    33A     -0.332924
      34A     -0.320760

    Virtual:

      35A      0.134122    36A      0.140269    37A      0.176933
      38A      0.199513    39A      0.202990    40A      0.217095
      41A      0.238911    42A      0.246558    43A      0.256449
      44A      0.267963    45A      0.270508    46A      0.272350
      47A      0.282463    48A      0.296511    49A      0.302281
      50A      0.330886    51A      0.365716    52A      0.375686
      53A      0.413716    54A      0.452475    55A      0.463780
      56A      0.478144    57A      0.497626    58A      0.568063
      59A      0.579520    60A      0.593774    61A      0.606245
      62A      0.616943    63A      0.626795    64A      0.646388
      65A      0.680620    66A      0.686673    67A      0.696288
      68A      0.707320    69A      0.740005    70A      0.744307
      71A      0.754061    72A      0.759888    73A      0.779074
      74A      0.781218    75A      0.801296    76A      0.827920
      77A      0.850534    78A      0.855650    79A      0.859101
      80A      0.873573    81A      0.893741    82A      0.895248
      83A      0.898596    84A      0.904814    85A      0.912336
      86A      0.913831    87A      0.925311    88A      0.942661
      89A      0.944535    90A      0.947076    91A      0.954878
      92A      0.983261    93A      0.999895    94A      1.003357
      95A      1.021237    96A      1.063685    97A      1.119103
      98A      1.125347    99A      1.137020   100A      1.153249
     101A      1.163808   102A      1.188888   103A      1.217265
     104A      1.233545   105A      1.243819   106A      1.256393
     107A      1.265780   108A      1.289637   109A      1.301576
     110A      1.319264   111A      1.327066   112A      1.362141
     113A      1.412632   114A      1.474524   115A      1.492007
     116A      1.514070   117A      1.527568   118A      1.552859
     119A      1.592109   120A      1.607245   121A      1.680658
     122A      1.694264   123A      1.695402   124A      1.712158
     125A      1.739473   126A      1.752685   127A      1.783503
     128A      1.795460   129A      1.822119   130A      1.852968
     131A      1.871076   132A      1.887770   133A      1.891540
     134A      1.896771   135A      1.909206   136A      1.917665
     137A      1.927730   138A      1.941598   139A      1.947767
     140A      1.954898   141A      1.965325   142A      1.968390
     143A      1.971890   144A      1.983313   145A      1.991570
     146A      1.997240   147A      2.020254   148A      2.031598
     149A      2.050102   150A      2.080326   151A      2.087358
     152A      2.110090   153A      2.117705   154A      2.122369
     155A      2.146266   156A      2.161584   157A      2.182656
     158A      2.188080   159A      2.203680   160A      2.238168
     161A      2.276366   162A      2.295900   163A      2.308940
     164A      2.321175   165A      2.330991   166A      2.351350
     167A      2.357268   168A      2.452132   169A      2.475591
     170A      2.485154   171A      2.491779   172A      2.528641
     173A      2.539940   174A      2.577435   175A      2.596476
     176A      2.626121   177A      2.733202   178A      2.756333
     179A      2.778495   180A      2.785429   181A      2.799174
     182A      2.811543   183A      2.820690   184A      2.856980
     185A      2.869101   186A      2.878004   187A      2.883645
     188A      2.968524   189A      2.983071   190A      3.009097
     191A      3.031513   192A      3.052609   193A      3.167007
     194A      3.207044   195A      3.312682   196A      3.983549

    Final Occupation by Irrep:
              A
    DOCC [    34 ]

  @RHF Final Energy:  -348.98620754080861

   => Energetics <=

    Nuclear Repulsion Energy =            421.2281223974388809
    One-Electron Energy =               -1305.2430370297538502
    Two-Electron Energy =                 535.0287070915062486
    Total Energy =                       -348.9862075408086639

Computation Completed

Properties will be evaluated at   0.000000,   0.000000,   0.000000 [a0]

Properties computed using the SCF density matrix

  Nuclear Dipole Moment: [e a0]
     X:     5.2719      Y:     0.6034      Z:    -7.3159

  Electronic Dipole Moment: [e a0]
     X:    -5.4288      Y:    -0.5380      Z:     7.3303

  Dipole Moment: [e a0]
     X:    -0.1569      Y:     0.0654      Z:     0.0144     Total:     0.1706

  Dipole Moment: [D]
     X:    -0.3989      Y:     0.1662      Z:     0.0366     Total:     0.4337

*** tstop() called on ds3 at Mon Apr 27 21:37:01 2020
Module time:
	user time   =      74.86 seconds =       1.25 minutes
	system time =      27.00 seconds =       0.45 minutes
	total time  =         99 seconds =       1.65 minutes
Total time:
	user time   =      74.86 seconds =       1.25 minutes
	system time =      27.00 seconds =       0.45 minutes
	total time  =         99 seconds =       1.65 minutes
                                     G D M A

                                 by Anthony Stone

                           version 2.2.06, 22 June 2011

               Distributed Multipoles from Gaussian wavefunctions

Starting at 21:37:1 on 27 Apr 2020

Using SCF density matrix from file ./SSI/SSI-094PHE-098ILE-1-dimer.test.27560.fchk

                         Distributed Multipole Analysis

Standard DMA

Positions and radii in angstrom
Multipole moments in atomic units, ea_0^k for rank k

C          x = -2.739255  y =  0.947883  z = -0.662177 angstrom
           Maximum rank =  0   Radius =  0.650 angstrom
                   Q00  =  -0.198447

C          x = -0.353255  y = -1.446117  z =  1.063823 angstrom
           Maximum rank =  0   Radius =  0.650 angstrom
                   Q00  =  -0.091223

C          x =  0.624745  y = -0.579117  z =  1.532823 angstrom
           Maximum rank =  0   Radius =  0.650 angstrom
                   Q00  =  -0.068047

C          x = -1.437255  y = -0.947117  z =  0.351823 angstrom
           Maximum rank =  0   Radius =  0.650 angstrom
                   Q00  =   0.016148

C          x = -1.550255  y =  0.414883  z =  0.093823 angstrom
           Maximum rank =  0   Radius =  0.650 angstrom
                   Q00  =  -0.103005

C          x =  0.514745  y =  0.783883  z =  1.283823 angstrom
           Maximum rank =  0   Radius =  0.650 angstrom
                   Q00  =  -0.065617

C          x = -0.572255  y =  1.278883  z =  0.573823 angstrom
           Maximum rank =  0   Radius =  0.650 angstrom
                   Q00  =  -0.086620

H          x = -0.271255  y = -2.508117  z =  1.257823 angstrom
           Maximum rank =  0   Radius =  0.325 angstrom
                   Q00  =   0.064358

H          x =  1.472745  y = -0.965117  z =  2.081823 angstrom
           Maximum rank =  0   Radius =  0.325 angstrom
                   Q00  =   0.060900

H          x = -2.208255  y = -1.607117  z = -0.003177 angstrom
           Maximum rank =  0   Radius =  0.325 angstrom
                   Q00  =   0.057341

H          x =  1.287745  y =  1.458883  z =  1.613823 angstrom
           Maximum rank =  0   Radius =  0.325 angstrom
                   Q00  =   0.062987

H          x = -3.144255  y =  1.790883  z = -0.106177 angstrom
           Maximum rank =  0   Radius =  0.325 angstrom
                   Q00  =   0.097963

H          x = -3.504255  y =  0.180883  z = -0.692177 angstrom
           Maximum rank =  0   Radius =  0.325 angstrom
                   Q00  =   0.098914

H          x = -0.652255  y =  2.340883  z =  0.387823 angstrom
           Maximum rank =  0   Radius =  0.325 angstrom
                   Q00  =   0.055094

H          x = -2.510495  y =  1.321503  z = -1.671177 angstrom
           Maximum rank =  0   Radius =  0.325 angstrom
                   Q00  =   0.103940

C          x =  2.412745  y = -0.633117  z = -1.143177 angstrom
           Maximum rank =  0   Radius =  0.650 angstrom
                   Q00  =  -0.233600

C          x =  2.627745  y =  0.125883  z = -2.439177 angstrom
           Maximum rank =  0   Radius =  0.650 angstrom
                   Q00  =  -0.221619

H          x =  3.234745  y = -1.313117  z = -0.928177 angstrom
           Maximum rank =  0   Radius =  0.325 angstrom
                   Q00  =   0.067968

H          x =  2.397745  y =  0.095883  z = -0.338177 angstrom
           Maximum rank =  0   Radius =  0.325 angstrom
                   Q00  =   0.077112

H          x =  1.467745  y = -1.174117  z = -1.177177 angstrom
           Maximum rank =  0   Radius =  0.325 angstrom
                   Q00  =   0.084474

H          x =  3.567745  y =  0.673883  z = -2.356177 angstrom
           Maximum rank =  0   Radius =  0.325 angstrom
                   Q00  =   0.069747

H          x =  1.825745  y =  0.857883  z = -2.536177 angstrom
           Maximum rank =  0   Radius =  0.325 angstrom
                   Q00  =   0.074341

H          x =  2.660055  y = -0.509467  z = -3.336557 angstrom
           Maximum rank =  0   Radius =  0.325 angstrom
                   Q00  =   0.076887

Total multipoles referred to origin at
           x =   0.000000,  y =    0.000000,  z =    0.000000 angstrom
                   Q00  =  -0.000000

Finished at 21:37:1 on 27 Apr 2020

  DMA results are available in the Python driver through the
	  variable('DMA DISTRIBUTED MULTIPOLES')
  and
	  variable('DMA TOTAL MULTIPOLES')
  commands.

    Psi4 stopped on: Monday, 27 April 2020 09:37PM
    Psi4 wall time for execution: 0:01:39.12

*** Psi4 exiting successfully. Buy a developer a beer!
