                               Psi4 1.3.2 release

  ==> Input File <==

--------------------------------------------------------------------------
import numpy as np
set {scf_type pk
basis cc-pvdz
d_convergence 10
gdma_switch   0
gdma_limit    0
gdma_origin   [ 0.0,  0.0,  0.0 ]
}
molecule test {
    units Angstrom
    0 1
    --
    0 1
    C                4.254705929769604    -1.221225637661396    -1.370565350050014
    C                1.754705929769604    -1.827225637661396    -1.863565350050014
    C                3.030705929769605    -1.277225637661396    -2.225565350050014
    C                0.890705929769604    -1.668225637661396    -2.974565350050014
    C                2.903705929769604    -0.821225637661396    -3.491565350050014
    C               -0.060294070230396    -2.875225637661396    -0.695565350050014
    C               -0.885294070230396    -2.711225637661396    -1.811565350050014
    C                1.248705929769604    -2.429225637661396    -0.705565350050014
    C               -0.426294070230396    -2.096225637661397    -2.958565350050014
    N                1.617705929769604    -1.055225637661396    -3.954565350050014
    H               -0.457294070230396    -3.356225637661396     0.190434649949986
    H               -1.907294070230396    -3.065225637661396    -1.771565350050014
    H                1.877705929769604    -2.541225637661396     0.166434649949986
    H               -1.066294070230396    -1.962225637661396    -3.819565350050014
    H                5.130705929769603    -1.279225637661396    -2.014565350050014
    H                4.257705929769604    -2.092225637661397    -0.714565350050014
    H                3.693705929769604    -0.352225637661396    -4.069565350050014
    H                1.291705929769604    -0.813225637661396    -4.883565350050014
    H                4.324355929769603    -0.304945637661396    -0.765935350050014
    C               -2.653294070230396     3.877774362338604     3.995434649949986
    C               -1.682294070230396     0.930774362338604     1.870434649949986
    C               -1.379294070230396     2.214774362338604     2.376434649949986
    C               -2.481294070230396     2.600774362338603     3.234434649949986
    C               -3.374294070230396     1.588774362338604     3.193434649949986
    C               -0.813294070230396     0.228774362338604     1.044434649949986
    C                0.374705929769604     0.815774362338604     0.674434649949986
    C                0.702705929769604     2.090774362338604     1.142434649949986
    C               -0.154294070230396     2.792774362338604     2.003434649949986
    N               -2.902294070230396     0.581774362338604     2.389434649949986
    H               -1.083294070230396    -0.749225637661396     0.677434649949986
    H                1.047705929769604     0.295774362338604     0.007434649949986
    H               -3.406294070230396    -0.277225637661396     2.201434649949986
    H                1.626705929769604     2.545774362338604     0.834434649949986
    H               -4.314294070230396     1.571774362338604     3.734434649949986
    H                0.109705929769604     3.770774362338603     2.369434649949986
    H               -3.642294070230395     3.882774362338604     4.452434649949987
    H               -2.637294070230396     4.685774362338604     3.269434649949986
    H               -1.889084070230396     4.071524362338604     4.762534649949986

}
e, wfn = energy('scf', return_wfn=True)
gdma(wfn)
dmavals = variable('DMA DISTRIBUTED MULTIPOLES')
charges = np.array(dmavals)
print(charges)
np.save('SSI-181TRP-258TRP-1-dimer.npy', np.array(charges))--------------------------------------------------------------------------

*** tstart() called on ds3
*** at Tue Apr 28 15:30:52 2020

   => Loading Basis Set <=

    Name: CC-PVDZ
    Role: ORBITAL
    Keyword: BASIS
    atoms 1-9, 20-28   entry C          line   138 file /theoryfs2/ds/metcalf/miniconda2/envs/tf2gpu/share/psi4/basis/cc-pvdz.gbs
    atoms 10, 29       entry N          line   168 file /theoryfs2/ds/metcalf/miniconda2/envs/tf2gpu/share/psi4/basis/cc-pvdz.gbs
    atoms 11-19, 30-38 entry H          line    22 file /theoryfs2/ds/metcalf/miniconda2/envs/tf2gpu/share/psi4/basis/cc-pvdz.gbs

         ---------------------------------------------------------
                                   SCF
               by Justin Turney, Rob Parrish, Andy Simmonett
                          and Daniel G. A. Smith
                              RHF Reference
                        1 Threads,    500 MiB Core
         ---------------------------------------------------------

  ==> Geometry <==

    Molecular point group: c1
    Full point group: C1

    Geometry (in Angstrom), charge = 0, multiplicity = 1:

       Center              X                  Y                   Z               Mass
    ------------   -----------------  -----------------  -----------------  -----------------
         C            4.254705929770    -1.221225637661    -1.370565350050    12.000000000000
         C            1.754705929770    -1.827225637661    -1.863565350050    12.000000000000
         C            3.030705929770    -1.277225637661    -2.225565350050    12.000000000000
         C            0.890705929770    -1.668225637661    -2.974565350050    12.000000000000
         C            2.903705929770    -0.821225637661    -3.491565350050    12.000000000000
         C           -0.060294070230    -2.875225637661    -0.695565350050    12.000000000000
         C           -0.885294070230    -2.711225637661    -1.811565350050    12.000000000000
         C            1.248705929770    -2.429225637661    -0.705565350050    12.000000000000
         C           -0.426294070230    -2.096225637661    -2.958565350050    12.000000000000
         N            1.617705929770    -1.055225637661    -3.954565350050    14.003074004430
         H           -0.457294070230    -3.356225637661     0.190434649950     1.007825032230
         H           -1.907294070230    -3.065225637661    -1.771565350050     1.007825032230
         H            1.877705929770    -2.541225637661     0.166434649950     1.007825032230
         H           -1.066294070230    -1.962225637661    -3.819565350050     1.007825032230
         H            5.130705929770    -1.279225637661    -2.014565350050     1.007825032230
         H            4.257705929770    -2.092225637661    -0.714565350050     1.007825032230
         H            3.693705929770    -0.352225637661    -4.069565350050     1.007825032230
         H            1.291705929770    -0.813225637661    -4.883565350050     1.007825032230
         H            4.324355929770    -0.304945637661    -0.765935350050     1.007825032230
         C           -2.653294070230     3.877774362339     3.995434649950    12.000000000000
         C           -1.682294070230     0.930774362339     1.870434649950    12.000000000000
         C           -1.379294070230     2.214774362339     2.376434649950    12.000000000000
         C           -2.481294070230     2.600774362339     3.234434649950    12.000000000000
         C           -3.374294070230     1.588774362339     3.193434649950    12.000000000000
         C           -0.813294070230     0.228774362339     1.044434649950    12.000000000000
         C            0.374705929770     0.815774362339     0.674434649950    12.000000000000
         C            0.702705929770     2.090774362339     1.142434649950    12.000000000000
         C           -0.154294070230     2.792774362339     2.003434649950    12.000000000000
         N           -2.902294070230     0.581774362339     2.389434649950    14.003074004430
         H           -1.083294070230    -0.749225637661     0.677434649950     1.007825032230
         H            1.047705929770     0.295774362339     0.007434649950     1.007825032230
         H           -3.406294070230    -0.277225637661     2.201434649950     1.007825032230
         H            1.626705929770     2.545774362339     0.834434649950     1.007825032230
         H           -4.314294070230     1.571774362339     3.734434649950     1.007825032230
         H            0.109705929770     3.770774362339     2.369434649950     1.007825032230
         H           -3.642294070230     3.882774362339     4.452434649950     1.007825032230
         H           -2.637294070230     4.685774362339     3.269434649950     1.007825032230
         H           -1.889084070230     4.071524362339     4.762534649950     1.007825032230

  Running in c1 symmetry.

  Rotational constants: A =      0.02354  B =      0.00508  C =      0.00457 [cm^-1]
  Rotational constants: A =    705.73270  B =    152.30927  C =    136.87781 [MHz]
  Nuclear repulsion = 1375.188107087667959

  Charge       = 0
  Multiplicity = 1
  Electrons    = 140
  Nalpha       = 70
  Nbeta        = 70

  ==> Algorithm <==

  SCF Algorithm Type is PK.
  DIIS enabled.
  MOM disabled.
  Fractional occupation disabled.
  Guess Type is SAD.
  Energy threshold   = 1.00e-06
  Density threshold  = 1.00e-10
  Integral threshold = 0.00e+00

  ==> Primary Basis <==

  Basis Set: CC-PVDZ
    Blend: CC-PVDZ
    Number of shells: 174
    Number of basis function: 370
    Number of Cartesian functions: 390
    Spherical Harmonics?: true
    Max angular momentum: 2

  ==> Pre-Iterations <==

   -------------------------------------------------------
    Irrep   Nso     Nmo     Nalpha   Nbeta   Ndocc  Nsocc
   -------------------------------------------------------
     A        370     370       0       0       0       0
   -------------------------------------------------------
    Total     370     370      70      70      70       0
   -------------------------------------------------------

  ==> Integral Setup <==

  Using Yoshimine PK algorithm.
  Sizing the integral batches needed.
  Building batch lookup table.
   Calculation information:
      Number of atoms:                  38
      Number of AO shells:             174
      Number of primitives:            530
      Number of atomic orbitals:       390
      Number of basis functions:       370

      Integral cutoff                 1.00e-12
      Number of threads:                 1

	Batch   1 pq = [       0,    9405] index = [             0,44231715] size =     44231715
	Batch   2 pq = [    9405,   13301] index = [      44231715,88464951] size =     44233236
	Batch   3 pq = [   13301,   16290] index = [      88464951,132690195] size =     44225244
	Batch   4 pq = [   16290,   18810] index = [     132690195,176917455] size =     44227260
	Batch   5 pq = [   18810,   21030] index = [     176917455,221140965] size =     44223510
	Batch   6 pq = [   21030,   23037] index = [     221140965,265363203] size =     44222238
	Batch   7 pq = [   23037,   24883] index = [     265363203,309594286] size =     44231083
	Batch   8 pq = [   24883,   26601] index = [     309594286,353819901] size =     44225615
	Batch   9 pq = [   26601,   28214] index = [     353819901,398029005] size =     44209104
	Batch  10 pq = [   28214,   29740] index = [     398029005,442248670] size =     44219665
	Batch  11 pq = [   29740,   31191] index = [     442248670,486454836] size =     44206166
	Batch  12 pq = [   31191,   32578] index = [     486454836,530679331] size =     44224495
	Batch  13 pq = [   32578,   33908] index = [     530679331,574893186] size =     44213855
	Batch  14 pq = [   33908,   35188] index = [     574893186,619115266] size =     44222080
	Batch  15 pq = [   35188,   36423] index = [     619115266,663335676] size =     44220410
	Batch  16 pq = [   36423,   37617] index = [     663335676,707538153] size =     44202477
	Batch  17 pq = [   37617,   38775] index = [     707538153,751769700] size =     44231547
	Batch  18 pq = [   38775,   39899] index = [     751769700,795985050] size =     44215350
	Batch  19 pq = [   39899,   40992] index = [     795985050,840192528] size =     44207478
	Batch  20 pq = [   40992,   42057] index = [     840192528,884416653] size =     44224125
	Batch  21 pq = [   42057,   43095] index = [     884416653,928611060] size =     44194407
	Batch  22 pq = [   43095,   44109] index = [     928611060,972823995] size =     44212935
	Batch  23 pq = [   44109,   45100] index = [     972823995,1017027550] size =     44203555
	Batch  24 pq = [   45100,   46070] index = [    1017027550,1061245485] size =     44217935
	Batch  25 pq = [   46070,   47020] index = [    1061245485,1105463710] size =     44218225
	Batch  26 pq = [   47020,   47951] index = [    1105463710,1149673176] size =     44209466
	Batch  27 pq = [   47951,   48864] index = [    1149673176,1193869680] size =     44196504
	Batch  28 pq = [   48864,   49761] index = [    1193869680,1238103441] size =     44233761
	Batch  29 pq = [   49761,   50642] index = [    1238103441,1282331403] size =     44227962
	Batch  30 pq = [   50642,   51508] index = [    1282331403,1326562786] size =     44231383
	Batch  31 pq = [   51508,   52359] index = [    1326562786,1370758620] size =     44195834
	Batch  32 pq = [   52359,   53197] index = [    1370758620,1414987003] size =     44228383
	Batch  33 pq = [   53197,   54022] index = [    1414987003,1459215253] size =     44228250
	Batch  34 pq = [   54022,   54834] index = [    1459215253,1503411195] size =     44195942
	Batch  35 pq = [   54834,   55634] index = [    1503411195,1547598795] size =     44187600
	Batch  36 pq = [   55634,   56423] index = [    1547598795,1591805676] size =     44206881
	Batch  37 pq = [   56423,   57201] index = [    1591805676,1636005801] size =     44200125
	Batch  38 pq = [   57201,   57969] index = [    1636005801,1680231465] size =     44225664
	Batch  39 pq = [   57969,   58727] index = [    1680231465,1724459628] size =     44228163
	Batch  40 pq = [   58727,   59475] index = [    1724459628,1768667550] size =     44207922
	Batch  41 pq = [   59475,   60214] index = [    1768667550,1812893005] size =     44225455
	Batch  42 pq = [   60214,   60944] index = [    1812893005,1857116040] size =     44223035
	Batch  43 pq = [   60944,   61665] index = [    1857116040,1901316945] size =     44200905
	Batch  44 pq = [   61665,   62378] index = [    1901316945,1945538631] size =     44221686
	Batch  45 pq = [   62378,   63083] index = [    1945538631,1989763986] size =     44225355
	Batch  46 pq = [   63083,   63780] index = [    1989763986,2033976090] size =     44212104
	Batch  47 pq = [   63780,   64469] index = [    2033976090,2078158215] size =     44182125
	Batch  48 pq = [   64469,   65151] index = [    2078158215,2122358976] size =     44200761
	Batch  49 pq = [   65151,   65826] index = [    2122358976,2166564051] size =     44205075
	Batch  50 pq = [   65826,   66494] index = [    2166564051,2210759265] size =     44195214
	Batch  51 pq = [   66494,   67155] index = [    2210759265,2254930590] size =     44171325
	Batch  52 pq = [   67155,   67810] index = [    2254930590,2299131955] size =     44201365
	Batch  53 pq = [   67810,   68459] index = [    2299131955,2343351570] size =     44219615
	Batch  54 pq = [   68459,   68635] index = [    2343351570,2355415930] size =     12064360
  ==> DiskJK: Disk-Based J/K Matrices <==

    J tasked:                  Yes
    K tasked:                  Yes
    wK tasked:                  No
    Memory [MiB]:              375
    Schwarz Cutoff:          1E-12

    OpenMP threads:              1

  Minimum eigenvalue in the overlap matrix is 2.2872757330E-04.
  Using Symmetric Orthogonalization.

  SCF Guess: Superposition of Atomic Densities via on-the-fly atomic UHF.

  ==> Iterations <==

                        Total Energy        Delta E     RMS |[F,P]|

   @RHF iter SAD:  -800.81660277854860   -8.00817e+02   0.00000e+00
   @RHF iter   1:  -800.67145299020683    1.45150e-01   2.02971e-03 DIIS
   @RHF iter   2:  -801.00450764376762   -3.33055e-01   9.03756e-04 DIIS
   @RHF iter   3:  -801.06323810266508   -5.87305e-02   2.53289e-04 DIIS
   @RHF iter   4:  -801.06910927493266   -5.87117e-03   1.08143e-04 DIIS
   @RHF iter   5:  -801.07001675688059   -9.07482e-04   1.64519e-05 DIIS
   @RHF iter   6:  -801.07006474355751   -4.79867e-05   8.31906e-06 DIIS
   @RHF iter   7:  -801.07007637873949   -1.16352e-05   3.40856e-06 DIIS
   @RHF iter   8:  -801.07007955386882   -3.17513e-06   1.27371e-06 DIIS
   @RHF iter   9:  -801.07008004241288   -4.88544e-07   5.88560e-07 DIIS
   @RHF iter  10:  -801.07008015432893   -1.11916e-07   2.75015e-07 DIIS
   @RHF iter  11:  -801.07008018559031   -3.12614e-08   1.11561e-07 DIIS
   @RHF iter  12:  -801.07008018955435   -3.96403e-09   4.48435e-08 DIIS
   @RHF iter  13:  -801.07008018995543   -4.01087e-10   1.19547e-08 DIIS
   @RHF iter  14:  -801.07008018998272   -2.72848e-11   4.13642e-09 DIIS
   @RHF iter  15:  -801.07008018998908   -6.36646e-12   1.88787e-09 DIIS
   @RHF iter  16:  -801.07008018998533    3.75167e-12   1.06230e-09 DIIS
   @RHF iter  17:  -801.07008018999659   -1.12550e-11   4.59991e-10 DIIS
   @RHF iter  18:  -801.07008018998727    9.32232e-12   1.46257e-10 DIIS
   @RHF iter  19:  -801.07008018999204   -4.77485e-12   6.57982e-11 DIIS
  Energy and wave function converged.

  ==> Post-Iterations <==

    Orbital Energies [Eh]
    ---------------------

    Doubly Occupied:

       1A    -15.601870     2A    -15.591283     3A    -11.265185
       4A    -11.264624     5A    -11.255342     6A    -11.253349
       7A    -11.232194     8A    -11.231861     9A    -11.230580
      10A    -11.227500    11A    -11.223244    12A    -11.222386
      13A    -11.221749    14A    -11.220750    15A    -11.218649
      16A    -11.215568    17A    -11.214235    18A    -11.212642
      19A    -11.211466    20A    -11.210388    21A     -1.295605
      22A     -1.287517    23A     -1.133348    24A     -1.118287
      25A     -1.077912    26A     -1.065464    27A     -1.001519
      28A     -0.990704    29A     -0.985985    30A     -0.981932
      31A     -0.934172    32A     -0.924149    33A     -0.842151
      34A     -0.831183    35A     -0.807349    36A     -0.793435
      37A     -0.754807    38A     -0.744112    39A     -0.721155
      40A     -0.710668    41A     -0.664045    42A     -0.655243
      43A     -0.646042    44A     -0.634316    45A     -0.605443
      46A     -0.595284    47A     -0.593852    48A     -0.590703
      49A     -0.584929    50A     -0.577581    51A     -0.570959
      52A     -0.560878    53A     -0.553601    54A     -0.546474
      55A     -0.539534    56A     -0.529730    57A     -0.529402
      58A     -0.521601    59A     -0.497309    60A     -0.487397
      61A     -0.474235    62A     -0.465289    63A     -0.459336
      64A     -0.452275    65A     -0.376421    66A     -0.362274
      67A     -0.297627    68A     -0.286320    69A     -0.279621
      70A     -0.268463

    Virtual:

      71A      0.122863    72A      0.136228    73A      0.167157
      74A      0.176563    75A      0.179290    76A      0.182258
      77A      0.186044    78A      0.194050    79A      0.201956
      80A      0.211279    81A      0.224747    82A      0.229904
      83A      0.231241    84A      0.237145    85A      0.241026
      86A      0.258613    87A      0.264600    88A      0.276940
      89A      0.280502    90A      0.289041    91A      0.292358
      92A      0.297436    93A      0.302238    94A      0.333024
      95A      0.373449    96A      0.380346    97A      0.382395
      98A      0.396329    99A      0.403125   100A      0.416955
     101A      0.418197   102A      0.430627   103A      0.442855
     104A      0.450404   105A      0.470063   106A      0.479350
     107A      0.488169   108A      0.491550   109A      0.499424
     110A      0.510394   111A      0.514346   112A      0.520053
     113A      0.593595   114A      0.602563   115A      0.611694
     116A      0.619378   117A      0.631513   118A      0.638749
     119A      0.641254   120A      0.645082   121A      0.664774
     122A      0.672370   123A      0.686567   124A      0.699593
     125A      0.700824   126A      0.708463   127A      0.718834
     128A      0.722678   129A      0.725724   130A      0.732765
     131A      0.736000   132A      0.739583   133A      0.742797
     134A      0.747026   135A      0.748364   136A      0.753073
     137A      0.758989   138A      0.764746   139A      0.770893
     140A      0.773688   141A      0.779948   142A      0.783208
     143A      0.788145   144A      0.793303   145A      0.799735
     146A      0.802767   147A      0.826657   148A      0.832949
     149A      0.851406   150A      0.860277   151A      0.865387
     152A      0.875079   153A      0.878882   154A      0.880584
     155A      0.886793   156A      0.888159   157A      0.894153
     158A      0.896198   159A      0.909800   160A      0.914949
     161A      0.922048   162A      0.923547   163A      0.934545
     164A      0.947923   165A      0.953288   166A      0.955719
     167A      0.957033   168A      0.962044   169A      0.968060
     170A      0.974381   171A      0.990806   172A      0.998297
     173A      1.009443   174A      1.013395   175A      1.018026
     176A      1.044334   177A      1.065362   178A      1.071540
     179A      1.075289   180A      1.080168   181A      1.094988
     182A      1.114638   183A      1.120124   184A      1.126178
     185A      1.135512   186A      1.140829   187A      1.150334
     188A      1.158194   189A      1.164145   190A      1.167056
     191A      1.209811   192A      1.212894   193A      1.220105
     194A      1.222592   195A      1.230199   196A      1.235155
     197A      1.238458   198A      1.243791   199A      1.248307
     200A      1.260853   201A      1.273675   202A      1.279597
     203A      1.283376   204A      1.290745   205A      1.302392
     206A      1.308659   207A      1.318982   208A      1.328746
     209A      1.331203   210A      1.335705   211A      1.344908
     212A      1.347258   213A      1.362670   214A      1.371896
     215A      1.382820   216A      1.400731   217A      1.411848
     218A      1.426152   219A      1.447864   220A      1.473045
     221A      1.520804   222A      1.544870   223A      1.552925
     224A      1.563540   225A      1.573992   226A      1.593739
     227A      1.602290   228A      1.605565   229A      1.624199
     230A      1.636112   231A      1.640883   232A      1.646768
     233A      1.657885   234A      1.672964   235A      1.687209
     236A      1.693306   237A      1.698265   238A      1.705005
     239A      1.739543   240A      1.751255   241A      1.762334
     242A      1.765041   243A      1.776253   244A      1.790302
     245A      1.792718   246A      1.801836   247A      1.816868
     248A      1.821610   249A      1.825383   250A      1.837014
     251A      1.839400   252A      1.850781   253A      1.882461
     254A      1.889540   255A      1.895123   256A      1.900344
     257A      1.904350   258A      1.911620   259A      1.916442
     260A      1.921985   261A      1.927415   262A      1.930898
     263A      1.935651   264A      1.943675   265A      1.949227
     266A      1.956045   267A      1.964926   268A      1.974407
     269A      1.979655   270A      1.989939   271A      2.003002
     272A      2.011362   273A      2.014564   274A      2.018904
     275A      2.024761   276A      2.029491   277A      2.048881
     278A      2.055755   279A      2.076283   280A      2.082776
     281A      2.091236   282A      2.093427   283A      2.096899
     284A      2.102465   285A      2.110654   286A      2.112238
     287A      2.116813   288A      2.118871   289A      2.134546
     290A      2.146397   291A      2.148628   292A      2.155672
     293A      2.158817   294A      2.167481   295A      2.180456
     296A      2.182059   297A      2.211717   298A      2.224886
     299A      2.227353   300A      2.237919   301A      2.245395
     302A      2.265595   303A      2.285421   304A      2.304852
     305A      2.309455   306A      2.315609   307A      2.319754
     308A      2.336884   309A      2.343083   310A      2.350922
     311A      2.363240   312A      2.380578   313A      2.408306
     314A      2.410150   315A      2.419811   316A      2.440376
     317A      2.450983   318A      2.464066   319A      2.470358
     320A      2.480885   321A      2.541436   322A      2.543522
     323A      2.593203   324A      2.598053   325A      2.601736
     326A      2.621137   327A      2.639837   328A      2.651102
     329A      2.663923   330A      2.667310   331A      2.683439
     332A      2.696139   333A      2.706454   334A      2.709251
     335A      2.764184   336A      2.770659   337A      2.783872
     338A      2.788251   339A      2.800564   340A      2.800713
     341A      2.809006   342A      2.823980   343A      2.833497
     344A      2.846980   345A      2.869685   346A      2.883894
     347A      2.884378   348A      2.896316   349A      2.915136
     350A      2.927764   351A      2.977912   352A      2.984922
     353A      3.031968   354A      3.058624   355A      3.064630
     356A      3.066437   357A      3.079504   358A      3.106355
     359A      3.128843   360A      3.136988   361A      3.208742
     362A      3.224921   363A      3.310227   364A      3.320206
     365A      3.382433   366A      3.398621   367A      3.741748
     368A      3.755543   369A      3.965438   370A      3.967525

    Final Occupation by Irrep:
              A
    DOCC [    70 ]

  @RHF Final Energy:  -801.07008018999204

   => Energetics <=

    Nuclear Repulsion Energy =           1375.1881070876679587
    One-Electron Energy =               -3817.4513717820727834
    Two-Electron Energy =                1641.1931845044127840
    Total Energy =                       -801.0700801899920407

Computation Completed

Properties will be evaluated at   0.000000,   0.000000,   0.000000 [a0]

Properties computed using the SCF density matrix

  Nuclear Dipole Moment: [e a0]
     X:     2.7754      Y:     3.7803      Z:     4.3418

  Electronic Dipole Moment: [e a0]
     X:    -3.1273      Y:    -4.0267      Z:    -5.1331

  Dipole Moment: [e a0]
     X:    -0.3519      Y:    -0.2464      Z:    -0.7913     Total:     0.9004

  Dipole Moment: [D]
     X:    -0.8944      Y:    -0.6263      Z:    -2.0113     Total:     2.2885

*** tstop() called on ds3 at Tue Apr 28 21:35:36 2020
Module time:
	user time   =     603.38 seconds =      10.06 minutes
	system time =     614.14 seconds =      10.24 minutes
	total time  =      21884 seconds =     364.73 minutes
Total time:
	user time   =     603.38 seconds =      10.06 minutes
	system time =     614.14 seconds =      10.24 minutes
	total time  =      21884 seconds =     364.73 minutes
                                     G D M A

                                 by Anthony Stone

                           version 2.2.06, 22 June 2011

               Distributed Multipoles from Gaussian wavefunctions

Starting at 21:35:36 on 28 Apr 2020

Using SCF density matrix from file ./SSI/SSI-181TRP-258TRP-1-dimer.test.30129.fchk

                         Distributed Multipole Analysis

Standard DMA

Positions and radii in angstrom
Multipole moments in atomic units, ea_0^k for rank k

C          x =  4.254706  y = -1.221226  z = -1.370565 angstrom
           Maximum rank =  0   Radius =  0.650 angstrom
                   Q00  =  -0.213853

C          x =  1.754706  y = -1.827226  z = -1.863565 angstrom
           Maximum rank =  0   Radius =  0.650 angstrom
                   Q00  =  -0.061583

C          x =  3.030706  y = -1.277226  z = -2.225565 angstrom
           Maximum rank =  0   Radius =  0.650 angstrom
                   Q00  =  -0.115467

C          x =  0.890706  y = -1.668226  z = -2.974565 angstrom
           Maximum rank =  0   Radius =  0.650 angstrom
                   Q00  =   0.252839

C          x =  2.903706  y = -0.821226  z = -3.491565 angstrom
           Maximum rank =  0   Radius =  0.650 angstrom
                   Q00  =   0.072532

C          x = -0.060294  y = -2.875226  z = -0.695565 angstrom
           Maximum rank =  0   Radius =  0.650 angstrom
                   Q00  =  -0.115722

C          x = -0.885294  y = -2.711226  z = -1.811565 angstrom
           Maximum rank =  0   Radius =  0.650 angstrom
                   Q00  =   0.004523

C          x =  1.248706  y = -2.429226  z = -0.705565 angstrom
           Maximum rank =  0   Radius =  0.650 angstrom
                   Q00  =  -0.095648

C          x = -0.426294  y = -2.096226  z = -2.958565 angstrom
           Maximum rank =  0   Radius =  0.650 angstrom
                   Q00  =  -0.118784

N          x =  1.617706  y = -1.055226  z = -3.954565 angstrom
           Maximum rank =  0   Radius =  0.650 angstrom
                   Q00  =  -0.502265

H          x = -0.457294  y = -3.356226  z =  0.190435 angstrom
           Maximum rank =  0   Radius =  0.325 angstrom
                   Q00  =   0.057720

H          x = -1.907294  y = -3.065226  z = -1.771565 angstrom
           Maximum rank =  0   Radius =  0.325 angstrom
                   Q00  =   0.061977

H          x =  1.877706  y = -2.541226  z =  0.166435 angstrom
           Maximum rank =  0   Radius =  0.325 angstrom
                   Q00  =   0.072342

H          x = -1.066294  y = -1.962226  z = -3.819565 angstrom
           Maximum rank =  0   Radius =  0.325 angstrom
                   Q00  =   0.074637

H          x =  5.130706  y = -1.279226  z = -2.014565 angstrom
           Maximum rank =  0   Radius =  0.325 angstrom
                   Q00  =   0.104120

H          x =  4.257706  y = -2.092226  z = -0.714565 angstrom
           Maximum rank =  0   Radius =  0.325 angstrom
                   Q00  =   0.104717

H          x =  3.693706  y = -0.352226  z = -4.069565 angstrom
           Maximum rank =  0   Radius =  0.325 angstrom
                   Q00  =   0.101129

H          x =  1.291706  y = -0.813226  z = -4.883565 angstrom
           Maximum rank =  0   Radius =  0.325 angstrom
                   Q00  =   0.218341

H          x =  4.324356  y = -0.304946  z = -0.765935 angstrom
           Maximum rank =  0   Radius =  0.325 angstrom
                   Q00  =   0.101459

C          x = -2.653294  y =  3.877774  z =  3.995435 angstrom
           Maximum rank =  0   Radius =  0.650 angstrom
                   Q00  =  -0.201551

C          x = -1.682294  y =  0.930774  z =  1.870435 angstrom
           Maximum rank =  0   Radius =  0.650 angstrom
                   Q00  =   0.268215

C          x = -1.379294  y =  2.214774  z =  2.376435 angstrom
           Maximum rank =  0   Radius =  0.650 angstrom
                   Q00  =  -0.065161

C          x = -2.481294  y =  2.600774  z =  3.234435 angstrom
           Maximum rank =  0   Radius =  0.650 angstrom
                   Q00  =  -0.125410

C          x = -3.374294  y =  1.588774  z =  3.193435 angstrom
           Maximum rank =  0   Radius =  0.650 angstrom
                   Q00  =   0.076233

C          x = -0.813294  y =  0.228774  z =  1.044435 angstrom
           Maximum rank =  0   Radius =  0.650 angstrom
                   Q00  =  -0.110732

C          x =  0.374706  y =  0.815774  z =  0.674435 angstrom
           Maximum rank =  0   Radius =  0.650 angstrom
                   Q00  =  -0.074161

C          x =  0.702706  y =  2.090774  z =  1.142435 angstrom
           Maximum rank =  0   Radius =  0.650 angstrom
                   Q00  =  -0.042655

C          x = -0.154294  y =  2.792774  z =  2.003435 angstrom
           Maximum rank =  0   Radius =  0.650 angstrom
                   Q00  =  -0.098205

N          x = -2.902294  y =  0.581774  z =  2.389435 angstrom
           Maximum rank =  0   Radius =  0.650 angstrom
                   Q00  =  -0.501762

H          x = -1.083294  y = -0.749226  z =  0.677435 angstrom
           Maximum rank =  0   Radius =  0.325 angstrom
                   Q00  =   0.075313

H          x =  1.047706  y =  0.295774  z =  0.007435 angstrom
           Maximum rank =  0   Radius =  0.325 angstrom
                   Q00  =   0.074334

H          x = -3.406294  y = -0.277226  z =  2.201435 angstrom
           Maximum rank =  0   Radius =  0.325 angstrom
                   Q00  =   0.211604

H          x =  1.626706  y =  2.545774  z =  0.834435 angstrom
           Maximum rank =  0   Radius =  0.325 angstrom
                   Q00  =   0.053008

H          x = -4.314294  y =  1.571774  z =  3.734435 angstrom
           Maximum rank =  0   Radius =  0.325 angstrom
                   Q00  =   0.098830

H          x =  0.109706  y =  3.770774  z =  2.369435 angstrom
           Maximum rank =  0   Radius =  0.325 angstrom
                   Q00  =   0.066916

H          x = -3.642294  y =  3.882774  z =  4.452435 angstrom
           Maximum rank =  0   Radius =  0.325 angstrom
                   Q00  =   0.099980

H          x = -2.637294  y =  4.685774  z =  3.269435 angstrom
           Maximum rank =  0   Radius =  0.325 angstrom
                   Q00  =   0.096063

H          x = -1.889084  y =  4.071524  z =  4.762535 angstrom
           Maximum rank =  0   Radius =  0.325 angstrom
                   Q00  =   0.096126

Total multipoles referred to origin at
           x =   0.000000,  y =    0.000000,  z =    0.000000 angstrom
                   Q00  =  -0.000000

Finished at 21:35:36 on 28 Apr 2020

  DMA results are available in the Python driver through the
	  variable('DMA DISTRIBUTED MULTIPOLES')
  and
	  variable('DMA TOTAL MULTIPOLES')
  commands.

    Psi4 stopped on: Tuesday, 28 April 2020 09:35PM
    Psi4 wall time for execution: 6:04:44.43

*** Psi4 exiting successfully. Buy a developer a beer!
