                               Psi4 1.3.2 release

  ==> Input File <==

--------------------------------------------------------------------------
import numpy as np
set {scf_type pk
basis cc-pvdz
d_convergence 10
gdma_switch   0
gdma_limit    0
gdma_origin   [ 0.0,  0.0,  0.0 ]
}
molecule test {
    units Angstrom
    0 1
    --
    0 1
    C               -2.893123265257294    -2.357269656916818     1.771780500864436
    C               -1.477123265257294    -0.270269656916818     1.150780500864436
    C               -2.670123265257294    -0.892269656916818     1.644780500864436
    C               -1.708123265257294     1.119730343083182     1.132780500864435
    C               -3.557123265257294     0.111730343083182     1.891780500864436
    C                0.731876734742706     0.140730343083182     0.319780500864436
    C                0.482876734742706     1.513730343083181     0.315780500864436
    C               -0.223123265257294    -0.751269656916818     0.747780500864436
    C               -0.737123265257294     2.020730343083181     0.726780500864435
    N               -2.983123265257294     1.316730343083182     1.589780500864436
    H                1.705876734742706    -0.225269656916818     0.030780500864436
    H                1.264876734742706     2.187730343083182    -0.005219499135564
    H               -0.009123265257294    -1.806269656916818     0.803780500864436
    H               -0.932123265257294     3.081730343083181     0.737780500864436
    H               -3.490123265257294    -2.552269656916818     2.663780500864435
    H               -1.925123265257294    -2.831269656916819     1.933780500864436
    H               -4.567123265257293    -0.027269656916818     2.259780500864435
    H               -3.407123265257294     2.233730343083182     1.752780500864435
    H               -3.357523265257294    -2.830281656916818     0.893950500864436
    C                3.092876734742706    -0.326269656916818    -2.522219499135565
    C                3.334876734742706    -0.327269656916818    -4.038219499135565
    C                3.466876734742706    -1.677269656916819    -1.916219499135564
    C                3.913876734742706     0.741730343083182    -1.843219499135564
    H                2.042876734742706    -0.128269656916818    -2.315219499135565
    H                4.360876734742707    -0.653269656916818    -4.211219499135565
    H                4.509876734742707    -1.912269656916818    -2.128219499135565
    H                3.324876734742706    -1.657269656916819    -0.835219499135564
    H                2.831876734742706    -2.465269656916818    -2.319219499135565
    H                3.557876734742706     1.729730343083181    -2.128219499135565
    H                3.817876734742706     0.657730343083182    -0.761219499135565
    H                4.965876734742706     0.640730343083182    -2.113219499135564
    H                3.174316734742706     0.666850343083182    -4.480883499135564
    H                2.654706734742706    -1.051139656916818    -4.510846499135564

}
e, wfn = energy('scf', return_wfn=True)
gdma(wfn)
dmavals = variable('DMA DISTRIBUTED MULTIPOLES')
charges = np.array(dmavals)
print(charges)
np.save('SSI-108TRP-155VAL-1-dimer.npy', np.array(charges))--------------------------------------------------------------------------

*** tstart() called on ds3
*** at Tue Apr 28 11:01:08 2020

   => Loading Basis Set <=

    Name: CC-PVDZ
    Role: ORBITAL
    Keyword: BASIS
    atoms 1-9, 20-23   entry C          line   138 file /theoryfs2/ds/metcalf/miniconda2/envs/tf2gpu/share/psi4/basis/cc-pvdz.gbs
    atoms 10           entry N          line   168 file /theoryfs2/ds/metcalf/miniconda2/envs/tf2gpu/share/psi4/basis/cc-pvdz.gbs
    atoms 11-19, 24-33 entry H          line    22 file /theoryfs2/ds/metcalf/miniconda2/envs/tf2gpu/share/psi4/basis/cc-pvdz.gbs

         ---------------------------------------------------------
                                   SCF
               by Justin Turney, Rob Parrish, Andy Simmonett
                          and Daniel G. A. Smith
                              RHF Reference
                        1 Threads,    500 MiB Core
         ---------------------------------------------------------

  ==> Geometry <==

    Molecular point group: c1
    Full point group: C1

    Geometry (in Angstrom), charge = 0, multiplicity = 1:

       Center              X                  Y                   Z               Mass
    ------------   -----------------  -----------------  -----------------  -----------------
         C           -2.893123265257    -2.357269656917     1.771780500864    12.000000000000
         C           -1.477123265257    -0.270269656917     1.150780500864    12.000000000000
         C           -2.670123265257    -0.892269656917     1.644780500864    12.000000000000
         C           -1.708123265257     1.119730343083     1.132780500864    12.000000000000
         C           -3.557123265257     0.111730343083     1.891780500864    12.000000000000
         C            0.731876734743     0.140730343083     0.319780500864    12.000000000000
         C            0.482876734743     1.513730343083     0.315780500864    12.000000000000
         C           -0.223123265257    -0.751269656917     0.747780500864    12.000000000000
         C           -0.737123265257     2.020730343083     0.726780500864    12.000000000000
         N           -2.983123265257     1.316730343083     1.589780500864    14.003074004430
         H            1.705876734743    -0.225269656917     0.030780500864     1.007825032230
         H            1.264876734743     2.187730343083    -0.005219499136     1.007825032230
         H           -0.009123265257    -1.806269656917     0.803780500864     1.007825032230
         H           -0.932123265257     3.081730343083     0.737780500864     1.007825032230
         H           -3.490123265257    -2.552269656917     2.663780500864     1.007825032230
         H           -1.925123265257    -2.831269656917     1.933780500864     1.007825032230
         H           -4.567123265257    -0.027269656917     2.259780500864     1.007825032230
         H           -3.407123265257     2.233730343083     1.752780500864     1.007825032230
         H           -3.357523265257    -2.830281656917     0.893950500864     1.007825032230
         C            3.092876734743    -0.326269656917    -2.522219499136    12.000000000000
         C            3.334876734743    -0.327269656917    -4.038219499136    12.000000000000
         C            3.466876734743    -1.677269656917    -1.916219499136    12.000000000000
         C            3.913876734743     0.741730343083    -1.843219499136    12.000000000000
         H            2.042876734743    -0.128269656917    -2.315219499136     1.007825032230
         H            4.360876734743    -0.653269656917    -4.211219499136     1.007825032230
         H            4.509876734743    -1.912269656917    -2.128219499136     1.007825032230
         H            3.324876734743    -1.657269656917    -0.835219499136     1.007825032230
         H            2.831876734743    -2.465269656917    -2.319219499136     1.007825032230
         H            3.557876734743     1.729730343083    -2.128219499136     1.007825032230
         H            3.817876734743     0.657730343083    -0.761219499136     1.007825032230
         H            4.965876734743     0.640730343083    -2.113219499136     1.007825032230
         H            3.174316734743     0.666850343083    -4.480883499136     1.007825032230
         H            2.654706734743    -1.051139656917    -4.510846499136     1.007825032230

  Running in c1 symmetry.

  Rotational constants: A =      0.04471  B =      0.00855  C =      0.00763 [cm^-1]
  Rotational constants: A =   1340.22550  B =    256.22618  C =    228.82794 [MHz]
  Nuclear repulsion =  827.032305738716786

  Charge       = 0
  Multiplicity = 1
  Electrons    = 104
  Nalpha       = 52
  Nbeta        = 52

  ==> Algorithm <==

  SCF Algorithm Type is PK.
  DIIS enabled.
  MOM disabled.
  Fractional occupation disabled.
  Guess Type is SAD.
  Energy threshold   = 1.00e-06
  Density threshold  = 1.00e-10
  Integral threshold = 0.00e+00

  ==> Primary Basis <==

  Basis Set: CC-PVDZ
    Blend: CC-PVDZ
    Number of shells: 141
    Number of basis function: 291
    Number of Cartesian functions: 305
    Spherical Harmonics?: true
    Max angular momentum: 2

  ==> Pre-Iterations <==

   -------------------------------------------------------
    Irrep   Nso     Nmo     Nalpha   Nbeta   Ndocc  Nsocc
   -------------------------------------------------------
     A        291     291       0       0       0       0
   -------------------------------------------------------
    Total     291     291      52      52      52       0
   -------------------------------------------------------

  ==> Integral Setup <==

  Using integral reordering PK algorithm.
  Sizing the integral batches needed.
  Building batch lookup table.
   Calculation information:
      Number of atoms:                  33
      Number of AO shells:             141
      Number of primitives:            403
      Number of atomic orbitals:       305
      Number of basis functions:       291

      Integral cutoff                 1.00e-12
      Number of threads:                 1

	Batch   1 pq = [       0,    9405] index = [             0,44231715] size =     44231715
	Batch   2 pq = [    9405,   13301] index = [      44231715,88464951] size =     44233236
	Batch   3 pq = [   13301,   16290] index = [      88464951,132690195] size =     44225244
	Batch   4 pq = [   16290,   18810] index = [     132690195,176917455] size =     44227260
	Batch   5 pq = [   18810,   21030] index = [     176917455,221140965] size =     44223510
	Batch   6 pq = [   21030,   23037] index = [     221140965,265363203] size =     44222238
	Batch   7 pq = [   23037,   24883] index = [     265363203,309594286] size =     44231083
	Batch   8 pq = [   24883,   26601] index = [     309594286,353819901] size =     44225615
	Batch   9 pq = [   26601,   28214] index = [     353819901,398029005] size =     44209104
	Batch  10 pq = [   28214,   29740] index = [     398029005,442248670] size =     44219665
	Batch  11 pq = [   29740,   31191] index = [     442248670,486454836] size =     44206166
	Batch  12 pq = [   31191,   32578] index = [     486454836,530679331] size =     44224495
	Batch  13 pq = [   32578,   33908] index = [     530679331,574893186] size =     44213855
	Batch  14 pq = [   33908,   35188] index = [     574893186,619115266] size =     44222080
	Batch  15 pq = [   35188,   36423] index = [     619115266,663335676] size =     44220410
	Batch  16 pq = [   36423,   37617] index = [     663335676,707538153] size =     44202477
	Batch  17 pq = [   37617,   38775] index = [     707538153,751769700] size =     44231547
	Batch  18 pq = [   38775,   39899] index = [     751769700,795985050] size =     44215350
	Batch  19 pq = [   39899,   40992] index = [     795985050,840192528] size =     44207478
	Batch  20 pq = [   40992,   42057] index = [     840192528,884416653] size =     44224125
	Batch  21 pq = [   42057,   42486] index = [     884416653,902551341] size =     18134688
  Task number: 82
  Buffer size: 11059200
  Buffer per thread: 2
  We computed 41607880 shell quartets total.
  Whereas there are 50115066 unique shell quartets.

  ==> DiskJK: Disk-Based J/K Matrices <==

    J tasked:                  Yes
    K tasked:                  Yes
    wK tasked:                  No
    Memory [MiB]:              375
    Schwarz Cutoff:          1E-12

    OpenMP threads:              1

  Minimum eigenvalue in the overlap matrix is 2.3127727066E-04.
  Using Symmetric Orthogonalization.

  SCF Guess: Superposition of Atomic Densities via on-the-fly atomic UHF.

  ==> Iterations <==

                        Total Energy        Delta E     RMS |[F,P]|

   @RHF iter SAD:  -557.27771665058583   -5.57278e+02   0.00000e+00
   @RHF iter   1:  -557.48654704744558   -2.08830e-01   2.45061e-03 DIIS
   @RHF iter   2:  -557.78021263993026   -2.93666e-01   1.10621e-03 DIIS
   @RHF iter   3:  -557.83484197846303   -5.46293e-02   2.79567e-04 DIIS
   @RHF iter   4:  -557.83954244941640   -4.70047e-03   1.24355e-04 DIIS
   @RHF iter   5:  -557.84027212445471   -7.29675e-04   1.93578e-05 DIIS
   @RHF iter   6:  -557.84030442257369   -3.22981e-05   8.45086e-06 DIIS
   @RHF iter   7:  -557.84031126936429   -6.84679e-06   3.07567e-06 DIIS
   @RHF iter   8:  -557.84031283209322   -1.56273e-06   1.30249e-06 DIIS
   @RHF iter   9:  -557.84031315306504   -3.20972e-07   5.74994e-07 DIIS
   @RHF iter  10:  -557.84031321786313   -6.47981e-08   2.50766e-07 DIIS
   @RHF iter  11:  -557.84031323420868   -1.63456e-08   9.80511e-08 DIIS
   @RHF iter  12:  -557.84031323680131   -2.59263e-09   3.19739e-08 DIIS
   @RHF iter  13:  -557.84031323696377   -1.62458e-10   1.04426e-08 DIIS
   @RHF iter  14:  -557.84031323697855   -1.47793e-11   2.98035e-09 DIIS
   @RHF iter  15:  -557.84031323697263    5.91172e-12   1.31531e-09 DIIS
   @RHF iter  16:  -557.84031323697525   -2.61480e-12   6.96827e-10 DIIS
   @RHF iter  17:  -557.84031323698002   -4.77485e-12   3.05505e-10 DIIS
   @RHF iter  18:  -557.84031323698673   -6.70752e-12   1.26633e-10 DIIS
   @RHF iter  19:  -557.84031323698230    4.43379e-12   4.41288e-11 DIIS
  Energy and wave function converged.

  ==> Post-Iterations <==

    Orbital Energies [Eh]
    ---------------------

    Doubly Occupied:

       1A    -15.602231     2A    -11.263273     3A    -11.260666
       4A    -11.229721     5A    -11.227733     6A    -11.227501
       7A    -11.224525     8A    -11.217735     9A    -11.217655
      10A    -11.217020    11A    -11.215112    12A    -11.213446
      13A    -11.210405    14A    -11.208586    15A     -1.297439
      16A     -1.131920    17A     -1.082561    18A     -1.073872
      19A     -1.000162    20A     -0.988171    21A     -0.931971
      22A     -0.924385    23A     -0.922705    24A     -0.840619
      25A     -0.803682    26A     -0.761335    27A     -0.754053
      28A     -0.719591    29A     -0.662684    30A     -0.648190
      31A     -0.628984    32A     -0.603512    33A     -0.594637
      34A     -0.591845    35A     -0.587001    36A     -0.583795
      37A     -0.568494    38A     -0.554204    39A     -0.538569
      40A     -0.534330    41A     -0.530069    42A     -0.523768
      43A     -0.504555    44A     -0.493201    45A     -0.471286
      46A     -0.465772    47A     -0.456388    48A     -0.454537
      49A     -0.452704    50A     -0.372125    51A     -0.297704
      52A     -0.273874

    Virtual:

      53A      0.125185    54A      0.171036    55A      0.173449
      56A      0.180318    57A      0.193303    58A      0.208646
      59A      0.215491    60A      0.219550    61A      0.228772
      62A      0.230877    63A      0.242903    64A      0.253338
      65A      0.256570    66A      0.263248    67A      0.279444
      68A      0.288857    69A      0.294454    70A      0.305242
      71A      0.312950    72A      0.323423    73A      0.331510
      74A      0.351559    75A      0.372605    76A      0.384335
      77A      0.386655    78A      0.407009    79A      0.410945
      80A      0.418915    81A      0.441295    82A      0.448621
      83A      0.471424    84A      0.482613    85A      0.501665
      86A      0.515758    87A      0.572323    88A      0.582093
      89A      0.599723    90A      0.616437    91A      0.620207
      92A      0.631214    93A      0.643334    94A      0.653237
      95A      0.666391    96A      0.676420    97A      0.692054
      98A      0.705715    99A      0.720232   100A      0.723908
     101A      0.739834   102A      0.741302   103A      0.745657
     104A      0.758404   105A      0.761584   106A      0.763448
     107A      0.766942   108A      0.785644   109A      0.791244
     110A      0.793175   111A      0.799787   112A      0.819831
     113A      0.834773   114A      0.843563   115A      0.849203
     116A      0.868165   117A      0.872361   118A      0.878663
     119A      0.883560   120A      0.891181   121A      0.896538
     122A      0.901746   123A      0.905066   124A      0.910406
     125A      0.917688   126A      0.920110   127A      0.924322
     128A      0.933302   129A      0.942244   130A      0.949288
     131A      0.951563   132A      0.956824   133A      0.966520
     134A      0.970407   135A      0.987057   136A      1.004474
     137A      1.006801   138A      1.013720   139A      1.017833
     140A      1.059660   141A      1.064387   142A      1.085716
     143A      1.101121   144A      1.125270   145A      1.132896
     146A      1.141232   147A      1.147754   148A      1.163674
     149A      1.170718   150A      1.177415   151A      1.212198
     152A      1.219464   153A      1.233138   154A      1.238678
     155A      1.246400   156A      1.266744   157A      1.284590
     158A      1.293774   159A      1.304602   160A      1.331468
     161A      1.340774   162A      1.361408   163A      1.380955
     164A      1.387635   165A      1.409450   166A      1.418083
     167A      1.448361   168A      1.459081   169A      1.521625
     170A      1.549087   171A      1.559195   172A      1.571235
     173A      1.575977   174A      1.608186   175A      1.630755
     176A      1.639637   177A      1.650080   178A      1.659036
     179A      1.680060   180A      1.684448   181A      1.693031
     182A      1.699009   183A      1.705684   184A      1.718540
     185A      1.723786   186A      1.728053   187A      1.738400
     188A      1.763832   189A      1.767892   190A      1.789936
     191A      1.817238   192A      1.826563   193A      1.839977
     194A      1.846476   195A      1.864861   196A      1.866082
     197A      1.883793   198A      1.891905   199A      1.900313
     200A      1.906537   201A      1.913935   202A      1.930928
     203A      1.939051   204A      1.943899   205A      1.947062
     206A      1.964027   207A      1.969964   208A      1.971466
     209A      1.976506   210A      1.990928   211A      1.994032
     212A      2.004566   213A      2.006710   214A      2.012204
     215A      2.019579   216A      2.036934   217A      2.050062
     218A      2.068303   219A      2.077140   220A      2.087638
     221A      2.089738   222A      2.100737   223A      2.107549
     224A      2.116257   225A      2.118381   226A      2.128924
     227A      2.138882   228A      2.158632   229A      2.162835
     230A      2.187652   231A      2.197556   232A      2.207394
     233A      2.238114   234A      2.251709   235A      2.270638
     236A      2.274127   237A      2.286880   238A      2.303412
     239A      2.313580   240A      2.321318   241A      2.324808
     242A      2.336523   243A      2.352770   244A      2.367670
     245A      2.377133   246A      2.391857   247A      2.403160
     248A      2.420764   249A      2.457401   250A      2.479618
     251A      2.493549   252A      2.537637   253A      2.580345
     254A      2.595180   255A      2.607111   256A      2.612003
     257A      2.630148   258A      2.632585   259A      2.673413
     260A      2.699405   261A      2.707594   262A      2.727035
     263A      2.732582   264A      2.759533   265A      2.769827
     266A      2.780772   267A      2.796041   268A      2.801896
     269A      2.805012   270A      2.815681   271A      2.834413
     272A      2.835813   273A      2.837196   274A      2.859956
     275A      2.867684   276A      2.871508   277A      2.886737
     278A      2.938526   279A      2.976256   280A      3.016901
     281A      3.032420   282A      3.039392   283A      3.057871
     284A      3.089510   285A      3.130148   286A      3.137810
     287A      3.217861   288A      3.323438   289A      3.389865
     290A      3.738003   291A      3.977438

    Final Occupation by Irrep:
              A
    DOCC [    52 ]

  @RHF Final Energy:  -557.84031323698230

   => Energetics <=

    Nuclear Repulsion Energy =            827.0323057387167864
    One-Electron Energy =               -2395.4246323858515098
    Two-Electron Energy =                1010.5520134101524263
    Total Energy =                       -557.8403132369822970

Computation Completed

Properties will be evaluated at   0.000000,   0.000000,   0.000000 [a0]

Properties computed using the SCF density matrix

  Nuclear Dipole Moment: [e a0]
     X:    19.2488      Y:    -6.5116      Z:   -13.8157

  Electronic Dipole Moment: [e a0]
     X:   -19.9796      Y:     6.9309      Z:    14.0986

  Dipole Moment: [e a0]
     X:    -0.7307      Y:     0.4193      Z:     0.2829     Total:     0.8887

  Dipole Moment: [D]
     X:    -1.8573      Y:     1.0657      Z:     0.7190     Total:     2.2589

*** tstop() called on ds3 at Tue Apr 28 11:12:06 2020
Module time:
	user time   =     344.04 seconds =       5.73 minutes
	system time =     141.06 seconds =       2.35 minutes
	total time  =        658 seconds =      10.97 minutes
Total time:
	user time   =     344.04 seconds =       5.73 minutes
	system time =     141.06 seconds =       2.35 minutes
	total time  =        658 seconds =      10.97 minutes
                                     G D M A

                                 by Anthony Stone

                           version 2.2.06, 22 June 2011

               Distributed Multipoles from Gaussian wavefunctions

Starting at 11:12:6 on 28 Apr 2020

Using SCF density matrix from file ./SSI/SSI-108TRP-155VAL-1-dimer.test.26961.fchk

                         Distributed Multipole Analysis

Standard DMA

Positions and radii in angstrom
Multipole moments in atomic units, ea_0^k for rank k

C          x = -2.893123  y = -2.357270  z =  1.771781 angstrom
           Maximum rank =  0   Radius =  0.650 angstrom
                   Q00  =  -0.218562

C          x = -1.477123  y = -0.270270  z =  1.150781 angstrom
           Maximum rank =  0   Radius =  0.650 angstrom
                   Q00  =  -0.050866

C          x = -2.670123  y = -0.892270  z =  1.644781 angstrom
           Maximum rank =  0   Radius =  0.650 angstrom
                   Q00  =  -0.122809

C          x = -1.708123  y =  1.119730  z =  1.132781 angstrom
           Maximum rank =  0   Radius =  0.650 angstrom
                   Q00  =   0.249857

C          x = -3.557123  y =  0.111730  z =  1.891781 angstrom
           Maximum rank =  0   Radius =  0.650 angstrom
                   Q00  =   0.074761

C          x =  0.731877  y =  0.140730  z =  0.319781 angstrom
           Maximum rank =  0   Radius =  0.650 angstrom
                   Q00  =  -0.089724

C          x =  0.482877  y =  1.513730  z =  0.315781 angstrom
           Maximum rank =  0   Radius =  0.650 angstrom
                   Q00  =  -0.006292

C          x = -0.223123  y = -0.751270  z =  0.747781 angstrom
           Maximum rank =  0   Radius =  0.650 angstrom
                   Q00  =  -0.097754

C          x = -0.737123  y =  2.020730  z =  0.726781 angstrom
           Maximum rank =  0   Radius =  0.650 angstrom
                   Q00  =  -0.119538

N          x = -2.983123  y =  1.316730  z =  1.589781 angstrom
           Maximum rank =  0   Radius =  0.650 angstrom
                   Q00  =  -0.497678

H          x =  1.705877  y = -0.225270  z =  0.030781 angstrom
           Maximum rank =  0   Radius =  0.325 angstrom
                   Q00  =   0.052851

H          x =  1.264877  y =  2.187730  z = -0.005219 angstrom
           Maximum rank =  0   Radius =  0.325 angstrom
                   Q00  =   0.062224

H          x = -0.009123  y = -1.806270  z =  0.803781 angstrom
           Maximum rank =  0   Radius =  0.325 angstrom
                   Q00  =   0.065942

H          x = -0.932123  y =  3.081730  z =  0.737781 angstrom
           Maximum rank =  0   Radius =  0.325 angstrom
                   Q00  =   0.072200

H          x = -3.490123  y = -2.552270  z =  2.663780 angstrom
           Maximum rank =  0   Radius =  0.325 angstrom
                   Q00  =   0.102760

H          x = -1.925123  y = -2.831270  z =  1.933781 angstrom
           Maximum rank =  0   Radius =  0.325 angstrom
                   Q00  =   0.102101

H          x = -4.567123  y = -0.027270  z =  2.259781 angstrom
           Maximum rank =  0   Radius =  0.325 angstrom
                   Q00  =   0.100122

H          x = -3.407123  y =  2.233730  z =  1.752780 angstrom
           Maximum rank =  0   Radius =  0.325 angstrom
                   Q00  =   0.216959

H          x = -3.357523  y = -2.830282  z =  0.893951 angstrom
           Maximum rank =  0   Radius =  0.325 angstrom
                   Q00  =   0.100162

C          x =  3.092877  y = -0.326270  z = -2.522219 angstrom
           Maximum rank =  0   Radius =  0.650 angstrom
                   Q00  =  -0.002138

C          x =  3.334877  y = -0.327270  z = -4.038220 angstrom
           Maximum rank =  0   Radius =  0.650 angstrom
                   Q00  =  -0.227785

C          x =  3.466877  y = -1.677270  z = -1.916220 angstrom
           Maximum rank =  0   Radius =  0.650 angstrom
                   Q00  =  -0.250386

C          x =  3.913877  y =  0.741730  z = -1.843219 angstrom
           Maximum rank =  0   Radius =  0.650 angstrom
                   Q00  =  -0.239495

H          x =  2.042877  y = -0.128270  z = -2.315219 angstrom
           Maximum rank =  0   Radius =  0.325 angstrom
                   Q00  =   0.026669

H          x =  4.360877  y = -0.653270  z = -4.211220 angstrom
           Maximum rank =  0   Radius =  0.325 angstrom
                   Q00  =   0.073206

H          x =  4.509877  y = -1.912270  z = -2.128220 angstrom
           Maximum rank =  0   Radius =  0.325 angstrom
                   Q00  =   0.075269

H          x =  3.324877  y = -1.657270  z = -0.835220 angstrom
           Maximum rank =  0   Radius =  0.325 angstrom
                   Q00  =   0.076858

H          x =  2.831877  y = -2.465270  z = -2.319220 angstrom
           Maximum rank =  0   Radius =  0.325 angstrom
                   Q00  =   0.080761

H          x =  3.557877  y =  1.729730  z = -2.128220 angstrom
           Maximum rank =  0   Radius =  0.325 angstrom
                   Q00  =   0.078294

H          x =  3.817877  y =  0.657730  z = -0.761219 angstrom
           Maximum rank =  0   Radius =  0.325 angstrom
                   Q00  =   0.074123

H          x =  4.965877  y =  0.640730  z = -2.113220 angstrom
           Maximum rank =  0   Radius =  0.325 angstrom
                   Q00  =   0.073184

H          x =  3.174317  y =  0.666850  z = -4.480884 angstrom
           Maximum rank =  0   Radius =  0.325 angstrom
                   Q00  =   0.083146

H          x =  2.654707  y = -1.051140  z = -4.510847 angstrom
           Maximum rank =  0   Radius =  0.325 angstrom
                   Q00  =   0.081579

Total multipoles referred to origin at
           x =   0.000000,  y =    0.000000,  z =    0.000000 angstrom
                   Q00  =  -0.000000

Finished at 11:12:6 on 28 Apr 2020

  DMA results are available in the Python driver through the
	  variable('DMA DISTRIBUTED MULTIPOLES')
  and
	  variable('DMA TOTAL MULTIPOLES')
  commands.

    Psi4 stopped on: Tuesday, 28 April 2020 11:12AM
    Psi4 wall time for execution: 0:10:57.57

*** Psi4 exiting successfully. Buy a developer a beer!
