                               Psi4 1.3.2 release

  ==> Input File <==

--------------------------------------------------------------------------
import numpy as np
set {scf_type pk
basis cc-pvdz
d_convergence 10
gdma_switch   0
gdma_limit    0
gdma_origin   [ 0.0,  0.0,  0.0 ]
}
molecule test {
    units Angstrom
    0 1
    --
    0 1
    C               -3.220594389106204     1.858022746436446    -0.442497592714240
    C               -4.526594389106204     1.076022746436446    -0.500497592714240
    H               -3.170594389106204     2.590022746436446    -1.247497592714240
    H               -3.167594389106204     2.390022746436446     0.506502407285760
    H               -2.374594389106204     1.178022746436446    -0.508497592714240
    H               -5.318594389106205     1.816022746436446    -0.465497592714240
    H               -4.609670089106205     0.473722746436446    -1.417195592714240
    H               -4.629987089106205     0.426022746436446     0.380870407285760
    C                2.361405610893796    -2.407977253563554    -0.881497592714240
    C               -0.248594389106204    -0.228977253563554     0.815502407285760
    C                0.430405610893796     0.976022746436446     0.945502407285760
    C                0.380405610893796    -1.322977253563554     0.223502407285760
    C                1.692405610893796    -1.220977253563554    -0.243497592714240
    C                1.739405610893796     1.092022746436446     0.476502407285760
    C                2.364405610893796    -0.001977253563554    -0.123497592714240
    H               -1.269594389106204    -0.296977253563554     1.148502407285760
    H               -0.060594389106204     1.818022746436446     1.409502407285760
    H               -0.164594389106204    -2.249977253563554     0.113502407285760
    H                2.268405610893796     2.030022746436446     0.569502407285760
    H                2.968405610893796    -2.066977253563554    -1.721497592714240
    H                1.588405610893796    -3.059977253563554    -1.288497592714240
    H                3.373405610893796     0.100022746436446    -0.496497592714240
    H                2.986012610893796    -2.995297253563554    -0.192349592714240

}
e, wfn = energy('scf', return_wfn=True)
gdma(wfn)
dmavals = variable('DMA DISTRIBUTED MULTIPOLES')
charges = np.array(dmavals)
print(charges)
np.save('SSI-043LEU-071PHE-1-dimer.npy', np.array(charges))--------------------------------------------------------------------------

*** tstart() called on ds3
*** at Mon Apr 27 16:32:39 2020

   => Loading Basis Set <=

    Name: CC-PVDZ
    Role: ORBITAL
    Keyword: BASIS
    atoms 1-2, 9-15  entry C          line   138 file /theoryfs2/ds/metcalf/miniconda2/envs/tf2gpu/share/psi4/basis/cc-pvdz.gbs
    atoms 3-8, 16-23 entry H          line    22 file /theoryfs2/ds/metcalf/miniconda2/envs/tf2gpu/share/psi4/basis/cc-pvdz.gbs

         ---------------------------------------------------------
                                   SCF
               by Justin Turney, Rob Parrish, Andy Simmonett
                          and Daniel G. A. Smith
                              RHF Reference
                        1 Threads,    500 MiB Core
         ---------------------------------------------------------

  ==> Geometry <==

    Molecular point group: c1
    Full point group: C1

    Geometry (in Angstrom), charge = 0, multiplicity = 1:

       Center              X                  Y                   Z               Mass
    ------------   -----------------  -----------------  -----------------  -----------------
         C           -3.220594389106     1.858022746436    -0.442497592714    12.000000000000
         C           -4.526594389106     1.076022746436    -0.500497592714    12.000000000000
         H           -3.170594389106     2.590022746436    -1.247497592714     1.007825032230
         H           -3.167594389106     2.390022746436     0.506502407286     1.007825032230
         H           -2.374594389106     1.178022746436    -0.508497592714     1.007825032230
         H           -5.318594389106     1.816022746436    -0.465497592714     1.007825032230
         H           -4.609670089106     0.473722746436    -1.417195592714     1.007825032230
         H           -4.629987089106     0.426022746436     0.380870407286     1.007825032230
         C            2.361405610894    -2.407977253564    -0.881497592714    12.000000000000
         C           -0.248594389106    -0.228977253564     0.815502407286    12.000000000000
         C            0.430405610894     0.976022746436     0.945502407286    12.000000000000
         C            0.380405610894    -1.322977253564     0.223502407286    12.000000000000
         C            1.692405610894    -1.220977253564    -0.243497592714    12.000000000000
         C            1.739405610894     1.092022746436     0.476502407286    12.000000000000
         C            2.364405610894    -0.001977253564    -0.123497592714    12.000000000000
         H           -1.269594389106    -0.296977253564     1.148502407286     1.007825032230
         H           -0.060594389106     1.818022746436     1.409502407286     1.007825032230
         H           -0.164594389106    -2.249977253564     0.113502407286     1.007825032230
         H            2.268405610894     2.030022746436     0.569502407286     1.007825032230
         H            2.968405610894    -2.066977253564    -1.721497592714     1.007825032230
         H            1.588405610894    -3.059977253564    -1.288497592714     1.007825032230
         H            3.373405610894     0.100022746436    -0.496497592714     1.007825032230
         H            2.986012610894    -2.995297253564    -0.192349592714     1.007825032230

  Running in c1 symmetry.

  Rotational constants: A =      0.08986  B =      0.01965  C =      0.01730 [cm^-1]
  Rotational constants: A =   2694.07966  B =    589.09106  C =    518.71897 [MHz]
  Nuclear repulsion =  398.624360993381288

  Charge       = 0
  Multiplicity = 1
  Electrons    = 68
  Nalpha       = 34
  Nbeta        = 34

  ==> Algorithm <==

  SCF Algorithm Type is PK.
  DIIS enabled.
  MOM disabled.
  Fractional occupation disabled.
  Guess Type is SAD.
  Energy threshold   = 1.00e-06
  Density threshold  = 1.00e-10
  Integral threshold = 0.00e+00

  ==> Primary Basis <==

  Basis Set: CC-PVDZ
    Blend: CC-PVDZ
    Number of shells: 96
    Number of basis function: 196
    Number of Cartesian functions: 205
    Spherical Harmonics?: true
    Max angular momentum: 2

  ==> Pre-Iterations <==

   -------------------------------------------------------
    Irrep   Nso     Nmo     Nalpha   Nbeta   Ndocc  Nsocc
   -------------------------------------------------------
     A        196     196       0       0       0       0
   -------------------------------------------------------
    Total     196     196      34      34      34       0
   -------------------------------------------------------

  ==> Integral Setup <==

  Using integral reordering PK algorithm.
  Sizing the integral batches needed.
  Building batch lookup table.
   Calculation information:
      Number of atoms:                  23
      Number of AO shells:              96
      Number of primitives:            268
      Number of atomic orbitals:       205
      Number of basis functions:       196

      Integral cutoff                 1.00e-12
      Number of threads:                 1

	Batch   1 pq = [       0,    9405] index = [             0,44231715] size =     44231715
	Batch   2 pq = [    9405,   13301] index = [      44231715,88464951] size =     44233236
	Batch   3 pq = [   13301,   16290] index = [      88464951,132690195] size =     44225244
	Batch   4 pq = [   16290,   18810] index = [     132690195,176917455] size =     44227260
	Batch   5 pq = [   18810,   19306] index = [     176917455,186370471] size =      9453016
  Task number: 17
  Buffer size: 11059200
  Buffer per thread: 2
  We computed 8471444 shell quartets total.
  Whereas there are 10841496 unique shell quartets.

  ==> DiskJK: Disk-Based J/K Matrices <==

    J tasked:                  Yes
    K tasked:                  Yes
    wK tasked:                  No
    Memory [MiB]:              375
    Schwarz Cutoff:          1E-12

    OpenMP threads:              1

  Minimum eigenvalue in the overlap matrix is 3.1393203549E-04.
  Using Symmetric Orthogonalization.

  SCF Guess: Superposition of Atomic Densities via on-the-fly atomic UHF.

  ==> Iterations <==

                        Total Energy        Delta E     RMS |[F,P]|

   @RHF iter SAD:  -347.86062172762360   -3.47861e+02   0.00000e+00
   @RHF iter   1:  -348.76751648144489   -9.06895e-01   2.89395e-03 DIIS
   @RHF iter   2:  -348.96009294730987   -1.92576e-01   1.19641e-03 DIIS
   @RHF iter   3:  -348.99006216749655   -2.99692e-02   2.57816e-04 DIIS
   @RHF iter   4:  -348.99252454139878   -2.46237e-03   5.31706e-05 DIIS
   @RHF iter   5:  -348.99259807527267   -7.35339e-05   1.82664e-05 DIIS
   @RHF iter   6:  -348.99260614206520   -8.06679e-06   4.80166e-06 DIIS
   @RHF iter   7:  -348.99260679264302   -6.50578e-07   1.21450e-06 DIIS
   @RHF iter   8:  -348.99260683642422   -4.37812e-08   2.61520e-07 DIIS
   @RHF iter   9:  -348.99260683934466   -2.92044e-09   9.00315e-08 DIIS
   @RHF iter  10:  -348.99260683965588   -3.11218e-10   3.17725e-08 DIIS
   @RHF iter  11:  -348.99260683970562   -4.97380e-11   9.13230e-09 DIIS
   @RHF iter  12:  -348.99260683971102   -5.40012e-12   4.70340e-09 DIIS
   @RHF iter  13:  -348.99260683971249   -1.47793e-12   1.99984e-09 DIIS
   @RHF iter  14:  -348.99260683971607   -3.58114e-12   8.43598e-10 DIIS
   @RHF iter  15:  -348.99260683971295    3.12639e-12   3.11500e-10 DIIS
   @RHF iter  16:  -348.99260683971283    1.13687e-13   6.83301e-11 DIIS
  Energy and wave function converged.

  ==> Post-Iterations <==

    Orbital Energies [Eh]
    ---------------------

    Doubly Occupied:

       1A    -11.241249     2A    -11.236214     3A    -11.234494
       4A    -11.231370     5A    -11.231052     6A    -11.230761
       7A    -11.229189     8A    -11.217007     9A    -11.212646
      10A     -1.151371    11A     -1.043928    12A     -1.018446
      13A     -1.010984    14A     -0.930708    15A     -0.834681
      16A     -0.824701    17A     -0.794962    18A     -0.690671
      19A     -0.631648    20A     -0.630380    21A     -0.599545
      22A     -0.595805    23A     -0.582322    24A     -0.576816
      25A     -0.561834    26A     -0.534000    27A     -0.500319
      28A     -0.490198    29A     -0.484474    30A     -0.483948
      31A     -0.481456    32A     -0.478350    33A     -0.331654
      34A     -0.321359

    Virtual:

      35A      0.134603    36A      0.140273    37A      0.171036
      38A      0.191045    39A      0.206291    40A      0.223091
      41A      0.226346    42A      0.243165    43A      0.254144
      44A      0.261512    45A      0.265977    46A      0.277552
      47A      0.284052    48A      0.294054    49A      0.302098
      50A      0.320268    51A      0.364297    52A      0.375857
      53A      0.401383    54A      0.451635    55A      0.461740
      56A      0.478291    57A      0.490827    58A      0.560790
      59A      0.589738    60A      0.602428    61A      0.608160
      62A      0.615878    63A      0.638067    64A      0.665297
      65A      0.680269    66A      0.684232    67A      0.698047
      68A      0.715902    69A      0.724355    70A      0.738759
      71A      0.741390    72A      0.748362    73A      0.756819
      74A      0.761320    75A      0.779671    76A      0.810579
      77A      0.832069    78A      0.860113    79A      0.864338
      80A      0.869973    81A      0.876445    82A      0.884129
      83A      0.890650    84A      0.892775    85A      0.898686
      86A      0.901148    87A      0.911009    88A      0.920937
      89A      0.931808    90A      0.938030    91A      0.940030
      92A      0.953955    93A      0.983063    94A      1.000675
      95A      1.022783    96A      1.068462    97A      1.117240
      98A      1.124998    99A      1.132555   100A      1.146593
     101A      1.157421   102A      1.163437   103A      1.192670
     104A      1.229966   105A      1.239365   106A      1.248638
     107A      1.255144   108A      1.279518   109A      1.299521
     110A      1.311393   111A      1.317477   112A      1.333249
     113A      1.413344   114A      1.475634   115A      1.484692
     116A      1.508346   117A      1.520234   118A      1.552698
     119A      1.573786   120A      1.605825   121A      1.679336
     122A      1.683604   123A      1.698644   124A      1.705076
     125A      1.728845   126A      1.753564   127A      1.757386
     128A      1.786264   129A      1.808415   130A      1.853332
     131A      1.863452   132A      1.876983   133A      1.886976
     134A      1.891375   135A      1.901343   136A      1.910726
     137A      1.916361   138A      1.921595   139A      1.938662
     140A      1.944648   141A      1.949288   142A      1.952896
     143A      1.959879   144A      1.966834   145A      1.975204
     146A      1.984132   147A      2.003307   148A      2.004110
     149A      2.034021   150A      2.059892   151A      2.064055
     152A      2.094595   153A      2.110142   154A      2.132968
     155A      2.147916   156A      2.158811   157A      2.163101
     158A      2.174194   159A      2.185717   160A      2.254467
     161A      2.275930   162A      2.294857   163A      2.299280
     164A      2.301142   165A      2.311315   166A      2.317513
     167A      2.339521   168A      2.457532   169A      2.467523
     170A      2.470064   171A      2.476427   172A      2.499659
     173A      2.539166   174A      2.559811   175A      2.589098
     176A      2.619187   177A      2.740891   178A      2.753769
     179A      2.766877   180A      2.768642   181A      2.783871
     182A      2.800003   183A      2.814033   184A      2.849791
     185A      2.856228   186A      2.862384   187A      2.871378
     188A      2.953576   189A      2.968792   190A      2.988936
     191A      3.007624   192A      3.025146   193A      3.154057
     194A      3.197248   195A      3.297605   196A      3.964342

    Final Occupation by Irrep:
              A
    DOCC [    34 ]

  @RHF Final Energy:  -348.99260683971283

   => Energetics <=

    Nuclear Repulsion Energy =            398.6243609933812877
    One-Electron Energy =               -1259.9368503503924330
    Two-Electron Energy =                 512.3198825172983106
    Total Energy =                       -348.9926068397128347

Computation Completed

Properties will be evaluated at   0.000000,   0.000000,   0.000000 [a0]

Properties computed using the SCF density matrix

  Nuclear Dipole Moment: [e a0]
     X:   -10.8570      Y:     2.0181      Z:    -3.0085

  Electronic Dipole Moment: [e a0]
     X:    10.9514      Y:    -2.1028      Z:     2.9431

  Dipole Moment: [e a0]
     X:     0.0944      Y:    -0.0847      Z:    -0.0653     Total:     0.1427

  Dipole Moment: [D]
     X:     0.2399      Y:    -0.2152      Z:    -0.1661     Total:     0.3626

*** tstop() called on ds3 at Mon Apr 27 16:34:11 2020
Module time:
	user time   =      65.75 seconds =       1.10 minutes
	system time =      30.07 seconds =       0.50 minutes
	total time  =         92 seconds =       1.53 minutes
Total time:
	user time   =      65.75 seconds =       1.10 minutes
	system time =      30.07 seconds =       0.50 minutes
	total time  =         92 seconds =       1.53 minutes
                                     G D M A

                                 by Anthony Stone

                           version 2.2.06, 22 June 2011

               Distributed Multipoles from Gaussian wavefunctions

Starting at 16:34:11 on 27 Apr 2020

Using SCF density matrix from file ./SSI/SSI-043LEU-071PHE-1-dimer.test.27155.fchk

                         Distributed Multipole Analysis

Standard DMA

Positions and radii in angstrom
Multipole moments in atomic units, ea_0^k for rank k

C          x = -3.220594  y =  1.858023  z = -0.442498 angstrom
           Maximum rank =  0   Radius =  0.650 angstrom
                   Q00  =  -0.236575

C          x = -4.526594  y =  1.076023  z = -0.500498 angstrom
           Maximum rank =  0   Radius =  0.650 angstrom
                   Q00  =  -0.234593

H          x = -3.170594  y =  2.590023  z = -1.247498 angstrom
           Maximum rank =  0   Radius =  0.325 angstrom
                   Q00  =   0.080496

H          x = -3.167594  y =  2.390023  z =  0.506502 angstrom
           Maximum rank =  0   Radius =  0.325 angstrom
                   Q00  =   0.072475

H          x = -2.374594  y =  1.178023  z = -0.508498 angstrom
           Maximum rank =  0   Radius =  0.325 angstrom
                   Q00  =   0.086982

H          x = -5.318594  y =  1.816023  z = -0.465498 angstrom
           Maximum rank =  0   Radius =  0.325 angstrom
                   Q00  =   0.075524

H          x = -4.609670  y =  0.473723  z = -1.417196 angstrom
           Maximum rank =  0   Radius =  0.325 angstrom
                   Q00  =   0.080947

H          x = -4.629987  y =  0.426023  z =  0.380870 angstrom
           Maximum rank =  0   Radius =  0.325 angstrom
                   Q00  =   0.074831

C          x =  2.361406  y = -2.407977  z = -0.881498 angstrom
           Maximum rank =  0   Radius =  0.650 angstrom
                   Q00  =  -0.202499

C          x = -0.248594  y = -0.228977  z =  0.815502 angstrom
           Maximum rank =  0   Radius =  0.650 angstrom
                   Q00  =  -0.080142

C          x =  0.430406  y =  0.976023  z =  0.945502 angstrom
           Maximum rank =  0   Radius =  0.650 angstrom
                   Q00  =  -0.079315

C          x =  0.380406  y = -1.322977  z =  0.223502 angstrom
           Maximum rank =  0   Radius =  0.650 angstrom
                   Q00  =   0.002356

C          x =  1.692406  y = -1.220977  z = -0.243498 angstrom
           Maximum rank =  0   Radius =  0.650 angstrom
                   Q00  =  -0.096080

C          x =  1.739406  y =  1.092023  z =  0.476502 angstrom
           Maximum rank =  0   Radius =  0.650 angstrom
                   Q00  =  -0.060126

C          x =  2.364406  y = -0.001977  z = -0.123498 angstrom
           Maximum rank =  0   Radius =  0.650 angstrom
                   Q00  =  -0.093139

H          x = -1.269594  y = -0.296977  z =  1.148502 angstrom
           Maximum rank =  0   Radius =  0.325 angstrom
                   Q00  =   0.065408

H          x = -0.060594  y =  1.818023  z =  1.409502 angstrom
           Maximum rank =  0   Radius =  0.325 angstrom
                   Q00  =   0.062652

H          x = -0.164594  y = -2.249977  z =  0.113502 angstrom
           Maximum rank =  0   Radius =  0.325 angstrom
                   Q00  =   0.057635

H          x =  2.268406  y =  2.030023  z =  0.569502 angstrom
           Maximum rank =  0   Radius =  0.325 angstrom
                   Q00  =   0.065632

H          x =  2.968406  y = -2.066977  z = -1.721498 angstrom
           Maximum rank =  0   Radius =  0.325 angstrom
                   Q00  =   0.098208

H          x =  1.588406  y = -3.059977  z = -1.288498 angstrom
           Maximum rank =  0   Radius =  0.325 angstrom
                   Q00  =   0.096129

H          x =  3.373406  y =  0.100023  z = -0.496498 angstrom
           Maximum rank =  0   Radius =  0.325 angstrom
                   Q00  =   0.057404

H          x =  2.986013  y = -2.995297  z = -0.192350 angstrom
           Maximum rank =  0   Radius =  0.325 angstrom
                   Q00  =   0.105792

Total multipoles referred to origin at
           x =   0.000000,  y =    0.000000,  z =    0.000000 angstrom
                   Q00  =  -0.000000

Finished at 16:34:11 on 27 Apr 2020

  DMA results are available in the Python driver through the
	  variable('DMA DISTRIBUTED MULTIPOLES')
  and
	  variable('DMA TOTAL MULTIPOLES')
  commands.

    Psi4 stopped on: Monday, 27 April 2020 04:34PM
    Psi4 wall time for execution: 0:01:31.52

*** Psi4 exiting successfully. Buy a developer a beer!
