                               Psi4 1.3.2 release

  ==> Input File <==

--------------------------------------------------------------------------
import numpy as np
set {scf_type pk
basis cc-pvdz
d_convergence 10
gdma_switch   0
gdma_limit    0
gdma_origin   [ 0.0,  0.0,  0.0 ]
}
molecule test {
    units Angstrom
    0 1
    --
    0 1
    C                2.705571870733162     1.491457784410034     1.724338863547493
    C                0.513571870733163    -0.112542215589966    -0.889661136452507
    C                0.821571870733163     0.988457784410034    -0.047661136452507
    C                1.989571870733162     0.631457784410034     0.721338863547493
    C                2.325571870733163    -0.630542215589966     0.330338863547493
    C               -0.563428129266838    -0.101542215589966    -1.768661136452507
    C               -1.353428129266838     1.034457784410034    -1.811661136452507
    C                0.003571870733163     2.127457784410034    -0.108661136452507
    C               -1.077428129266838     2.138457784410034    -0.992661136452507
    N                1.449571870733163    -1.079542215589967    -0.632661136452507
    H                1.483571870733162    -2.004542215589966    -1.048661136452507
    H               -0.771428129266837    -0.953542215589967    -2.401661136452507
    H                3.156571870733162    -1.201542215589966     0.728338863547493
    H               -2.198428129266838     1.070457784410034    -2.484661136452507
    H                0.204571870733163     2.971457784410034     0.529338863547493
    H                3.106571870733162     0.860457784410034     2.516338863547493
    H                1.967571870733163     2.142457784410034     2.196338863547493
    H               -1.719428129266837     3.009457784410033    -1.043661136452507
    H                3.494811870733162     2.122417784410034     1.289608863547493
    C               -2.215428129266838    -1.435542215589966     1.300338863547493
    C               -1.091428129266838    -2.440542215589966     1.541338863547493
    C               -3.066428129266837    -1.795542215589967     0.091338863547493
    H               -2.864428129266838    -1.394542215589966     2.175338863547493
    H               -1.781428129266838    -0.446542215589966     1.145338863547493
    H               -0.464428129266837    -2.488542215589966     0.651338863547493
    H               -1.524428129266838    -3.431542215589966     1.695338863547493
    H               -2.430428129266837    -1.814542215589966    -0.794661136452507
    H               -3.480428129266838    -2.798542215589966     0.209338863547493
    H               -0.465688129266837    -2.175452215589967     2.406308863547493
    H               -3.850268129266837    -1.037152215589966    -0.051651136452507

}
e, wfn = energy('scf', return_wfn=True)
gdma(wfn)
dmavals = variable('DMA DISTRIBUTED MULTIPOLES')
charges = np.array(dmavals)
print(charges)
np.save('SSI-085TRP-089ARG-1-dimer.npy', np.array(charges))--------------------------------------------------------------------------

*** tstart() called on ds3
*** at Mon Apr 27 13:38:48 2020

   => Loading Basis Set <=

    Name: CC-PVDZ
    Role: ORBITAL
    Keyword: BASIS
    atoms 1-9, 20-22   entry C          line   138 file /theoryfs2/ds/metcalf/miniconda2/envs/tf2gpu/share/psi4/basis/cc-pvdz.gbs
    atoms 10           entry N          line   168 file /theoryfs2/ds/metcalf/miniconda2/envs/tf2gpu/share/psi4/basis/cc-pvdz.gbs
    atoms 11-19, 23-30 entry H          line    22 file /theoryfs2/ds/metcalf/miniconda2/envs/tf2gpu/share/psi4/basis/cc-pvdz.gbs

         ---------------------------------------------------------
                                   SCF
               by Justin Turney, Rob Parrish, Andy Simmonett
                          and Daniel G. A. Smith
                              RHF Reference
                        1 Threads,    500 MiB Core
         ---------------------------------------------------------

  ==> Geometry <==

    Molecular point group: c1
    Full point group: C1

    Geometry (in Angstrom), charge = 0, multiplicity = 1:

       Center              X                  Y                   Z               Mass
    ------------   -----------------  -----------------  -----------------  -----------------
         C            2.705571870733     1.491457784410     1.724338863547    12.000000000000
         C            0.513571870733    -0.112542215590    -0.889661136453    12.000000000000
         C            0.821571870733     0.988457784410    -0.047661136453    12.000000000000
         C            1.989571870733     0.631457784410     0.721338863547    12.000000000000
         C            2.325571870733    -0.630542215590     0.330338863547    12.000000000000
         C           -0.563428129267    -0.101542215590    -1.768661136453    12.000000000000
         C           -1.353428129267     1.034457784410    -1.811661136453    12.000000000000
         C            0.003571870733     2.127457784410    -0.108661136453    12.000000000000
         C           -1.077428129267     2.138457784410    -0.992661136453    12.000000000000
         N            1.449571870733    -1.079542215590    -0.632661136453    14.003074004430
         H            1.483571870733    -2.004542215590    -1.048661136453     1.007825032230
         H           -0.771428129267    -0.953542215590    -2.401661136453     1.007825032230
         H            3.156571870733    -1.201542215590     0.728338863547     1.007825032230
         H           -2.198428129267     1.070457784410    -2.484661136453     1.007825032230
         H            0.204571870733     2.971457784410     0.529338863547     1.007825032230
         H            3.106571870733     0.860457784410     2.516338863547     1.007825032230
         H            1.967571870733     2.142457784410     2.196338863547     1.007825032230
         H           -1.719428129267     3.009457784410    -1.043661136453     1.007825032230
         H            3.494811870733     2.122417784410     1.289608863547     1.007825032230
         C           -2.215428129267    -1.435542215590     1.300338863547    12.000000000000
         C           -1.091428129267    -2.440542215590     1.541338863547    12.000000000000
         C           -3.066428129267    -1.795542215590     0.091338863547    12.000000000000
         H           -2.864428129267    -1.394542215590     2.175338863547     1.007825032230
         H           -1.781428129267    -0.446542215590     1.145338863547     1.007825032230
         H           -0.464428129267    -2.488542215590     0.651338863547     1.007825032230
         H           -1.524428129267    -3.431542215590     1.695338863547     1.007825032230
         H           -2.430428129267    -1.814542215590    -0.794661136453     1.007825032230
         H           -3.480428129267    -2.798542215590     0.209338863547     1.007825032230
         H           -0.465688129267    -2.175452215590     2.406308863547     1.007825032230
         H           -3.850268129267    -1.037152215590    -0.051651136453     1.007825032230

  Running in c1 symmetry.

  Rotational constants: A =      0.03133  B =      0.02071  C =      0.01624 [cm^-1]
  Rotational constants: A =    939.23752  B =    620.76768  C =    486.85459 [MHz]
  Nuclear repulsion =  779.209261104540360

  Charge       = 0
  Multiplicity = 1
  Electrons    = 96
  Nalpha       = 48
  Nbeta        = 48

  ==> Algorithm <==

  SCF Algorithm Type is PK.
  DIIS enabled.
  MOM disabled.
  Fractional occupation disabled.
  Guess Type is SAD.
  Energy threshold   = 1.00e-06
  Density threshold  = 1.00e-10
  Integral threshold = 0.00e+00

  ==> Primary Basis <==

  Basis Set: CC-PVDZ
    Blend: CC-PVDZ
    Number of shells: 129
    Number of basis function: 267
    Number of Cartesian functions: 280
    Spherical Harmonics?: true
    Max angular momentum: 2

  ==> Pre-Iterations <==

   -------------------------------------------------------
    Irrep   Nso     Nmo     Nalpha   Nbeta   Ndocc  Nsocc
   -------------------------------------------------------
     A        267     267       0       0       0       0
   -------------------------------------------------------
    Total     267     267      48      48      48       0
   -------------------------------------------------------

  ==> Integral Setup <==

  Using integral reordering PK algorithm.
  Sizing the integral batches needed.
  Building batch lookup table.
   Calculation information:
      Number of atoms:                  30
      Number of AO shells:             129
      Number of primitives:            371
      Number of atomic orbitals:       280
      Number of basis functions:       267

      Integral cutoff                 1.00e-12
      Number of threads:                 1

	Batch   1 pq = [       0,    9405] index = [             0,44231715] size =     44231715
	Batch   2 pq = [    9405,   13301] index = [      44231715,88464951] size =     44233236
	Batch   3 pq = [   13301,   16290] index = [      88464951,132690195] size =     44225244
	Batch   4 pq = [   16290,   18810] index = [     132690195,176917455] size =     44227260
	Batch   5 pq = [   18810,   21030] index = [     176917455,221140965] size =     44223510
	Batch   6 pq = [   21030,   23037] index = [     221140965,265363203] size =     44222238
	Batch   7 pq = [   23037,   24883] index = [     265363203,309594286] size =     44231083
	Batch   8 pq = [   24883,   26601] index = [     309594286,353819901] size =     44225615
	Batch   9 pq = [   26601,   28214] index = [     353819901,398029005] size =     44209104
	Batch  10 pq = [   28214,   29740] index = [     398029005,442248670] size =     44219665
	Batch  11 pq = [   29740,   31191] index = [     442248670,486454836] size =     44206166
	Batch  12 pq = [   31191,   32578] index = [     486454836,530679331] size =     44224495
	Batch  13 pq = [   32578,   33908] index = [     530679331,574893186] size =     44213855
	Batch  14 pq = [   33908,   35188] index = [     574893186,619115266] size =     44222080
	Batch  15 pq = [   35188,   35778] index = [     619115266,640050531] size =     20935265
  Task number: 58
  Buffer size: 11059200
  Buffer per thread: 2
  We computed 41200497 shell quartets total.
  Whereas there are 35158305 unique shell quartets.
    17.19 percent of shell quartets recomputed by reordering.

  ==> DiskJK: Disk-Based J/K Matrices <==

    J tasked:                  Yes
    K tasked:                  Yes
    wK tasked:                  No
    Memory [MiB]:              375
    Schwarz Cutoff:          1E-12

    OpenMP threads:              1

  Minimum eigenvalue in the overlap matrix is 2.3865256228E-04.
  Using Symmetric Orthogonalization.

  SCF Guess: Superposition of Atomic Densities via on-the-fly atomic UHF.

  ==> Iterations <==

                        Total Energy        Delta E     RMS |[F,P]|

   @RHF iter SAD:  -518.05553550758577   -5.18056e+02   0.00000e+00
   @RHF iter   1:  -518.49211499024557   -4.36579e-01   2.50561e-03 DIIS
   @RHF iter   2:  -518.75058695962537   -2.58472e-01   1.12900e-03 DIIS
   @RHF iter   3:  -518.79863617192029   -4.80492e-02   2.86279e-04 DIIS
   @RHF iter   4:  -518.80281940337215   -4.18323e-03   1.28930e-04 DIIS
   @RHF iter   5:  -518.80347855122147   -6.59148e-04   1.97659e-05 DIIS
   @RHF iter   6:  -518.80350892898207   -3.03778e-05   8.90567e-06 DIIS
   @RHF iter   7:  -518.80351504550072   -6.11652e-06   3.35260e-06 DIIS
   @RHF iter   8:  -518.80351651358103   -1.46808e-06   1.42923e-06 DIIS
   @RHF iter   9:  -518.80351683341303   -3.19832e-07   5.95296e-07 DIIS
   @RHF iter  10:  -518.80351689726865   -6.38556e-08   2.59448e-07 DIIS
   @RHF iter  11:  -518.80351691221188   -1.49432e-08   1.08564e-07 DIIS
   @RHF iter  12:  -518.80351691473084   -2.51896e-09   3.96913e-08 DIIS
   @RHF iter  13:  -518.80351691495241   -2.21576e-10   1.06511e-08 DIIS
   @RHF iter  14:  -518.80351691496833   -1.59162e-11   4.24595e-09 DIIS
   @RHF iter  15:  -518.80351691496651    1.81899e-12   1.95759e-09 DIIS
   @RHF iter  16:  -518.80351691496821   -1.70530e-12   1.01221e-09 DIIS
   @RHF iter  17:  -518.80351691497037   -2.16005e-12   4.08095e-10 DIIS
   @RHF iter  18:  -518.80351691496742    2.95586e-12   1.62856e-10 DIIS
   @RHF iter  19:  -518.80351691497322   -5.79803e-12   5.86208e-11 DIIS
  Energy and wave function converged.

  ==> Post-Iterations <==

    Orbital Energies [Eh]
    ---------------------

    Doubly Occupied:

       1A    -15.603188     2A    -11.265844     3A    -11.265446
       4A    -11.232810     5A    -11.231904     6A    -11.230266
       7A    -11.228548     8A    -11.223837     9A    -11.223565
      10A    -11.220569    11A    -11.207056    12A    -11.205945
      13A    -11.205294    14A     -1.295924    15A     -1.129138
      16A     -1.073445    17A     -1.044458    18A     -0.997860
      19A     -0.988780    20A     -0.932775    21A     -0.914134
      22A     -0.841265    23A     -0.804340    24A     -0.785783
      25A     -0.753871    26A     -0.721276    27A     -0.663701
      28A     -0.643528    29A     -0.620178    30A     -0.603687
      31A     -0.592437    32A     -0.589468    33A     -0.586950
      34A     -0.568466    35A     -0.555323    36A     -0.540396
      37A     -0.538587    38A     -0.526779    39A     -0.519931
      40A     -0.495405    41A     -0.473077    42A     -0.465810
      43A     -0.462313    44A     -0.458342    45A     -0.453031
      46A     -0.373417    47A     -0.296811    48A     -0.276555

    Virtual:

      49A      0.123059    50A      0.166699    51A      0.173124
      52A      0.185864    53A      0.195911    54A      0.206656
      55A      0.214576    56A      0.227311    57A      0.230204
      58A      0.248004    59A      0.251295    60A      0.261329
      61A      0.263142    62A      0.272887    63A      0.288567
      64A      0.291549    65A      0.303824    66A      0.305305
      67A      0.320692    68A      0.346505    69A      0.368369
      70A      0.379565    71A      0.387980    72A      0.403145
      73A      0.421420    74A      0.440445    75A      0.442787
      76A      0.469450    77A      0.480148    78A      0.500514
      79A      0.511309    80A      0.581307    81A      0.582295
      82A      0.596498    83A      0.602128    84A      0.620973
      85A      0.628931    86A      0.636401    87A      0.636886
      88A      0.657161    89A      0.670339    90A      0.689009
      91A      0.712577    92A      0.726034    93A      0.732083
      94A      0.734342    95A      0.744793    96A      0.755086
      97A      0.762438    98A      0.762810    99A      0.770095
     100A      0.784277   101A      0.797604   102A      0.820063
     103A      0.836749   104A      0.849606   105A      0.860945
     106A      0.866238   107A      0.871466   108A      0.874256
     109A      0.877085   110A      0.884499   111A      0.885895
     112A      0.898127   113A      0.899728   114A      0.914909
     115A      0.921089   116A      0.927716   117A      0.929759
     118A      0.939524   119A      0.948765   120A      0.952331
     121A      0.959766   122A      0.963433   123A      0.974684
     124A      1.000815   125A      1.008668   126A      1.011574
     127A      1.018594   128A      1.045858   129A      1.076466
     130A      1.097297   131A      1.117620   132A      1.128227
     133A      1.139000   134A      1.142448   135A      1.150302
     136A      1.155947   137A      1.177419   138A      1.196219
     139A      1.214695   140A      1.220970   141A      1.225373
     142A      1.234011   143A      1.248714   144A      1.270064
     145A      1.283501   146A      1.288204   147A      1.304620
     148A      1.325991   149A      1.331897   150A      1.360528
     151A      1.363666   152A      1.386704   153A      1.419413
     154A      1.438586   155A      1.502342   156A      1.507394
     157A      1.520285   158A      1.536325   159A      1.553891
     160A      1.582505   161A      1.601642   162A      1.618018
     163A      1.628963   164A      1.643439   165A      1.648610
     166A      1.688942   167A      1.694328   168A      1.701730
     169A      1.706367   170A      1.714679   171A      1.756515
     172A      1.762805   173A      1.771548   174A      1.794613
     175A      1.813757   176A      1.831137   177A      1.847859
     178A      1.862269   179A      1.879939   180A      1.886124
     181A      1.892417   182A      1.898381   183A      1.910002
     184A      1.917747   185A      1.918278   186A      1.928614
     187A      1.941691   188A      1.945947   189A      1.952242
     190A      1.960946   191A      1.967386   192A      1.981147
     193A      1.984044   194A      1.992389   195A      1.996258
     196A      2.008825   197A      2.017462   198A      2.024471
     199A      2.030207   200A      2.038599   201A      2.044430
     202A      2.066842   203A      2.077819   204A      2.091158
     205A      2.094920   206A      2.108319   207A      2.119672
     208A      2.124305   209A      2.139278   210A      2.151781
     211A      2.162976   212A      2.170224   213A      2.179340
     214A      2.193823   215A      2.227823   216A      2.264320
     217A      2.285755   218A      2.304393   219A      2.305239
     220A      2.312084   221A      2.320932   222A      2.337296
     223A      2.340533   224A      2.350343   225A      2.380852
     226A      2.403328   227A      2.406610   228A      2.447930
     229A      2.463234   230A      2.514265   231A      2.547508
     232A      2.550842   233A      2.587274   234A      2.592971
     235A      2.614727   236A      2.624844   237A      2.635744
     238A      2.643129   239A      2.677164   240A      2.683478
     241A      2.711094   242A      2.766101   243A      2.766605
     244A      2.770848   245A      2.784306   246A      2.796203
     247A      2.801890   248A      2.823890   249A      2.828849
     250A      2.835768   251A      2.858692   252A      2.873875
     253A      2.910632   254A      2.948352   255A      2.972204
     256A      2.993848   257A      2.997399   258A      3.028365
     259A      3.056950   260A      3.076906   261A      3.094585
     262A      3.125567   263A      3.202554   264A      3.294500
     265A      3.374070   266A      3.742076   267A      3.946380

    Final Occupation by Irrep:
              A
    DOCC [    48 ]

  @RHF Final Energy:  -518.80351691497322

   => Energetics <=

    Nuclear Repulsion Energy =            779.2092611045403601
    One-Electron Energy =               -2248.1625372090334167
    Two-Electron Energy =                 950.1497591895197274
    Total Energy =                       -518.8035169149732155

Computation Completed

Properties will be evaluated at   0.000000,   0.000000,   0.000000 [a0]

Properties computed using the SCF density matrix

  Nuclear Dipole Moment: [e a0]
     X:    -7.6325      Y:    -7.0933      Z:     7.2372

  Electronic Dipole Moment: [e a0]
     X:     8.0933      Y:     6.5507      Z:    -7.2906

  Dipole Moment: [e a0]
     X:     0.4607      Y:    -0.5426      Z:    -0.0533     Total:     0.7138

  Dipole Moment: [D]
     X:     1.1711      Y:    -1.3791      Z:    -0.1356     Total:     1.8143

*** tstop() called on ds3 at Mon Apr 27 13:47:29 2020
Module time:
	user time   =     362.12 seconds =       6.04 minutes
	system time =     111.81 seconds =       1.86 minutes
	total time  =        521 seconds =       8.68 minutes
Total time:
	user time   =     362.12 seconds =       6.04 minutes
	system time =     111.81 seconds =       1.86 minutes
	total time  =        521 seconds =       8.68 minutes
                                     G D M A

                                 by Anthony Stone

                           version 2.2.06, 22 June 2011

               Distributed Multipoles from Gaussian wavefunctions

Starting at 13:47:30 on 27 Apr 2020

Using SCF density matrix from file ./SSI/SSI-085TRP-089ARG-1-dimer.test.7405.fchk

                         Distributed Multipole Analysis

Standard DMA

Positions and radii in angstrom
Multipole moments in atomic units, ea_0^k for rank k

C          x =  2.705572  y =  1.491458  z =  1.724339 angstrom
           Maximum rank =  0   Radius =  0.650 angstrom
                   Q00  =  -0.213807

C          x =  0.513572  y = -0.112542  z = -0.889661 angstrom
           Maximum rank =  0   Radius =  0.650 angstrom
                   Q00  =   0.292010

C          x =  0.821572  y =  0.988458  z = -0.047661 angstrom
           Maximum rank =  0   Radius =  0.650 angstrom
                   Q00  =  -0.049455

C          x =  1.989572  y =  0.631458  z =  0.721339 angstrom
           Maximum rank =  0   Radius =  0.650 angstrom
                   Q00  =  -0.125964

C          x =  2.325572  y = -0.630542  z =  0.330339 angstrom
           Maximum rank =  0   Radius =  0.650 angstrom
                   Q00  =   0.074890

C          x = -0.563428  y = -0.101542  z = -1.768661 angstrom
           Maximum rank =  0   Radius =  0.650 angstrom
                   Q00  =  -0.119892

C          x = -1.353428  y =  1.034458  z = -1.811661 angstrom
           Maximum rank =  0   Radius =  0.650 angstrom
                   Q00  =  -0.069035

C          x =  0.003572  y =  2.127458  z = -0.108661 angstrom
           Maximum rank =  0   Radius =  0.650 angstrom
                   Q00  =  -0.099775

C          x = -1.077428  y =  2.138458  z = -0.992661 angstrom
           Maximum rank =  0   Radius =  0.650 angstrom
                   Q00  =  -0.089168

N          x =  1.449572  y = -1.079542  z = -0.632661 angstrom
           Maximum rank =  0   Radius =  0.650 angstrom
                   Q00  =  -0.493393

H          x =  1.483572  y = -2.004542  z = -1.048661 angstrom
           Maximum rank =  0   Radius =  0.325 angstrom
                   Q00  =   0.220629

H          x = -0.771428  y = -0.953542  z = -2.401661 angstrom
           Maximum rank =  0   Radius =  0.325 angstrom
                   Q00  =   0.073092

H          x =  3.156572  y = -1.201542  z =  0.728339 angstrom
           Maximum rank =  0   Radius =  0.325 angstrom
                   Q00  =   0.100927

H          x = -2.198428  y =  1.070458  z = -2.484661 angstrom
           Maximum rank =  0   Radius =  0.325 angstrom
                   Q00  =   0.066318

H          x =  0.204572  y =  2.971458  z =  0.529339 angstrom
           Maximum rank =  0   Radius =  0.325 angstrom
                   Q00  =   0.071404

H          x =  3.106572  y =  0.860458  z =  2.516339 angstrom
           Maximum rank =  0   Radius =  0.325 angstrom
                   Q00  =   0.105380

H          x =  1.967572  y =  2.142458  z =  2.196339 angstrom
           Maximum rank =  0   Radius =  0.325 angstrom
                   Q00  =   0.102180

H          x = -1.719428  y =  3.009458  z = -1.043661 angstrom
           Maximum rank =  0   Radius =  0.325 angstrom
                   Q00  =   0.061506

H          x =  3.494812  y =  2.122418  z =  1.289609 angstrom
           Maximum rank =  0   Radius =  0.325 angstrom
                   Q00  =   0.102500

C          x = -2.215428  y = -1.435542  z =  1.300339 angstrom
           Maximum rank =  0   Radius =  0.650 angstrom
                   Q00  =  -0.069213

C          x = -1.091428  y = -2.440542  z =  1.541339 angstrom
           Maximum rank =  0   Radius =  0.650 angstrom
                   Q00  =  -0.241634

C          x = -3.066428  y = -1.795542  z =  0.091339 angstrom
           Maximum rank =  0   Radius =  0.650 angstrom
                   Q00  =  -0.236764

H          x = -2.864428  y = -1.394542  z =  2.175339 angstrom
           Maximum rank =  0   Radius =  0.325 angstrom
                   Q00  =   0.040116

H          x = -1.781428  y = -0.446542  z =  1.145339 angstrom
           Maximum rank =  0   Radius =  0.325 angstrom
                   Q00  =   0.065470

H          x = -0.464428  y = -2.488542  z =  0.651339 angstrom
           Maximum rank =  0   Radius =  0.325 angstrom
                   Q00  =   0.059519

H          x = -1.524428  y = -3.431542  z =  1.695339 angstrom
           Maximum rank =  0   Radius =  0.325 angstrom
                   Q00  =   0.065302

H          x = -2.430428  y = -1.814542  z = -0.794661 angstrom
           Maximum rank =  0   Radius =  0.325 angstrom
                   Q00  =   0.070805

H          x = -3.480428  y = -2.798542  z =  0.209339 angstrom
           Maximum rank =  0   Radius =  0.325 angstrom
                   Q00  =   0.066616

H          x = -0.465688  y = -2.175452  z =  2.406309 angstrom
           Maximum rank =  0   Radius =  0.325 angstrom
                   Q00  =   0.085663

H          x = -3.850268  y = -1.037152  z = -0.051651 angstrom
           Maximum rank =  0   Radius =  0.325 angstrom
                   Q00  =   0.083773

Total multipoles referred to origin at
           x =   0.000000,  y =    0.000000,  z =    0.000000 angstrom
                   Q00  =  -0.000000

Finished at 13:47:30 on 27 Apr 2020

  DMA results are available in the Python driver through the
	  variable('DMA DISTRIBUTED MULTIPOLES')
  and
	  variable('DMA TOTAL MULTIPOLES')
  commands.

    Psi4 stopped on: Monday, 27 April 2020 01:47PM
    Psi4 wall time for execution: 0:08:41.97

*** Psi4 exiting successfully. Buy a developer a beer!
