                               Psi4 1.3.2 release

  ==> Input File <==

--------------------------------------------------------------------------
import numpy as np
set {scf_type pk
basis cc-pvdz
d_convergence 10
gdma_switch   0
gdma_limit    0
gdma_origin   [ 0.0,  0.0,  0.0 ]
}
molecule test {
    units Angstrom
    0 1
    --
    0 1
    C               -1.558308776506854     1.124315699521492    -0.309490133469368
    C               -2.543308776506854     0.803315699521492     0.788509866530632
    H               -2.043308776506854     1.715315699521492    -1.078490133469369
    H               -0.725308776506854     1.694315699521492     0.101509866530632
    H               -1.191308776506854     0.202315699521492    -0.757490133469368
    H               -2.975308776506854     1.722315699521492     1.160509866530632
    H               -1.939308776506854     0.364315699521492     1.577509866530631
    H               -3.338646776506854     0.111779699521492     0.473524566530632
    C                1.380691223493146    -0.768684300478508     0.048509866530632
    C                2.716691223493146    -1.161684300478508    -0.531490133469368
    H                1.039691223493146     0.153315699521492    -0.418490133469368
    H                0.655691223493146    -1.556684300478508    -0.150490133469368
    H                1.466691223493146    -0.625684300478508     1.125509866530631
    H                3.090691223493146    -2.027684300478508     0.000509866530632
    H                3.386191223493145    -0.300379300478508    -0.390351833469368
    H                2.624661223493146    -1.420650300478508    -1.596604133469369

}
e, wfn = energy('scf', return_wfn=True)
gdma(wfn)
dmavals = variable('DMA DISTRIBUTED MULTIPOLES')
charges = np.array(dmavals)
print(charges)
np.save('SSI-043ILE-055LEU-1-dimer.npy', np.array(charges))--------------------------------------------------------------------------

*** tstart() called on ds3
*** at Tue Apr 28 16:49:01 2020

   => Loading Basis Set <=

    Name: CC-PVDZ
    Role: ORBITAL
    Keyword: BASIS
    atoms 1-2, 9-10  entry C          line   138 file /theoryfs2/ds/metcalf/miniconda2/envs/tf2gpu/share/psi4/basis/cc-pvdz.gbs
    atoms 3-8, 11-16 entry H          line    22 file /theoryfs2/ds/metcalf/miniconda2/envs/tf2gpu/share/psi4/basis/cc-pvdz.gbs

         ---------------------------------------------------------
                                   SCF
               by Justin Turney, Rob Parrish, Andy Simmonett
                          and Daniel G. A. Smith
                              RHF Reference
                        1 Threads,    500 MiB Core
         ---------------------------------------------------------

  ==> Geometry <==

    Molecular point group: c1
    Full point group: C1

    Geometry (in Angstrom), charge = 0, multiplicity = 1:

       Center              X                  Y                   Z               Mass
    ------------   -----------------  -----------------  -----------------  -----------------
         C           -1.558308776507     1.124315699521    -0.309490133469    12.000000000000
         C           -2.543308776507     0.803315699521     0.788509866531    12.000000000000
         H           -2.043308776507     1.715315699521    -1.078490133469     1.007825032230
         H           -0.725308776507     1.694315699521     0.101509866531     1.007825032230
         H           -1.191308776507     0.202315699521    -0.757490133469     1.007825032230
         H           -2.975308776507     1.722315699521     1.160509866531     1.007825032230
         H           -1.939308776507     0.364315699521     1.577509866531     1.007825032230
         H           -3.338646776507     0.111779699521     0.473524566531     1.007825032230
         C            1.380691223493    -0.768684300479     0.048509866531    12.000000000000
         C            2.716691223493    -1.161684300479    -0.531490133469    12.000000000000
         H            1.039691223493     0.153315699521    -0.418490133469     1.007825032230
         H            0.655691223493    -1.556684300479    -0.150490133469     1.007825032230
         H            1.466691223493    -0.625684300479     1.125509866531     1.007825032230
         H            3.090691223493    -2.027684300479     0.000509866531     1.007825032230
         H            3.386191223493    -0.300379300479    -0.390351833469     1.007825032230
         H            2.624661223493    -1.420650300479    -1.596604133469     1.007825032230

  Running in c1 symmetry.

  Rotational constants: A =      0.64489  B =      0.04859  C =      0.04682 [cm^-1]
  Rotational constants: A =  19333.21005  B =   1456.62794  C =   1403.61213 [MHz]
  Nuclear repulsion =  123.765494360364968

  Charge       = 0
  Multiplicity = 1
  Electrons    = 36
  Nalpha       = 18
  Nbeta        = 18

  ==> Algorithm <==

  SCF Algorithm Type is PK.
  DIIS enabled.
  MOM disabled.
  Fractional occupation disabled.
  Guess Type is SAD.
  Energy threshold   = 1.00e-06
  Density threshold  = 1.00e-10
  Integral threshold = 0.00e+00

  ==> Primary Basis <==

  Basis Set: CC-PVDZ
    Blend: CC-PVDZ
    Number of shells: 60
    Number of basis function: 116
    Number of Cartesian functions: 120
    Spherical Harmonics?: true
    Max angular momentum: 2

  ==> Pre-Iterations <==

   -------------------------------------------------------
    Irrep   Nso     Nmo     Nalpha   Nbeta   Ndocc  Nsocc
   -------------------------------------------------------
     A        116     116       0       0       0       0
   -------------------------------------------------------
    Total     116     116      18      18      18       0
   -------------------------------------------------------

  ==> Integral Setup <==

  Using integral reordering PK algorithm.
  Sizing the integral batches needed.
  Building batch lookup table.
   Calculation information:
      Number of atoms:                  16
      Number of AO shells:              60
      Number of primitives:            148
      Number of atomic orbitals:       120
      Number of basis functions:       116

      Integral cutoff                 1.00e-12
      Number of threads:                 1

	Batch   1 pq = [       0,    6786] index = [             0,23028291] size =     23028291
  Task number: 3
  Buffer size: 11059200
  Buffer per thread: 2
  We computed 1449838 shell quartets total.
  Whereas there are 1675365 unique shell quartets.

  ==> DiskJK: Disk-Based J/K Matrices <==

    J tasked:                  Yes
    K tasked:                  Yes
    wK tasked:                  No
    Memory [MiB]:              375
    Schwarz Cutoff:          1E-12

    OpenMP threads:              1

  Minimum eigenvalue in the overlap matrix is 6.4273610249E-03.
  Using Symmetric Orthogonalization.

  SCF Guess: Superposition of Atomic Densities via on-the-fly atomic UHF.

  ==> Iterations <==

                        Total Energy        Delta E     RMS |[F,P]|

   @RHF iter SAD:  -157.46284052203242   -1.57463e+02   0.00000e+00
   @RHF iter   1:  -158.29771563259112   -8.34875e-01   4.29485e-03 DIIS
   @RHF iter   2:  -158.43525927846090   -1.37544e-01   1.82688e-03 DIIS
   @RHF iter   3:  -158.45940996389581   -2.41507e-02   3.54136e-04 DIIS
   @RHF iter   4:  -158.46128485575633   -1.87489e-03   3.93419e-05 DIIS
   @RHF iter   5:  -158.46130965460836   -2.47989e-05   6.56243e-06 DIIS
   @RHF iter   6:  -158.46131032029808   -6.65690e-07   9.76233e-07 DIIS
   @RHF iter   7:  -158.46131033094585   -1.06478e-08   3.00513e-07 DIIS
   @RHF iter   8:  -158.46131033177517   -8.29317e-10   5.03617e-08 DIIS
   @RHF iter   9:  -158.46131033181740   -4.22347e-11   1.11850e-08 DIIS
   @RHF iter  10:  -158.46131033181936   -1.96110e-12   2.63664e-09 DIIS
   @RHF iter  11:  -158.46131033181982   -4.54747e-13   7.04686e-10 DIIS
   @RHF iter  12:  -158.46131033182002   -1.98952e-13   2.06895e-10 DIIS
   @RHF iter  13:  -158.46131033182004   -2.84217e-14   3.18476e-11 DIIS
  Energy and wave function converged.

  ==> Post-Iterations <==

    Orbital Energies [Eh]
    ---------------------

    Doubly Occupied:

       1A    -11.216185     2A    -11.213957     3A    -11.213102
       4A    -11.212005     5A     -1.025947     6A     -1.022375
       7A     -0.838193     8A     -0.829650     9A     -0.606832
      10A     -0.604339    11A     -0.600665    12A     -0.597371
      13A     -0.509647    14A     -0.497901    15A     -0.489283
      16A     -0.484592    17A     -0.480473    18A     -0.473624

    Virtual:

      19A      0.176002    20A      0.194294    21A      0.230202
      22A      0.236390    23A      0.239769    24A      0.262251
      25A      0.265678    26A      0.279226    27A      0.280126
      28A      0.295200    29A      0.311129    30A      0.318546
      31A      0.396648    32A      0.411937    33A      0.565415
      34A      0.601687    35A      0.602903    36A      0.609614
      37A      0.614227    38A      0.633297    39A      0.669095
      40A      0.689030    41A      0.702103    42A      0.801614
      43A      0.858514    44A      0.863378    45A      0.883817
      46A      0.893086    47A      0.894383    48A      0.897941
      49A      0.904951    50A      0.912474    51A      0.915360
      52A      0.920862    53A      0.942808    54A      0.970428
      55A      0.977275    56A      0.981470    57A      1.121757
      58A      1.134021    59A      1.147399    60A      1.187153
      61A      1.235805    62A      1.247408    63A      1.468024
      64A      1.481360    65A      1.492923    66A      1.500821
      67A      1.579925    68A      1.604564    69A      1.674753
      70A      1.680091    71A      1.688572    72A      1.706017
      73A      1.850313    74A      1.853026    75A      1.873338
      76A      1.884818    77A      1.903163    78A      1.929926
      79A      1.934850    80A      1.941655    81A      1.948023
      82A      1.957336    83A      1.968873    84A      1.975780
      85A      1.981909    86A      1.996055    87A      2.012507
      88A      2.040575    89A      2.097897    90A      2.120488
      91A      2.134074    92A      2.160643    93A      2.295142
      94A      2.296829    95A      2.311350    96A      2.339485
      97A      2.449240    98A      2.462122    99A      2.481711
     100A      2.497181   101A      2.568423   102A      2.572218
     103A      2.595219   104A      2.607997   105A      2.769766
     106A      2.782078   107A      2.795649   108A      2.803184
     109A      2.840375   110A      2.849740   111A      2.860082
     112A      2.874946   113A      2.939355   114A      2.968675
     115A      2.982503   116A      2.992178

    Final Occupation by Irrep:
              A
    DOCC [    18 ]

  @RHF Final Energy:  -158.46131033182004

   => Energetics <=

    Nuclear Repulsion Energy =            123.7654943603649684
    One-Electron Energy =                -456.6213233482546912
    Two-Electron Energy =                 174.3945186560696641
    Total Energy =                       -158.4613103318200444

Computation Completed

Properties will be evaluated at   0.000000,   0.000000,   0.000000 [a0]

Properties computed using the SCF density matrix

  Nuclear Dipole Moment: [e a0]
     X:     0.0473      Y:     0.0306      Z:     0.0442

  Electronic Dipole Moment: [e a0]
     X:    -0.0457      Y:    -0.0261      Z:    -0.0405

  Dipole Moment: [e a0]
     X:     0.0016      Y:     0.0044      Z:     0.0037     Total:     0.0060

  Dipole Moment: [D]
     X:     0.0040      Y:     0.0113      Z:     0.0095     Total:     0.0153

*** tstop() called on ds3 at Tue Apr 28 16:49:12 2020
Module time:
	user time   =       7.79 seconds =       0.13 minutes
	system time =       2.88 seconds =       0.05 minutes
	total time  =         11 seconds =       0.18 minutes
Total time:
	user time   =       7.79 seconds =       0.13 minutes
	system time =       2.88 seconds =       0.05 minutes
	total time  =         11 seconds =       0.18 minutes
                                     G D M A

                                 by Anthony Stone

                           version 2.2.06, 22 June 2011

               Distributed Multipoles from Gaussian wavefunctions

Starting at 16:49:12 on 28 Apr 2020

Using SCF density matrix from file ./SSI/SSI-043ILE-055LEU-1-dimer.test.18902.fchk

                         Distributed Multipole Analysis

Standard DMA

Positions and radii in angstrom
Multipole moments in atomic units, ea_0^k for rank k

C          x = -1.558309  y =  1.124316  z = -0.309490 angstrom
           Maximum rank =  0   Radius =  0.650 angstrom
                   Q00  =  -0.229315

C          x = -2.543309  y =  0.803316  z =  0.788510 angstrom
           Maximum rank =  0   Radius =  0.650 angstrom
                   Q00  =  -0.227210

H          x = -2.043309  y =  1.715316  z = -1.078490 angstrom
           Maximum rank =  0   Radius =  0.325 angstrom
                   Q00  =   0.073146

H          x = -0.725309  y =  1.694316  z =  0.101510 angstrom
           Maximum rank =  0   Radius =  0.325 angstrom
                   Q00  =   0.075131

H          x = -1.191309  y =  0.202316  z = -0.757490 angstrom
           Maximum rank =  0   Radius =  0.325 angstrom
                   Q00  =   0.080092

H          x = -2.975309  y =  1.722316  z =  1.160510 angstrom
           Maximum rank =  0   Radius =  0.325 angstrom
                   Q00  =   0.077770

H          x = -1.939309  y =  0.364316  z =  1.577510 angstrom
           Maximum rank =  0   Radius =  0.325 angstrom
                   Q00  =   0.071695

H          x = -3.338647  y =  0.111780  z =  0.473525 angstrom
           Maximum rank =  0   Radius =  0.325 angstrom
                   Q00  =   0.079912

C          x =  1.380691  y = -0.768684  z =  0.048510 angstrom
           Maximum rank =  0   Radius =  0.650 angstrom
                   Q00  =  -0.234308

C          x =  2.716691  y = -1.161684  z = -0.531490 angstrom
           Maximum rank =  0   Radius =  0.650 angstrom
                   Q00  =  -0.225288

H          x =  1.039691  y =  0.153316  z = -0.418490 angstrom
           Maximum rank =  0   Radius =  0.325 angstrom
                   Q00  =   0.079424

H          x =  0.655691  y = -1.556684  z = -0.150490 angstrom
           Maximum rank =  0   Radius =  0.325 angstrom
                   Q00  =   0.072597

H          x =  1.466691  y = -0.625684  z =  1.125510 angstrom
           Maximum rank =  0   Radius =  0.325 angstrom
                   Q00  =   0.077375

H          x =  3.090691  y = -2.027684  z =  0.000510 angstrom
           Maximum rank =  0   Radius =  0.325 angstrom
                   Q00  =   0.077920

H          x =  3.386191  y = -0.300379  z = -0.390352 angstrom
           Maximum rank =  0   Radius =  0.325 angstrom
                   Q00  =   0.073536

H          x =  2.624661  y = -1.420650  z = -1.596604 angstrom
           Maximum rank =  0   Radius =  0.325 angstrom
                   Q00  =   0.077523

Total multipoles referred to origin at
           x =   0.000000,  y =    0.000000,  z =    0.000000 angstrom
                   Q00  =  -0.000000

Finished at 16:49:12 on 28 Apr 2020

  DMA results are available in the Python driver through the
	  variable('DMA DISTRIBUTED MULTIPOLES')
  and
	  variable('DMA TOTAL MULTIPOLES')
  commands.

    Psi4 stopped on: Tuesday, 28 April 2020 04:49PM
    Psi4 wall time for execution: 0:00:10.59

*** Psi4 exiting successfully. Buy a developer a beer!
