                               Psi4 1.3.2 release

  ==> Input File <==

--------------------------------------------------------------------------
import numpy as np
set {scf_type pk
basis cc-pvdz
d_convergence 10
gdma_switch   0
gdma_limit    0
gdma_origin   [ 0.0,  0.0,  0.0 ]
}
molecule test {
    units Angstrom
    0 1
    --
    0 1
    C                0.728403011657358    -3.236009213238550     1.766627156962432
    C                0.612403011657358     0.452990786761450    -0.393372843037568
    C                1.030403011657358     0.434990786761450     0.941627156962432
    C                0.243403011657358    -0.736009213238550    -1.034372843037568
    C                1.081403011657358    -0.777009213238550     1.632627156962432
    C                0.293403011657358    -1.949009213238550    -0.335372843037568
    C                0.711403011657358    -1.964009213238550     0.997627156962432
    H                0.575403011657358     1.388990786761450    -0.929372843037567
    H                1.309403011657358     1.356990786761450     1.434627156962432
    H               -0.080596988342642    -0.718009213238549    -2.066372843037568
    H                1.405403011657358    -0.802009213238550     2.664627156962433
    H                0.005403011657358    -2.871009213238549    -0.825372843037568
    H                1.687403011657358    -3.285009213238550     2.274627156962433
    H                0.666403011657358    -4.047009213238549     1.040627156962432
    H               -0.069514988342642    -3.310499213238550     2.520137156962432
    C               -1.565596988342642     2.962990786761451    -1.531372843037567
    C               -2.562596988342642     4.067990786761451    -1.733372843037567
    H               -0.711596988342642     3.124990786761451    -2.190372843037568
    H               -1.228596988342642     2.961990786761451    -0.495372843037568
    H               -2.033596988342642     2.009990786761450    -1.768372843037568
    H               -2.033596988342642     4.989990786761450    -1.533372843037568
    H               -2.895392988342642     4.065870786761450    -2.781822843037567
    H               -3.414697988342642     3.982490786761451    -1.043002843037568

}
e, wfn = energy('scf', return_wfn=True)
gdma(wfn)
dmavals = variable('DMA DISTRIBUTED MULTIPOLES')
charges = np.array(dmavals)
print(charges)
np.save('SSI-005PHE-022VAL-1-dimer.npy', np.array(charges))--------------------------------------------------------------------------

*** tstart() called on ds3
*** at Sun Apr 26 23:04:48 2020

   => Loading Basis Set <=

    Name: CC-PVDZ
    Role: ORBITAL
    Keyword: BASIS
    atoms 1-7, 16-17  entry C          line   138 file /theoryfs2/ds/metcalf/miniconda2/envs/tf2gpu/share/psi4/basis/cc-pvdz.gbs
    atoms 8-15, 18-23 entry H          line    22 file /theoryfs2/ds/metcalf/miniconda2/envs/tf2gpu/share/psi4/basis/cc-pvdz.gbs

         ---------------------------------------------------------
                                   SCF
               by Justin Turney, Rob Parrish, Andy Simmonett
                          and Daniel G. A. Smith
                              RHF Reference
                        1 Threads,    500 MiB Core
         ---------------------------------------------------------

  ==> Geometry <==

    Molecular point group: c1
    Full point group: C1

    Geometry (in Angstrom), charge = 0, multiplicity = 1:

       Center              X                  Y                   Z               Mass
    ------------   -----------------  -----------------  -----------------  -----------------
         C            0.728403011657    -3.236009213239     1.766627156962    12.000000000000
         C            0.612403011657     0.452990786761    -0.393372843038    12.000000000000
         C            1.030403011657     0.434990786761     0.941627156962    12.000000000000
         C            0.243403011657    -0.736009213239    -1.034372843038    12.000000000000
         C            1.081403011657    -0.777009213239     1.632627156962    12.000000000000
         C            0.293403011657    -1.949009213239    -0.335372843038    12.000000000000
         C            0.711403011657    -1.964009213239     0.997627156962    12.000000000000
         H            0.575403011657     1.388990786761    -0.929372843038     1.007825032230
         H            1.309403011657     1.356990786761     1.434627156962     1.007825032230
         H           -0.080596988343    -0.718009213239    -2.066372843038     1.007825032230
         H            1.405403011657    -0.802009213239     2.664627156962     1.007825032230
         H            0.005403011657    -2.871009213239    -0.825372843038     1.007825032230
         H            1.687403011657    -3.285009213239     2.274627156962     1.007825032230
         H            0.666403011657    -4.047009213239     1.040627156962     1.007825032230
         H           -0.069514988343    -3.310499213239     2.520137156962     1.007825032230
         C           -1.565596988343     2.962990786761    -1.531372843038    12.000000000000
         C           -2.562596988343     4.067990786761    -1.733372843038    12.000000000000
         H           -0.711596988343     3.124990786761    -2.190372843038     1.007825032230
         H           -1.228596988343     2.961990786761    -0.495372843038     1.007825032230
         H           -2.033596988343     2.009990786761    -1.768372843038     1.007825032230
         H           -2.033596988343     4.989990786761    -1.533372843038     1.007825032230
         H           -2.895392988343     4.065870786761    -2.781822843038     1.007825032230
         H           -3.414697988343     3.982490786761    -1.043002843038     1.007825032230

  Running in c1 symmetry.

  Rotational constants: A =      0.12610  B =      0.01705  C =      0.01614 [cm^-1]
  Rotational constants: A =   3780.29696  B =    511.16882  C =    483.94547 [MHz]
  Nuclear repulsion =  397.405098681607683

  Charge       = 0
  Multiplicity = 1
  Electrons    = 68
  Nalpha       = 34
  Nbeta        = 34

  ==> Algorithm <==

  SCF Algorithm Type is PK.
  DIIS enabled.
  MOM disabled.
  Fractional occupation disabled.
  Guess Type is SAD.
  Energy threshold   = 1.00e-06
  Density threshold  = 1.00e-10
  Integral threshold = 0.00e+00

  ==> Primary Basis <==

  Basis Set: CC-PVDZ
    Blend: CC-PVDZ
    Number of shells: 96
    Number of basis function: 196
    Number of Cartesian functions: 205
    Spherical Harmonics?: true
    Max angular momentum: 2

  ==> Pre-Iterations <==

   -------------------------------------------------------
    Irrep   Nso     Nmo     Nalpha   Nbeta   Ndocc  Nsocc
   -------------------------------------------------------
     A        196     196       0       0       0       0
   -------------------------------------------------------
    Total     196     196      34      34      34       0
   -------------------------------------------------------

  ==> Integral Setup <==

  Using integral reordering PK algorithm.
  Sizing the integral batches needed.
  Building batch lookup table.
   Calculation information:
      Number of atoms:                  23
      Number of AO shells:              96
      Number of primitives:            268
      Number of atomic orbitals:       205
      Number of basis functions:       196

      Integral cutoff                 1.00e-12
      Number of threads:                 1

	Batch   1 pq = [       0,    9405] index = [             0,44231715] size =     44231715
	Batch   2 pq = [    9405,   13301] index = [      44231715,88464951] size =     44233236
	Batch   3 pq = [   13301,   16290] index = [      88464951,132690195] size =     44225244
	Batch   4 pq = [   16290,   18810] index = [     132690195,176917455] size =     44227260
	Batch   5 pq = [   18810,   19306] index = [     176917455,186370471] size =      9453016
  Task number: 17
  Buffer size: 11059200
  Buffer per thread: 2
  We computed 8186963 shell quartets total.
  Whereas there are 10841496 unique shell quartets.

  ==> DiskJK: Disk-Based J/K Matrices <==

    J tasked:                  Yes
    K tasked:                  Yes
    wK tasked:                  No
    Memory [MiB]:              375
    Schwarz Cutoff:          1E-12

    OpenMP threads:              1

  Minimum eigenvalue in the overlap matrix is 3.2092142997E-04.
  Using Symmetric Orthogonalization.

  SCF Guess: Superposition of Atomic Densities via on-the-fly atomic UHF.

  ==> Iterations <==

                        Total Energy        Delta E     RMS |[F,P]|

   @RHF iter SAD:  -347.91346837530034   -3.47913e+02   0.00000e+00
   @RHF iter   1:  -348.76034766287825   -8.46879e-01   2.91643e-03 DIIS
   @RHF iter   2:  -348.95542973179545   -1.95082e-01   1.21032e-03 DIIS
   @RHF iter   3:  -348.98610110929428   -3.06714e-02   2.63416e-04 DIIS
   @RHF iter   4:  -348.98862903913374   -2.52793e-03   6.20036e-05 DIIS
   @RHF iter   5:  -348.98872387557037   -9.48364e-05   2.07183e-05 DIIS
   @RHF iter   6:  -348.98873444634683   -1.05708e-05   5.11433e-06 DIIS
   @RHF iter   7:  -348.98873522882587   -7.82479e-07   1.23341e-06 DIIS
   @RHF iter   8:  -348.98873528805740   -5.92315e-08   3.53277e-07 DIIS
   @RHF iter   9:  -348.98873529770810   -9.65071e-09   1.59603e-07 DIIS
   @RHF iter  10:  -348.98873530022195   -2.51384e-09   7.67500e-08 DIIS
   @RHF iter  11:  -348.98873530110257   -8.80618e-10   2.53945e-08 DIIS
   @RHF iter  12:  -348.98873530118209   -7.95239e-11   9.66976e-09 DIIS
   @RHF iter  13:  -348.98873530118925   -7.16227e-12   3.81404e-09 DIIS
   @RHF iter  14:  -348.98873530119056   -1.30740e-12   1.04546e-09 DIIS
   @RHF iter  15:  -348.98873530119107   -5.11591e-13   4.47898e-10 DIIS
   @RHF iter  16:  -348.98873530119090    1.70530e-13   1.72307e-10 DIIS
   @RHF iter  17:  -348.98873530118891    1.98952e-12   7.30362e-11 DIIS
  Energy and wave function converged.

  ==> Post-Iterations <==

    Orbital Energies [Eh]
    ---------------------

    Doubly Occupied:

       1A    -11.237616     2A    -11.236306     3A    -11.236061
       4A    -11.231080     5A    -11.230002     6A    -11.229533
       7A    -11.225849     8A    -11.215333     9A    -11.213786
      10A     -1.148929    11A     -1.044625    12A     -1.026454
      13A     -1.008868    14A     -0.928357    15A     -0.833055
      16A     -0.823887    17A     -0.791103    18A     -0.687295
      19A     -0.630642    20A     -0.630046    21A     -0.603920
      22A     -0.602810    23A     -0.582275    24A     -0.577843
      25A     -0.559491    26A     -0.535452    27A     -0.503383
      28A     -0.486326    29A     -0.484237    30A     -0.482613
      31A     -0.480363    32A     -0.477406    33A     -0.330449
      34A     -0.317538

    Virtual:

      35A      0.133357    36A      0.142396    37A      0.178153
      38A      0.190586    39A      0.205521    40A      0.213432
      41A      0.234680    42A      0.240241    43A      0.248779
      44A      0.266666    45A      0.267962    46A      0.277629
      47A      0.283738    48A      0.293455    49A      0.305735
      50A      0.319537    51A      0.363227    52A      0.379348
      53A      0.411335    54A      0.453688    55A      0.466561
      56A      0.476727    57A      0.499673    58A      0.569921
      59A      0.592831    60A      0.603512    61A      0.609482
      62A      0.615727    63A      0.632206    64A      0.669959
      65A      0.680901    66A      0.687438    67A      0.698957
      68A      0.713321    69A      0.722635    70A      0.740765
      71A      0.743633    72A      0.746966    73A      0.751973
      74A      0.765932    75A      0.778852    76A      0.805667
      77A      0.827382    78A      0.841311    79A      0.864910
      80A      0.878833    81A      0.884426    82A      0.891925
      83A      0.895732    84A      0.897082    85A      0.899013
      86A      0.906490    87A      0.912680    88A      0.921766
      89A      0.936222    90A      0.937275    91A      0.943237
      92A      0.971431    93A      0.991576    94A      1.004604
      95A      1.023918    96A      1.065136    97A      1.116952
      98A      1.123880    99A      1.141009   100A      1.146237
     101A      1.149546   102A      1.157568   103A      1.200457
     104A      1.215555   105A      1.245409   106A      1.247126
     107A      1.251153   108A      1.276806   109A      1.302252
     110A      1.309417   111A      1.321877   112A      1.345960
     113A      1.413590   114A      1.476382   115A      1.494888
     116A      1.508394   117A      1.537768   118A      1.568394
     119A      1.586334   120A      1.611836   121A      1.675340
     122A      1.679590   123A      1.691152   124A      1.697639
     125A      1.734080   126A      1.739955   127A      1.753695
     128A      1.789483   129A      1.811864   130A      1.843748
     131A      1.858395   132A      1.864807   133A      1.883630
     134A      1.897042   135A      1.906945   136A      1.909045
     137A      1.920947   138A      1.925723   139A      1.936309
     140A      1.942641   141A      1.948867   142A      1.961821
     143A      1.969026   144A      1.977926   145A      1.993411
     146A      2.002294   147A      2.011773   148A      2.037468
     149A      2.045269   150A      2.062916   151A      2.074542
     152A      2.095156   153A      2.119321   154A      2.136830
     155A      2.137817   156A      2.153410   157A      2.166629
     158A      2.173958   159A      2.201189   160A      2.235578
     161A      2.272642   162A      2.285223   163A      2.291820
     164A      2.302948   165A      2.325236   166A      2.345117
     167A      2.377930   168A      2.457317   169A      2.467811
     170A      2.474711   171A      2.480546   172A      2.525161
     173A      2.539947   174A      2.565973   175A      2.593769
     176A      2.628085   177A      2.734058   178A      2.751995
     179A      2.768773   180A      2.781795   181A      2.787883
     182A      2.798090   183A      2.814814   184A      2.846635
     185A      2.850233   186A      2.855048   187A      2.873794
     188A      2.950401   189A      2.965505   190A      2.967890
     191A      3.000829   192A      3.022176   193A      3.145167
     194A      3.199186   195A      3.289462   196A      3.958023

    Final Occupation by Irrep:
              A
    DOCC [    34 ]

  @RHF Final Energy:  -348.98873530118891

   => Energetics <=

    Nuclear Repulsion Energy =            397.4050986816076829
    One-Electron Energy =               -1257.5217981989790133
    Two-Electron Energy =                 511.1279642161824199
    Total Energy =                       -348.9887353011889104

Computation Completed

Properties will be evaluated at   0.000000,   0.000000,   0.000000 [a0]

Properties computed using the SCF density matrix

  Nuclear Dipole Moment: [e a0]
     X:    -6.3918      Y:     8.2945      Z:    -3.4675

  Electronic Dipole Moment: [e a0]
     X:     6.3842      Y:    -8.3738      Z:     3.5466

  Dipole Moment: [e a0]
     X:    -0.0076      Y:    -0.0793      Z:     0.0791     Total:     0.1123

  Dipole Moment: [D]
     X:    -0.0194      Y:    -0.2016      Z:     0.2012     Total:     0.2855

*** tstop() called on ds3 at Sun Apr 26 23:06:46 2020
Module time:
	user time   =      57.83 seconds =       0.96 minutes
	system time =      25.22 seconds =       0.42 minutes
	total time  =        118 seconds =       1.97 minutes
Total time:
	user time   =      57.83 seconds =       0.96 minutes
	system time =      25.22 seconds =       0.42 minutes
	total time  =        118 seconds =       1.97 minutes
                                     G D M A

                                 by Anthony Stone

                           version 2.2.06, 22 June 2011

               Distributed Multipoles from Gaussian wavefunctions

Starting at 23:6:47 on 26 Apr 2020

Using SCF density matrix from file ./SSI/SSI-005PHE-022VAL-1-dimer.test.23783.fchk

                         Distributed Multipole Analysis

Standard DMA

Positions and radii in angstrom
Multipole moments in atomic units, ea_0^k for rank k

C          x =  0.728403  y = -3.236009  z =  1.766627 angstrom
           Maximum rank =  0   Radius =  0.650 angstrom
                   Q00  =  -0.183692

C          x =  0.612403  y =  0.452991  z = -0.393373 angstrom
           Maximum rank =  0   Radius =  0.650 angstrom
                   Q00  =  -0.045481

C          x =  1.030403  y =  0.434991  z =  0.941627 angstrom
           Maximum rank =  0   Radius =  0.650 angstrom
                   Q00  =  -0.069385

C          x =  0.243403  y = -0.736009  z = -1.034373 angstrom
           Maximum rank =  0   Radius =  0.650 angstrom
                   Q00  =  -0.079206

C          x =  1.081403  y = -0.777009  z =  1.632627 angstrom
           Maximum rank =  0   Radius =  0.650 angstrom
                   Q00  =  -0.097686

C          x =  0.293403  y = -1.949009  z = -0.335373 angstrom
           Maximum rank =  0   Radius =  0.650 angstrom
                   Q00  =  -0.086276

C          x =  0.711403  y = -1.964009  z =  0.997627 angstrom
           Maximum rank =  0   Radius =  0.650 angstrom
                   Q00  =  -0.046756

H          x =  0.575403  y =  1.388991  z = -0.929373 angstrom
           Maximum rank =  0   Radius =  0.325 angstrom
                   Q00  =   0.067524

H          x =  1.309403  y =  1.356991  z =  1.434627 angstrom
           Maximum rank =  0   Radius =  0.325 angstrom
                   Q00  =   0.064849

H          x = -0.080597  y = -0.718009  z = -2.066373 angstrom
           Maximum rank =  0   Radius =  0.325 angstrom
                   Q00  =   0.066183

H          x =  1.405403  y = -0.802009  z =  2.664627 angstrom
           Maximum rank =  0   Radius =  0.325 angstrom
                   Q00  =   0.055374

H          x =  0.005403  y = -2.871009  z = -0.825373 angstrom
           Maximum rank =  0   Radius =  0.325 angstrom
                   Q00  =   0.060079

H          x =  1.687403  y = -3.285009  z =  2.274627 angstrom
           Maximum rank =  0   Radius =  0.325 angstrom
                   Q00  =   0.096047

H          x =  0.666403  y = -4.047009  z =  1.040627 angstrom
           Maximum rank =  0   Radius =  0.325 angstrom
                   Q00  =   0.093530

H          x = -0.069515  y = -3.310499  z =  2.520137 angstrom
           Maximum rank =  0   Radius =  0.325 angstrom
                   Q00  =   0.102826

C          x = -1.565597  y =  2.962991  z = -1.531373 angstrom
           Maximum rank =  0   Radius =  0.650 angstrom
                   Q00  =  -0.245027

C          x = -2.562597  y =  4.067991  z = -1.733373 angstrom
           Maximum rank =  0   Radius =  0.650 angstrom
                   Q00  =  -0.209377

H          x = -0.711597  y =  3.124991  z = -2.190373 angstrom
           Maximum rank =  0   Radius =  0.325 angstrom
                   Q00  =   0.070581

H          x = -1.228597  y =  2.961991  z = -0.495373 angstrom
           Maximum rank =  0   Radius =  0.325 angstrom
                   Q00  =   0.076629

H          x = -2.033597  y =  2.009991  z = -1.768373 angstrom
           Maximum rank =  0   Radius =  0.325 angstrom
                   Q00  =   0.079273

H          x = -2.033597  y =  4.989991  z = -1.533373 angstrom
           Maximum rank =  0   Radius =  0.325 angstrom
                   Q00  =   0.073734

H          x = -2.895393  y =  4.065871  z = -2.781823 angstrom
           Maximum rank =  0   Radius =  0.325 angstrom
                   Q00  =   0.075697

H          x = -3.414698  y =  3.982491  z = -1.043003 angstrom
           Maximum rank =  0   Radius =  0.325 angstrom
                   Q00  =   0.080560

Total multipoles referred to origin at
           x =   0.000000,  y =    0.000000,  z =    0.000000 angstrom
                   Q00  =  -0.000000

Finished at 23:6:47 on 26 Apr 2020

  DMA results are available in the Python driver through the
	  variable('DMA DISTRIBUTED MULTIPOLES')
  and
	  variable('DMA TOTAL MULTIPOLES')
  commands.

    Psi4 stopped on: Sunday, 26 April 2020 11:06PM
    Psi4 wall time for execution: 0:01:58.22

*** Psi4 exiting successfully. Buy a developer a beer!
