                               Psi4 1.3.2 release

  ==> Input File <==

--------------------------------------------------------------------------
import numpy as np
set {scf_type pk
basis cc-pvdz
d_convergence 10
gdma_switch   0
gdma_limit    0
gdma_origin   [ 0.0,  0.0,  0.0 ]
}
molecule test {
    units Angstrom
    1 1
    --
    1 1
    C                2.320639029500675    -0.706148663297135     0.140967716427295
    C                2.912639029500675    -2.010148663297135    -0.385032283572705
    H                2.215639029500675    -0.743148663297135     1.225967716427295
    H                2.992639029500675     0.108851336702865    -0.117032283572705
    H                1.365639029500676    -0.517148663297135    -0.333032283572705
    H                3.980639029500675    -2.004148663297135    -0.225032283572705
    H                2.746639029500675    -2.075148663297135    -1.459032283572705
    H                2.508875029500675    -2.903477663297135     0.113904716427295
    C               -0.989360970499325     1.569851336702865     1.720967716427295
    C               -1.107360970499325     0.304851336702865    -0.361032283572705
    N               -1.277360970499325     0.370851336702865     0.954967716427295
    N               -0.590360970499325     1.312851336702865    -1.035032283572705
    N               -1.366360970499325    -0.815148663297135    -0.978032283572705
    H               -1.666360970499325    -0.428148663297135     1.439967716427295
    H               -0.386360970499325     2.191851336702865    -0.578032283572705
    H               -0.420360970499325     1.232851336702865    -2.032032283572705
    H               -1.768360970499325    -1.590148663297135    -0.463032283572705
    H               -1.163360970499325    -0.930148663297135    -1.959032283572705
    H               -1.643360970499325     1.563851336702865     2.594967716427295
    H               -1.230360970499325     2.466851336702865     1.147967716427295
    H                0.057501029500675     1.579991336702865     2.058567716427295

}
e, wfn = energy('scf', return_wfn=True)
gdma(wfn)
dmavals = variable('DMA DISTRIBUTED MULTIPOLES')
charges = np.array(dmavals)
print(charges)
np.save('SSI-113ILE-190ARG-2-dimer.npy', np.array(charges))--------------------------------------------------------------------------

*** tstart() called on ds3
*** at Tue Apr 28 07:47:16 2020

   => Loading Basis Set <=

    Name: CC-PVDZ
    Role: ORBITAL
    Keyword: BASIS
    atoms 1-2, 9-10  entry C          line   138 file /theoryfs2/ds/metcalf/miniconda2/envs/tf2gpu/share/psi4/basis/cc-pvdz.gbs
    atoms 3-8, 14-21 entry H          line    22 file /theoryfs2/ds/metcalf/miniconda2/envs/tf2gpu/share/psi4/basis/cc-pvdz.gbs
    atoms 11-13      entry N          line   168 file /theoryfs2/ds/metcalf/miniconda2/envs/tf2gpu/share/psi4/basis/cc-pvdz.gbs

         ---------------------------------------------------------
                                   SCF
               by Justin Turney, Rob Parrish, Andy Simmonett
                          and Daniel G. A. Smith
                              RHF Reference
                        1 Threads,    500 MiB Core
         ---------------------------------------------------------

  ==> Geometry <==

    Molecular point group: c1
    Full point group: C1

    Geometry (in Angstrom), charge = 1, multiplicity = 1:

       Center              X                  Y                   Z               Mass
    ------------   -----------------  -----------------  -----------------  -----------------
         C            2.320639029501    -0.706148663297     0.140967716427    12.000000000000
         C            2.912639029501    -2.010148663297    -0.385032283573    12.000000000000
         H            2.215639029501    -0.743148663297     1.225967716427     1.007825032230
         H            2.992639029501     0.108851336703    -0.117032283573     1.007825032230
         H            1.365639029501    -0.517148663297    -0.333032283573     1.007825032230
         H            3.980639029501    -2.004148663297    -0.225032283573     1.007825032230
         H            2.746639029501    -2.075148663297    -1.459032283573     1.007825032230
         H            2.508875029501    -2.903477663297     0.113904716427     1.007825032230
         C           -0.989360970499     1.569851336703     1.720967716427    12.000000000000
         C           -1.107360970499     0.304851336703    -0.361032283573    12.000000000000
         N           -1.277360970499     0.370851336703     0.954967716427    14.003074004430
         N           -0.590360970499     1.312851336703    -1.035032283573    14.003074004430
         N           -1.366360970499    -0.815148663297    -0.978032283573    14.003074004430
         H           -1.666360970499    -0.428148663297     1.439967716427     1.007825032230
         H           -0.386360970499     2.191851336703    -0.578032283573     1.007825032230
         H           -0.420360970499     1.232851336703    -2.032032283573     1.007825032230
         H           -1.768360970499    -1.590148663297    -0.463032283573     1.007825032230
         H           -1.163360970499    -0.930148663297    -1.959032283573     1.007825032230
         H           -1.643360970499     1.563851336703     2.594967716427     1.007825032230
         H           -1.230360970499     2.466851336703     1.147967716427     1.007825032230
         H            0.057501029501     1.579991336703     2.058567716427     1.007825032230

  Running in c1 symmetry.

  Rotational constants: A =      0.09632  B =      0.03731  C =      0.03273 [cm^-1]
  Rotational constants: A =   2887.56253  B =   1118.64644  C =    981.09140 [MHz]
  Nuclear repulsion =  326.749356935538401

  Charge       = 1
  Multiplicity = 1
  Electrons    = 58
  Nalpha       = 29
  Nbeta        = 29

  ==> Algorithm <==

  SCF Algorithm Type is PK.
  DIIS enabled.
  MOM disabled.
  Fractional occupation disabled.
  Guess Type is SAD.
  Energy threshold   = 1.00e-06
  Density threshold  = 1.00e-10
  Integral threshold = 0.00e+00

  ==> Primary Basis <==

  Basis Set: CC-PVDZ
    Blend: CC-PVDZ
    Number of shells: 84
    Number of basis function: 168
    Number of Cartesian functions: 175
    Spherical Harmonics?: true
    Max angular momentum: 2

  ==> Pre-Iterations <==

   -------------------------------------------------------
    Irrep   Nso     Nmo     Nalpha   Nbeta   Ndocc  Nsocc
   -------------------------------------------------------
     A        168     168       0       0       0       0
   -------------------------------------------------------
    Total     168     168      29      29      29       0
   -------------------------------------------------------

  ==> Integral Setup <==

  Using integral reordering PK algorithm.
  Sizing the integral batches needed.
  Building batch lookup table.
   Calculation information:
      Number of atoms:                  21
      Number of AO shells:              84
      Number of primitives:            224
      Number of atomic orbitals:       175
      Number of basis functions:       168

      Integral cutoff                 1.00e-12
      Number of threads:                 1

	Batch   1 pq = [       0,    9405] index = [             0,44231715] size =     44231715
	Batch   2 pq = [    9405,   13301] index = [      44231715,88464951] size =     44233236
	Batch   3 pq = [   13301,   14196] index = [      88464951,100770306] size =     12305355
  Task number: 10
  Buffer size: 11059200
  Buffer per thread: 2
  We computed 6043438 shell quartets total.
  Whereas there are 6374235 unique shell quartets.

  ==> DiskJK: Disk-Based J/K Matrices <==

    J tasked:                  Yes
    K tasked:                  Yes
    wK tasked:                  No
    Memory [MiB]:              375
    Schwarz Cutoff:          1E-12

    OpenMP threads:              1

  Minimum eigenvalue in the overlap matrix is 2.8928718324E-03.
  Using Symmetric Orthogonalization.

  SCF Guess: Superposition of Atomic Densities via on-the-fly atomic UHF.

  ==> Iterations <==

                        Total Energy        Delta E     RMS |[F,P]|

   @RHF iter SAD:  -322.20757083956852   -3.22208e+02   0.00000e+00
   @RHF iter   1:  -322.61123473342315   -4.03664e-01   3.43248e-03 DIIS
   @RHF iter   2:  -322.78456637755534   -1.73332e-01   1.34352e-03 DIIS
   @RHF iter   3:  -322.80985512004071   -2.52887e-02   3.18847e-04 DIIS
   @RHF iter   4:  -322.81225315833763   -2.39804e-03   4.95648e-05 DIIS
   @RHF iter   5:  -322.81231490749957   -6.17492e-05   2.03210e-05 DIIS
   @RHF iter   6:  -322.81232334601413   -8.43851e-06   4.04941e-06 DIIS
   @RHF iter   7:  -322.81232394614966   -6.00136e-07   1.28756e-06 DIIS
   @RHF iter   8:  -322.81232398590339   -3.97537e-08   3.69601e-07 DIIS
   @RHF iter   9:  -322.81232398931115   -3.40776e-09   9.57560e-08 DIIS
   @RHF iter  10:  -322.81232398953944   -2.28283e-10   2.73816e-08 DIIS
   @RHF iter  11:  -322.81232398955802   -1.85878e-11   7.47166e-09 DIIS
   @RHF iter  12:  -322.81232398955910   -1.08002e-12   2.29879e-09 DIIS
   @RHF iter  13:  -322.81232398955882    2.84217e-13   8.19439e-10 DIIS
   @RHF iter  14:  -322.81232398955802    7.95808e-13   2.91779e-10 DIIS
   @RHF iter  15:  -322.81232398955871   -6.82121e-13   5.57226e-11 DIIS
  Energy and wave function converged.

  ==> Post-Iterations <==

    Orbital Energies [Eh]
    ---------------------

    Doubly Occupied:

       1A    -15.789633     2A    -15.788592     3A    -15.785390
       4A    -11.588572     5A    -11.439360     6A    -11.330255
       7A    -11.317414     8A     -1.549698     9A     -1.405414
      10A     -1.393726    11A     -1.140966    12A     -1.128756
      13A     -1.040599    14A     -0.980544    15A     -0.947801
      16A     -0.944732    17A     -0.861949    18A     -0.856133
      19A     -0.829204    20A     -0.794089    21A     -0.748021
      22A     -0.722042    23A     -0.710194    24A     -0.704655
      25A     -0.619907    26A     -0.609726    27A     -0.596267
      28A     -0.589845    29A     -0.584213

    Virtual:

      30A     -0.014547    31A      0.022127    32A      0.027206
      33A      0.030764    34A      0.058418    35A      0.074145
      36A      0.091017    37A      0.106942    38A      0.122501
      39A      0.130910    40A      0.148908    41A      0.152937
      42A      0.172598    43A      0.194149    44A      0.197467
      45A      0.203638    46A      0.285538    47A      0.301391
      48A      0.327660    49A      0.349386    50A      0.441457
      51A      0.461332    52A      0.471168    53A      0.485736
      54A      0.489837    55A      0.519811    56A      0.524162
      57A      0.546883    58A      0.549131    59A      0.561058
      60A      0.575982    61A      0.604600    62A      0.654584
      63A      0.684099    64A      0.696883    65A      0.713452
      66A      0.733992    67A      0.738588    68A      0.742720
      69A      0.763773    70A      0.778313    71A      0.784956
      72A      0.790720    73A      0.798188    74A      0.803763
      75A      0.813260    76A      0.828594    77A      0.856031
      78A      0.860752    79A      0.898490    80A      0.913388
      81A      0.940142    82A      0.977946    83A      0.982007
      84A      1.006695    85A      1.014959    86A      1.049142
      87A      1.112815    88A      1.138888    89A      1.162059
      90A      1.170558    91A      1.199507    92A      1.221014
      93A      1.238363    94A      1.290310    95A      1.366743
      96A      1.382252    97A      1.402864    98A      1.475876
      99A      1.485046   100A      1.516732   101A      1.529144
     102A      1.543755   103A      1.566086   104A      1.598284
     105A      1.612511   106A      1.619884   107A      1.656211
     108A      1.692405   109A      1.710212   110A      1.730601
     111A      1.742090   112A      1.748434   113A      1.757293
     114A      1.776957   115A      1.785935   116A      1.803391
     117A      1.813371   118A      1.822763   119A      1.835723
     120A      1.844699   121A      1.848251   122A      1.870604
     123A      1.873610   124A      1.894469   125A      1.916414
     126A      1.997308   127A      2.008992   128A      2.026925
     129A      2.038049   130A      2.070144   131A      2.128050
     132A      2.149672   133A      2.178568   134A      2.190369
     135A      2.224239   136A      2.235265   137A      2.265331
     138A      2.302200   139A      2.323450   140A      2.328354
     141A      2.338895   142A      2.352097   143A      2.365617
     144A      2.431455   145A      2.468755   146A      2.493034
     147A      2.512371   148A      2.534579   149A      2.587074
     150A      2.604972   151A      2.639571   152A      2.679716
     153A      2.710082   154A      2.722821   155A      2.748917
     156A      2.752579   157A      2.759159   158A      2.787661
     159A      2.825176   160A      2.838286   161A      2.866107
     162A      2.882752   163A      2.900924   164A      3.062728
     165A      3.107304   166A      3.120408   167A      3.583561
     168A      3.657186

    Final Occupation by Irrep:
              A
    DOCC [    29 ]

  @RHF Final Energy:  -322.81232398955871

   => Energetics <=

    Nuclear Repulsion Energy =            326.7493569355384011
    One-Electron Energy =               -1073.5279727165138866
    Two-Electron Energy =                 423.9662917914168361
    Total Energy =                       -322.8123239895587062

Computation Completed

Properties will be evaluated at   0.000000,   0.000000,   0.000000 [a0]

Properties computed using the SCF density matrix

  Nuclear Dipole Moment: [e a0]
     X:     7.1239      Y:    -1.9218      Z:     1.3297

  Electronic Dipole Moment: [e a0]
     X:    -8.9730      Y:     2.5586      Z:    -1.7309

  Dipole Moment: [e a0]
     X:    -1.8491      Y:     0.6368      Z:    -0.4013     Total:     1.9964

  Dipole Moment: [D]
     X:    -4.7000      Y:     1.6185      Z:    -1.0199     Total:     5.0744

*** tstop() called on ds3 at Tue Apr 28 07:48:03 2020
Module time:
	user time   =      34.42 seconds =       0.57 minutes
	system time =      12.97 seconds =       0.22 minutes
	total time  =         47 seconds =       0.78 minutes
Total time:
	user time   =      34.42 seconds =       0.57 minutes
	system time =      12.97 seconds =       0.22 minutes
	total time  =         47 seconds =       0.78 minutes
                                     G D M A

                                 by Anthony Stone

                           version 2.2.06, 22 June 2011

               Distributed Multipoles from Gaussian wavefunctions

Starting at 7:48:3 on 28 Apr 2020

Using SCF density matrix from file ./SSI/SSI-113ILE-190ARG-2-dimer.test.6862.fchk

                         Distributed Multipole Analysis

Standard DMA

Positions and radii in angstrom
Multipole moments in atomic units, ea_0^k for rank k

C          x =  2.320639  y = -0.706149  z =  0.140968 angstrom
           Maximum rank =  0   Radius =  0.650 angstrom
                   Q00  =  -0.253604

C          x =  2.912639  y = -2.010149  z = -0.385032 angstrom
           Maximum rank =  0   Radius =  0.650 angstrom
                   Q00  =  -0.220757

H          x =  2.215639  y = -0.743149  z =  1.225968 angstrom
           Maximum rank =  0   Radius =  0.325 angstrom
                   Q00  =   0.086715

H          x =  2.992639  y =  0.108851  z = -0.117032 angstrom
           Maximum rank =  0   Radius =  0.325 angstrom
                   Q00  =   0.094221

H          x =  1.365639  y = -0.517149  z = -0.333032 angstrom
           Maximum rank =  0   Radius =  0.325 angstrom
                   Q00  =   0.022417

H          x =  3.980639  y = -2.004149  z = -0.225032 angstrom
           Maximum rank =  0   Radius =  0.325 angstrom
                   Q00  =   0.103769

H          x =  2.746639  y = -2.075149  z = -1.459032 angstrom
           Maximum rank =  0   Radius =  0.325 angstrom
                   Q00  =   0.075331

H          x =  2.508875  y = -2.903478  z =  0.113905 angstrom
           Maximum rank =  0   Radius =  0.325 angstrom
                   Q00  =   0.083743

C          x = -0.989361  y =  1.569851  z =  1.720968 angstrom
           Maximum rank =  0   Radius =  0.650 angstrom
                   Q00  =  -0.131393

C          x = -1.107361  y =  0.304851  z = -0.361032 angstrom
           Maximum rank =  0   Radius =  0.650 angstrom
                   Q00  =   1.075366

N          x = -1.277361  y =  0.370851  z =  0.954968 angstrom
           Maximum rank =  0   Radius =  0.650 angstrom
                   Q00  =  -0.487478

N          x = -0.590361  y =  1.312851  z = -1.035032 angstrom
           Maximum rank =  0   Radius =  0.650 angstrom
                   Q00  =  -0.579557

N          x = -1.366361  y = -0.815149  z = -0.978032 angstrom
           Maximum rank =  0   Radius =  0.650 angstrom
                   Q00  =  -0.584522

H          x = -1.666361  y = -0.428149  z =  1.439968 angstrom
           Maximum rank =  0   Radius =  0.325 angstrom
                   Q00  =   0.241136

H          x = -0.386361  y =  2.191851  z = -0.578032 angstrom
           Maximum rank =  0   Radius =  0.325 angstrom
                   Q00  =   0.274675

H          x = -0.420361  y =  1.232851  z = -2.032032 angstrom
           Maximum rank =  0   Radius =  0.325 angstrom
                   Q00  =   0.269509

H          x = -1.768361  y = -1.590149  z = -0.463032 angstrom
           Maximum rank =  0   Radius =  0.325 angstrom
                   Q00  =   0.267508

H          x = -1.163361  y = -0.930149  z = -1.959032 angstrom
           Maximum rank =  0   Radius =  0.325 angstrom
                   Q00  =   0.267852

H          x = -1.643361  y =  1.563851  z =  2.594968 angstrom
           Maximum rank =  0   Radius =  0.325 angstrom
                   Q00  =   0.158655

H          x = -1.230361  y =  2.466851  z =  1.147968 angstrom
           Maximum rank =  0   Radius =  0.325 angstrom
                   Q00  =   0.107254

H          x =  0.057501  y =  1.579991  z =  2.058568 angstrom
           Maximum rank =  0   Radius =  0.325 angstrom
                   Q00  =   0.129160

Total multipoles referred to origin at
           x =   0.000000,  y =    0.000000,  z =    0.000000 angstrom
                   Q00  =   1.000000

Finished at 7:48:3 on 28 Apr 2020

  DMA results are available in the Python driver through the
	  variable('DMA DISTRIBUTED MULTIPOLES')
  and
	  variable('DMA TOTAL MULTIPOLES')
  commands.

    Psi4 stopped on: Tuesday, 28 April 2020 07:48AM
    Psi4 wall time for execution: 0:00:46.65

*** Psi4 exiting successfully. Buy a developer a beer!
