                               Psi4 1.3.2 release

  ==> Input File <==

--------------------------------------------------------------------------
import numpy as np
set {scf_type pk
basis cc-pvdz
d_convergence 10
gdma_switch   0
gdma_limit    0
gdma_origin   [ 0.0,  0.0,  0.0 ]
}
molecule test {
    units Angstrom
    -1 1
    --
    -1 1
    C                0.806687880925296    -0.641219801383894    -3.014263442546596
    C               -0.210312119074704     0.063780198616106    -2.141263442546596
    O               -0.810312119074704    -0.610219801383894    -1.274263442546597
    O               -0.402312119074705     1.286780198616106    -2.311263442546596
    H                1.188687880925295     0.029780198616106    -3.784263442546596
    H                0.299687880925295    -1.465219801383895    -3.522263442546596
    H                1.639107880925296    -1.051313801383894    -2.423584442546596
    C               -0.220312119074704    -1.432219801383894     2.185736557453403
    C                0.189687880925296     0.032780198616106     2.235736557453404
    O                0.762687880925295     0.504780198616106     3.216736557453403
    N               -0.098312119074705     0.761780198616106     1.171736557453404
    H                0.144687880925296     1.737780198616106     1.164736557453403
    H               -0.487312119074705     0.306780198616106     0.343736557453403
    H               -0.877312119074705    -1.596219801383895     1.331736557453403
    H               -0.781312119074705    -1.648219801383894     3.091736557453403
    H                0.644257880925295    -2.108178801383894     2.110869557453403

}
e, wfn = energy('scf', return_wfn=True)
gdma(wfn)
dmavals = variable('DMA DISTRIBUTED MULTIPOLES')
charges = np.array(dmavals)
print(charges)
np.save('SSI-107ASP-125ASN-1-dimer.npy', np.array(charges))--------------------------------------------------------------------------

*** tstart() called on ds3
*** at Mon Apr 27 16:03:56 2020

   => Loading Basis Set <=

    Name: CC-PVDZ
    Role: ORBITAL
    Keyword: BASIS
    atoms 1-2, 8-9   entry C          line   138 file /theoryfs2/ds/metcalf/miniconda2/envs/tf2gpu/share/psi4/basis/cc-pvdz.gbs
    atoms 3-4, 10    entry O          line   198 file /theoryfs2/ds/metcalf/miniconda2/envs/tf2gpu/share/psi4/basis/cc-pvdz.gbs
    atoms 5-7, 12-16 entry H          line    22 file /theoryfs2/ds/metcalf/miniconda2/envs/tf2gpu/share/psi4/basis/cc-pvdz.gbs
    atoms 11         entry N          line   168 file /theoryfs2/ds/metcalf/miniconda2/envs/tf2gpu/share/psi4/basis/cc-pvdz.gbs

         ---------------------------------------------------------
                                   SCF
               by Justin Turney, Rob Parrish, Andy Simmonett
                          and Daniel G. A. Smith
                              RHF Reference
                        1 Threads,    500 MiB Core
         ---------------------------------------------------------

  ==> Geometry <==

    Molecular point group: c1
    Full point group: C1

    Geometry (in Angstrom), charge = -1, multiplicity = 1:

       Center              X                  Y                   Z               Mass
    ------------   -----------------  -----------------  -----------------  -----------------
         C            0.806687880925    -0.641219801384    -3.014263442547    12.000000000000
         C           -0.210312119075     0.063780198616    -2.141263442547    12.000000000000
         O           -0.810312119075    -0.610219801384    -1.274263442547    15.994914619570
         O           -0.402312119075     1.286780198616    -2.311263442547    15.994914619570
         H            1.188687880925     0.029780198616    -3.784263442547     1.007825032230
         H            0.299687880925    -1.465219801384    -3.522263442547     1.007825032230
         H            1.639107880925    -1.051313801384    -2.423584442547     1.007825032230
         C           -0.220312119075    -1.432219801384     2.185736557453    12.000000000000
         C            0.189687880925     0.032780198616     2.235736557453    12.000000000000
         O            0.762687880925     0.504780198616     3.216736557453    15.994914619570
         N           -0.098312119075     0.761780198616     1.171736557453    14.003074004430
         H            0.144687880925     1.737780198616     1.164736557453     1.007825032230
         H           -0.487312119075     0.306780198616     0.343736557453     1.007825032230
         H           -0.877312119075    -1.596219801384     1.331736557453     1.007825032230
         H           -0.781312119075    -1.648219801384     3.091736557453     1.007825032230
         H            0.644257880925    -2.108178801384     2.110869557453     1.007825032230

  Running in c1 symmetry.

  Rotational constants: A =      0.13329  B =      0.02530  C =      0.02341 [cm^-1]
  Rotational constants: A =   3995.83447  B =    758.61475  C =    701.79550 [MHz]
  Nuclear repulsion =  354.956556091957509

  Charge       = -1
  Multiplicity = 1
  Electrons    = 64
  Nalpha       = 32
  Nbeta        = 32

  ==> Algorithm <==

  SCF Algorithm Type is PK.
  DIIS enabled.
  MOM disabled.
  Fractional occupation disabled.
  Guess Type is SAD.
  Energy threshold   = 1.00e-06
  Density threshold  = 1.00e-10
  Integral threshold = 0.00e+00

  ==> Primary Basis <==

  Basis Set: CC-PVDZ
    Blend: CC-PVDZ
    Number of shells: 72
    Number of basis function: 152
    Number of Cartesian functions: 160
    Spherical Harmonics?: true
    Max angular momentum: 2

  ==> Pre-Iterations <==

   -------------------------------------------------------
    Irrep   Nso     Nmo     Nalpha   Nbeta   Ndocc  Nsocc
   -------------------------------------------------------
     A        152     152       0       0       0       0
   -------------------------------------------------------
    Total     152     152      32      32      32       0
   -------------------------------------------------------

  ==> Integral Setup <==

  Using integral reordering PK algorithm.
  Sizing the integral batches needed.
  Building batch lookup table.
   Calculation information:
      Number of atoms:                  16
      Number of AO shells:              72
      Number of primitives:            216
      Number of atomic orbitals:       160
      Number of basis functions:       152

      Integral cutoff                 1.00e-12
      Number of threads:                 1

	Batch   1 pq = [       0,    9405] index = [             0,44231715] size =     44231715
	Batch   2 pq = [    9405,   11628] index = [      44231715,67611006] size =     23379291
  Task number: 7
  Buffer size: 11059200
  Buffer per thread: 2
  We computed 2805822 shell quartets total.
  Whereas there are 3454506 unique shell quartets.

  ==> DiskJK: Disk-Based J/K Matrices <==

    J tasked:                  Yes
    K tasked:                  Yes
    wK tasked:                  No
    Memory [MiB]:              375
    Schwarz Cutoff:          1E-12

    OpenMP threads:              1

  Minimum eigenvalue in the overlap matrix is 4.5499006923E-03.
  Using Symmetric Orthogonalization.

  SCF Guess: Superposition of Atomic Densities via on-the-fly atomic UHF.

  ==> Iterations <==

                        Total Energy        Delta E     RMS |[F,P]|

   @RHF iter SAD:  -433.50920607980640   -4.33509e+02   0.00000e+00
   @RHF iter   1:  -434.96002049108495   -1.45081e+00   5.38350e-03 DIIS
   @RHF iter   2:  -435.18779643937859   -2.27776e-01   3.12024e-03 DIIS
   @RHF iter   3:  -435.26599678613815   -7.82003e-02   4.74210e-04 DIIS
   @RHF iter   4:  -435.26918823825667   -3.19145e-03   1.85994e-04 DIIS
   @RHF iter   5:  -435.26973317035061   -5.44932e-04   3.77195e-05 DIIS
   @RHF iter   6:  -435.26975960940149   -2.64391e-05   1.90056e-05 DIIS
   @RHF iter   7:  -435.26976571235667   -6.10296e-06   5.12676e-06 DIIS
   @RHF iter   8:  -435.26976662580512   -9.13448e-07   2.31010e-06 DIIS
   @RHF iter   9:  -435.26976677970646   -1.53901e-07   9.10531e-07 DIIS
   @RHF iter  10:  -435.26976680321184   -2.35054e-08   2.33206e-07 DIIS
   @RHF iter  11:  -435.26976680444966   -1.23782e-09   1.01375e-07 DIIS
   @RHF iter  12:  -435.26976680459416   -1.44496e-10   2.34337e-08 DIIS
   @RHF iter  13:  -435.26976680460837   -1.42109e-11   6.08146e-09 DIIS
   @RHF iter  14:  -435.26976680461013   -1.76215e-12   2.08851e-09 DIIS
   @RHF iter  15:  -435.26976680460859    1.53477e-12   6.97192e-10 DIIS
   @RHF iter  16:  -435.26976680460700    1.59162e-12   2.59869e-10 DIIS
   @RHF iter  17:  -435.26976680460882   -1.81899e-12   1.23717e-10 DIIS
   @RHF iter  18:  -435.26976680460859    2.27374e-13   4.31274e-11 DIIS
  Energy and wave function converged.

  ==> Post-Iterations <==

    Orbital Energies [Eh]
    ---------------------

    Doubly Occupied:

       1A    -20.362317     2A    -20.293729     3A    -20.288301
       4A    -15.422424     5A    -11.205653     6A    -11.144768
       7A    -11.108782     8A    -11.069396     9A     -1.227145
      10A     -1.182766    11A     -1.069651    12A     -1.058283
      13A     -0.862074    14A     -0.818342    15A     -0.645044
      16A     -0.570471    17A     -0.526344    18A     -0.515212
      19A     -0.476657    20A     -0.438171    21A     -0.435989
      22A     -0.431168    23A     -0.421822    24A     -0.419303
      25A     -0.384316    26A     -0.367567    27A     -0.331794
      28A     -0.272968    29A     -0.253096    30A     -0.215055
      31A     -0.202813    32A     -0.194851

    Virtual:

      33A      0.313616    34A      0.331575    35A      0.340455
      36A      0.360017    37A      0.376430    38A      0.401173
      39A      0.402875    40A      0.413718    41A      0.456991
      42A      0.490859    43A      0.551348    44A      0.555748
      45A      0.596946    46A      0.675714    47A      0.709036
      48A      0.742023    49A      0.773099    50A      0.804226
      51A      0.816304    52A      0.833820    53A      0.834123
      54A      0.864122    55A      0.876955    56A      0.903482
      57A      0.936178    58A      0.957844    59A      0.985532
      60A      0.990563    61A      1.014989    62A      1.016088
      63A      1.018756    64A      1.027228    65A      1.055578
      66A      1.071848    67A      1.084083    68A      1.111689
      69A      1.149991    70A      1.182289    71A      1.202981
      72A      1.215132    73A      1.264041    74A      1.306436
      75A      1.319741    76A      1.350174    77A      1.425476
      78A      1.472818    79A      1.499896    80A      1.507245
      81A      1.525330    82A      1.535525    83A      1.547071
      84A      1.562078    85A      1.583308    86A      1.607650
      87A      1.609477    88A      1.665998    89A      1.684068
      90A      1.704028    91A      1.716489    92A      1.781096
      93A      1.795616    94A      1.822357    95A      1.830328
      96A      1.866176    97A      1.979914    98A      2.001176
      99A      2.017042   100A      2.024079   101A      2.050064
     102A      2.062102   103A      2.071532   104A      2.082445
     105A      2.094869   106A      2.119140   107A      2.155529
     108A      2.192072   109A      2.205223   110A      2.246521
     111A      2.275886   112A      2.292548   113A      2.303456
     114A      2.363407   115A      2.411367   116A      2.427287
     117A      2.462266   118A      2.542178   119A      2.558160
     120A      2.590274   121A      2.614394   122A      2.631440
     123A      2.690239   124A      2.723058   125A      2.735113
     126A      2.789057   127A      2.824981   128A      2.883163
     129A      2.899057   130A      2.925469   131A      2.936756
     132A      2.937150   133A      2.973177   134A      2.981837
     135A      3.131186   136A      3.211904   137A      3.237939
     138A      3.244363   139A      3.264226   140A      3.290852
     141A      3.332607   142A      3.502929   143A      3.610470
     144A      3.652878   145A      3.672167   146A      3.765698
     147A      3.800839   148A      4.002450   149A      4.041533
     150A      4.045325   151A      4.066935   152A      4.176564

    Final Occupation by Irrep:
              A
    DOCC [    32 ]

  @RHF Final Energy:  -435.26976680460859

   => Energetics <=

    Nuclear Repulsion Energy =            354.9565560919575091
    One-Electron Energy =               -1312.0201054375879721
    Two-Electron Energy =                 521.7937825410218693
    Total Energy =                       -435.2697668046085937

Computation Completed

Properties will be evaluated at   0.000000,   0.000000,   0.000000 [a0]

Properties computed using the SCF density matrix

  Nuclear Dipole Moment: [e a0]
     X:     1.6579      Y:    -5.4290      Z:    -1.5870

  Electronic Dipole Moment: [e a0]
     X:    -1.2170      Y:     4.3448      Z:     2.3351

  Dipole Moment: [e a0]
     X:     0.4409      Y:    -1.0842      Z:     0.7482     Total:     1.3891

  Dipole Moment: [D]
     X:     1.1208      Y:    -2.7557      Z:     1.9016     Total:     3.5307

*** tstop() called on ds3 at Mon Apr 27 16:04:33 2020
Module time:
	user time   =      25.42 seconds =       0.42 minutes
	system time =      12.78 seconds =       0.21 minutes
	total time  =         37 seconds =       0.62 minutes
Total time:
	user time   =      25.42 seconds =       0.42 minutes
	system time =      12.78 seconds =       0.21 minutes
	total time  =         37 seconds =       0.62 minutes
                                     G D M A

                                 by Anthony Stone

                           version 2.2.06, 22 June 2011

               Distributed Multipoles from Gaussian wavefunctions

Starting at 16:4:33 on 27 Apr 2020

Using SCF density matrix from file ./SSI/SSI-107ASP-125ASN-1-dimer.test.10945.fchk

                         Distributed Multipole Analysis

Standard DMA

Positions and radii in angstrom
Multipole moments in atomic units, ea_0^k for rank k

C          x =  0.806688  y = -0.641220  z = -3.014263 angstrom
           Maximum rank =  0   Radius =  0.650 angstrom
                   Q00  =  -0.274914

C          x = -0.210312  y =  0.063780  z = -2.141263 angstrom
           Maximum rank =  0   Radius =  0.650 angstrom
                   Q00  =   0.944932

O          x = -0.810312  y = -0.610220  z = -1.274263 angstrom
           Maximum rank =  0   Radius =  0.650 angstrom
                   Q00  =  -0.949809

O          x = -0.402312  y =  1.286780  z = -2.311263 angstrom
           Maximum rank =  0   Radius =  0.650 angstrom
                   Q00  =  -0.908868

H          x =  1.188688  y =  0.029780  z = -3.784263 angstrom
           Maximum rank =  0   Radius =  0.325 angstrom
                   Q00  =   0.059277

H          x =  0.299688  y = -1.465220  z = -3.522263 angstrom
           Maximum rank =  0   Radius =  0.325 angstrom
                   Q00  =   0.072406

H          x =  1.639108  y = -1.051314  z = -2.423584 angstrom
           Maximum rank =  0   Radius =  0.325 angstrom
                   Q00  =   0.076200

C          x = -0.220312  y = -1.432220  z =  2.185737 angstrom
           Maximum rank =  0   Radius =  0.650 angstrom
                   Q00  =  -0.266800

C          x =  0.189688  y =  0.032780  z =  2.235737 angstrom
           Maximum rank =  0   Radius =  0.650 angstrom
                   Q00  =   0.844912

O          x =  0.762688  y =  0.504780  z =  3.216737 angstrom
           Maximum rank =  0   Radius =  0.650 angstrom
                   Q00  =  -0.865934

N          x = -0.098312  y =  0.761780  z =  1.171737 angstrom
           Maximum rank =  0   Radius =  0.650 angstrom
                   Q00  =  -0.549828

H          x =  0.144688  y =  1.737780  z =  1.164737 angstrom
           Maximum rank =  0   Radius =  0.325 angstrom
                   Q00  =   0.197910

H          x = -0.487312  y =  0.306780  z =  0.343737 angstrom
           Maximum rank =  0   Radius =  0.325 angstrom
                   Q00  =   0.301634

H          x = -0.877312  y = -1.596220  z =  1.331737 angstrom
           Maximum rank =  0   Radius =  0.325 angstrom
                   Q00  =   0.119928

H          x = -0.781312  y = -1.648220  z =  3.091737 angstrom
           Maximum rank =  0   Radius =  0.325 angstrom
                   Q00  =   0.089995

H          x =  0.644258  y = -2.108179  z =  2.110870 angstrom
           Maximum rank =  0   Radius =  0.325 angstrom
                   Q00  =   0.108959

Total multipoles referred to origin at
           x =   0.000000,  y =    0.000000,  z =    0.000000 angstrom
                   Q00  =  -1.000000

Finished at 16:4:33 on 27 Apr 2020

  DMA results are available in the Python driver through the
	  variable('DMA DISTRIBUTED MULTIPOLES')
  and
	  variable('DMA TOTAL MULTIPOLES')
  commands.

    Psi4 stopped on: Monday, 27 April 2020 04:04PM
    Psi4 wall time for execution: 0:00:37.02

*** Psi4 exiting successfully. Buy a developer a beer!
