                               Psi4 1.3.2 release

  ==> Input File <==

--------------------------------------------------------------------------
import numpy as np
set {scf_type pk
basis cc-pvdz
d_convergence 10
gdma_switch   0
gdma_limit    0
gdma_origin   [ 0.0,  0.0,  0.0 ]
}
molecule test {
    units Angstrom
    0 1
    --
    0 1
    C                3.157542055631931    -2.008540675173406    -0.482299888235362
    C                0.778542055631932     1.535459324826594     0.191700111764638
    C                0.995542055631932     1.070459324826594    -1.105299888235362
    C                1.318542055631932     0.837459324826594     1.277700111764638
    C                1.754542055631932    -0.085540675173406    -1.320299888235362
    C                2.078542055631932    -0.322540675173406     1.055700111764638
    C                2.302542055631932    -0.787540675173406    -0.243299888235362
    H                0.200542055631932     2.434459324826594     0.356700111764638
    H                0.556542055631932     1.593459324826594    -1.932299888235362
    H                1.168542055631932     1.222459324826594     2.272700111764638
    H                1.921542055631932    -0.421540675173406    -2.334299888235361
    H                2.505542055631931    -0.847540675173406     1.897700111764638
    H                3.449542055631932    -2.436540675173406     0.475700111764638
    H                4.067542055631931    -1.687540675173406    -0.991299888235362
    H                2.672852055631932    -2.790233675173406    -1.085648888235362
    C               -2.572457944368068     0.271459324826594     0.169700111764638
    C               -3.288457944368068     0.171459324826594     1.518700111764638
    C               -1.903457944368068    -1.057540675173406    -0.169299888235362
    C               -3.583457944368068     0.660459324826594    -0.907299888235362
    H               -1.810457944368068     1.043459324826594     0.223700111764638
    H               -2.655457944368068    -0.367540675173406     2.223700111764638
    H               -4.195457944368068    -0.420540675173406     1.387700111764638
    H               -2.648457944368069    -1.847540675173406    -0.188299888235362
    H               -1.421457944368068    -0.984540675173406    -1.144299888235362
    H               -1.141457944368068    -1.288540675173406     0.574700111764638
    H               -4.019457944368068     1.634459324826594    -0.697299888235362
    H               -3.078457944368068     0.711459324826594    -1.870299888235362
    H               -4.378457944368069    -0.082540675173406    -0.965299888235362
    H               -3.552367944368068     1.140812324826594     1.966700111764638

}
e, wfn = energy('scf', return_wfn=True)
gdma(wfn)
dmavals = variable('DMA DISTRIBUTED MULTIPOLES')
charges = np.array(dmavals)
print(charges)
np.save('SSI-016PHE-192LEU-1-dimer.npy', np.array(charges))--------------------------------------------------------------------------

*** tstart() called on ds3
*** at Mon Apr 27 16:28:01 2020

   => Loading Basis Set <=

    Name: CC-PVDZ
    Role: ORBITAL
    Keyword: BASIS
    atoms 1-7, 16-19  entry C          line   138 file /theoryfs2/ds/metcalf/miniconda2/envs/tf2gpu/share/psi4/basis/cc-pvdz.gbs
    atoms 8-15, 20-29 entry H          line    22 file /theoryfs2/ds/metcalf/miniconda2/envs/tf2gpu/share/psi4/basis/cc-pvdz.gbs

         ---------------------------------------------------------
                                   SCF
               by Justin Turney, Rob Parrish, Andy Simmonett
                          and Daniel G. A. Smith
                              RHF Reference
                        1 Threads,    500 MiB Core
         ---------------------------------------------------------

  ==> Geometry <==

    Molecular point group: c1
    Full point group: C1

    Geometry (in Angstrom), charge = 0, multiplicity = 1:

       Center              X                  Y                   Z               Mass
    ------------   -----------------  -----------------  -----------------  -----------------
         C            3.157542055632    -2.008540675173    -0.482299888235    12.000000000000
         C            0.778542055632     1.535459324827     0.191700111765    12.000000000000
         C            0.995542055632     1.070459324827    -1.105299888235    12.000000000000
         C            1.318542055632     0.837459324827     1.277700111765    12.000000000000
         C            1.754542055632    -0.085540675173    -1.320299888235    12.000000000000
         C            2.078542055632    -0.322540675173     1.055700111765    12.000000000000
         C            2.302542055632    -0.787540675173    -0.243299888235    12.000000000000
         H            0.200542055632     2.434459324827     0.356700111765     1.007825032230
         H            0.556542055632     1.593459324827    -1.932299888235     1.007825032230
         H            1.168542055632     1.222459324827     2.272700111765     1.007825032230
         H            1.921542055632    -0.421540675173    -2.334299888235     1.007825032230
         H            2.505542055632    -0.847540675173     1.897700111765     1.007825032230
         H            3.449542055632    -2.436540675173     0.475700111765     1.007825032230
         H            4.067542055632    -1.687540675173    -0.991299888235     1.007825032230
         H            2.672852055632    -2.790233675173    -1.085648888235     1.007825032230
         C           -2.572457944368     0.271459324827     0.169700111765    12.000000000000
         C           -3.288457944368     0.171459324827     1.518700111765    12.000000000000
         C           -1.903457944368    -1.057540675173    -0.169299888235    12.000000000000
         C           -3.583457944368     0.660459324827    -0.907299888235    12.000000000000
         H           -1.810457944368     1.043459324827     0.223700111765     1.007825032230
         H           -2.655457944368    -0.367540675173     2.223700111765     1.007825032230
         H           -4.195457944368    -0.420540675173     1.387700111765     1.007825032230
         H           -2.648457944368    -1.847540675173    -0.188299888235     1.007825032230
         H           -1.421457944368    -0.984540675173    -1.144299888235     1.007825032230
         H           -1.141457944368    -1.288540675173     0.574700111765     1.007825032230
         H           -4.019457944368     1.634459324827    -0.697299888235     1.007825032230
         H           -3.078457944368     0.711459324827    -1.870299888235     1.007825032230
         H           -4.378457944368    -0.082540675173    -0.965299888235     1.007825032230
         H           -3.552367944368     1.140812324827     1.966700111765     1.007825032230

  Running in c1 symmetry.

  Rotational constants: A =      0.05722  B =      0.01646  C =      0.01622 [cm^-1]
  Rotational constants: A =   1715.53072  B =    493.38203  C =    486.37950 [MHz]
  Nuclear repulsion =  588.023143918504729

  Charge       = 0
  Multiplicity = 1
  Electrons    = 84
  Nalpha       = 42
  Nbeta        = 42

  ==> Algorithm <==

  SCF Algorithm Type is PK.
  DIIS enabled.
  MOM disabled.
  Fractional occupation disabled.
  Guess Type is SAD.
  Energy threshold   = 1.00e-06
  Density threshold  = 1.00e-10
  Integral threshold = 0.00e+00

  ==> Primary Basis <==

  Basis Set: CC-PVDZ
    Blend: CC-PVDZ
    Number of shells: 120
    Number of basis function: 244
    Number of Cartesian functions: 255
    Spherical Harmonics?: true
    Max angular momentum: 2

  ==> Pre-Iterations <==

   -------------------------------------------------------
    Irrep   Nso     Nmo     Nalpha   Nbeta   Ndocc  Nsocc
   -------------------------------------------------------
     A        244     244       0       0       0       0
   -------------------------------------------------------
    Total     244     244      42      42      42       0
   -------------------------------------------------------

  ==> Integral Setup <==

  Using integral reordering PK algorithm.
  Sizing the integral batches needed.
  Building batch lookup table.
   Calculation information:
      Number of atoms:                  29
      Number of AO shells:             120
      Number of primitives:            332
      Number of atomic orbitals:       255
      Number of basis functions:       244

      Integral cutoff                 1.00e-12
      Number of threads:                 1

	Batch   1 pq = [       0,    9405] index = [             0,44231715] size =     44231715
	Batch   2 pq = [    9405,   13301] index = [      44231715,88464951] size =     44233236
	Batch   3 pq = [   13301,   16290] index = [      88464951,132690195] size =     44225244
	Batch   4 pq = [   16290,   18810] index = [     132690195,176917455] size =     44227260
	Batch   5 pq = [   18810,   21030] index = [     176917455,221140965] size =     44223510
	Batch   6 pq = [   21030,   23037] index = [     221140965,265363203] size =     44222238
	Batch   7 pq = [   23037,   24883] index = [     265363203,309594286] size =     44231083
	Batch   8 pq = [   24883,   26601] index = [     309594286,353819901] size =     44225615
	Batch   9 pq = [   26601,   28214] index = [     353819901,398029005] size =     44209104
	Batch  10 pq = [   28214,   29740] index = [     398029005,442248670] size =     44219665
	Batch  11 pq = [   29740,   29890] index = [     442248670,446720995] size =      4472325
  Task number: 41
  Buffer size: 11059200
  Buffer per thread: 2
  We computed 27105656 shell quartets total.
  Whereas there are 26357430 unique shell quartets.
     2.84 percent of shell quartets recomputed by reordering.

  ==> DiskJK: Disk-Based J/K Matrices <==

    J tasked:                  Yes
    K tasked:                  Yes
    wK tasked:                  No
    Memory [MiB]:              375
    Schwarz Cutoff:          1E-12

    OpenMP threads:              1

  Minimum eigenvalue in the overlap matrix is 3.2259757700E-04.
  Using Symmetric Orthogonalization.

  SCF Guess: Superposition of Atomic Densities via on-the-fly atomic UHF.

  ==> Iterations <==

                        Total Energy        Delta E     RMS |[F,P]|

   @RHF iter SAD:  -425.90725278751268   -4.25907e+02   0.00000e+00
   @RHF iter   1:  -426.77205138027625   -8.64799e-01   2.64908e-03 DIIS
   @RHF iter   2:  -427.02051066341454   -2.48459e-01   1.12514e-03 DIIS
   @RHF iter   3:  -427.06122353284127   -4.07129e-02   2.45893e-04 DIIS
   @RHF iter   4:  -427.06452635671064   -3.30282e-03   5.59766e-05 DIIS
   @RHF iter   5:  -427.06464887302036   -1.22516e-04   1.23793e-05 DIIS
   @RHF iter   6:  -427.06465604526772   -7.17225e-06   3.13840e-06 DIIS
   @RHF iter   7:  -427.06465651268979   -4.67422e-07   1.29161e-06 DIIS
   @RHF iter   8:  -427.06465659608932   -8.33995e-08   3.45123e-07 DIIS
   @RHF iter   9:  -427.06465661179851   -1.57092e-08   1.62240e-07 DIIS
   @RHF iter  10:  -427.06465661585332   -4.05481e-09   7.33688e-08 DIIS
   @RHF iter  11:  -427.06465661694051   -1.08719e-09   2.96170e-08 DIIS
   @RHF iter  12:  -427.06465661709944   -1.58934e-10   1.06400e-08 DIIS
   @RHF iter  13:  -427.06465661711309   -1.36424e-11   4.10668e-09 DIIS
   @RHF iter  14:  -427.06465661711167    1.42109e-12   1.30548e-09 DIIS
   @RHF iter  15:  -427.06465661711241   -7.38964e-13   5.28393e-10 DIIS
   @RHF iter  16:  -427.06465661711144    9.66338e-13   2.45167e-10 DIIS
   @RHF iter  17:  -427.06465661711314   -1.70530e-12   1.11978e-10 DIIS
   @RHF iter  18:  -427.06465661711331   -1.70530e-13   3.57638e-11 DIIS
  Energy and wave function converged.

  ==> Post-Iterations <==

    Orbital Energies [Eh]
    ---------------------

    Doubly Occupied:

       1A    -11.244337     2A    -11.239251     3A    -11.237604
       4A    -11.235038     5A    -11.234055     6A    -11.233629
       7A    -11.231162     8A    -11.212426     9A    -11.207210
      10A    -11.206424    11A    -11.201587    12A     -1.150805
      13A     -1.075070    14A     -1.044597    15A     -1.010615
      16A     -0.932272    17A     -0.919917    18A     -0.916667
      19A     -0.827114    20A     -0.796023    21A     -0.757596
      22A     -0.691702    23A     -0.634741    24A     -0.630580
      25A     -0.625724    26A     -0.583520    27A     -0.582219
      28A     -0.578676    29A     -0.576618    30A     -0.564572
      31A     -0.536801    32A     -0.530720    33A     -0.524966
      34A     -0.498942    35A     -0.487927    36A     -0.485206
      37A     -0.482816    38A     -0.453281    39A     -0.449684
      40A     -0.447005    41A     -0.331925    42A     -0.322165

    Virtual:

      43A      0.130227    44A      0.138690    45A      0.171079
      46A      0.192173    47A      0.205288    48A      0.207221
      49A      0.228348    50A      0.237459    51A      0.244963
      52A      0.250424    53A      0.260671    54A      0.261225
      55A      0.269790    56A      0.273287    57A      0.282279
      58A      0.295091    59A      0.310292    60A      0.314335
      61A      0.326546    62A      0.335676    63A      0.359799
      64A      0.373273    65A      0.383412    66A      0.411398
      67A      0.421587    68A      0.449531    69A      0.461169
      70A      0.469946    71A      0.498744    72A      0.554627
      73A      0.562432    74A      0.580158    75A      0.597664
      76A      0.612095    77A      0.617097    78A      0.628309
      79A      0.631226    80A      0.675550    81A      0.693373
      82A      0.707053    83A      0.717340    84A      0.738317
      85A      0.738499    86A      0.750116    87A      0.751361
      88A      0.761684    89A      0.769131    90A      0.777822
      91A      0.795852    92A      0.821692    93A      0.827691
      94A      0.840412    95A      0.851708    96A      0.858319
      97A      0.864172    98A      0.871655    99A      0.879014
     100A      0.884863   101A      0.891017   102A      0.892331
     103A      0.902764   104A      0.903983   105A      0.911301
     106A      0.922319   107A      0.922792   108A      0.925573
     109A      0.939874   110A      0.943555   111A      0.947797
     112A      0.956915   113A      0.972549   114A      0.979758
     115A      0.988840   116A      0.993957   117A      1.001428
     118A      1.016655   119A      1.066684   120A      1.085685
     121A      1.119856   122A      1.127907   123A      1.140824
     124A      1.145618   125A      1.151771   126A      1.165395
     127A      1.182800   128A      1.216120   129A      1.240110
     130A      1.244794   131A      1.254507   132A      1.265521
     133A      1.293414   134A      1.309552   135A      1.313319
     136A      1.328610   137A      1.385044   138A      1.409325
     139A      1.420258   140A      1.424406   141A      1.499825
     142A      1.522673   143A      1.548489   144A      1.557609
     145A      1.571915   146A      1.602204   147A      1.656957
     148A      1.675360   149A      1.682325   150A      1.684465
     151A      1.694644   152A      1.698288   153A      1.706931
     154A      1.715866   155A      1.733469   156A      1.749578
     157A      1.760908   158A      1.777366   159A      1.787644
     160A      1.819148   161A      1.842568   162A      1.852716
     163A      1.869610   164A      1.872595   165A      1.890849
     166A      1.895174   167A      1.903912   168A      1.919067
     169A      1.920987   170A      1.942091   171A      1.943611
     172A      1.944782   173A      1.951671   174A      1.959265
     175A      1.967087   176A      1.975817   177A      1.979157
     178A      1.992906   179A      1.996384   180A      2.016671
     181A      2.020104   182A      2.031124   183A      2.047978
     184A      2.061480   185A      2.075757   186A      2.082773
     187A      2.097657   188A      2.106629   189A      2.121046
     190A      2.123624   191A      2.142943   192A      2.151825
     193A      2.163995   194A      2.168187   195A      2.174742
     196A      2.197104   197A      2.245578   198A      2.254184
     199A      2.256408   200A      2.273102   201A      2.283186
     202A      2.295108   203A      2.317319   204A      2.324248
     205A      2.337423   206A      2.355672   207A      2.358862
     208A      2.379900   209A      2.399920   210A      2.433499
     211A      2.472323   212A      2.492232   213A      2.507414
     214A      2.529581   215A      2.588745   216A      2.603861
     217A      2.628539   218A      2.659128   219A      2.711100
     220A      2.724393   221A      2.743542   222A      2.755377
     223A      2.768872   224A      2.774208   225A      2.784473
     226A      2.795360   227A      2.806528   228A      2.811463
     229A      2.824966   230A      2.843991   231A      2.853030
     232A      2.858790   233A      2.863909   234A      2.879863
     235A      2.972203   236A      3.005725   237A      3.015889
     238A      3.036538   239A      3.050704   240A      3.154334
     241A      3.157630   242A      3.191645   243A      3.293715
     244A      3.949745

    Final Occupation by Irrep:
              A
    DOCC [    42 ]

  @RHF Final Energy:  -427.06465661711331

   => Energetics <=

    Nuclear Repulsion Energy =            588.0231439185047293
    One-Electron Energy =               -1742.3092156740372047
    Two-Electron Energy =                 727.2214151384191609
    Total Energy =                       -427.0646566171133145

Computation Completed

Properties will be evaluated at   0.000000,   0.000000,   0.000000 [a0]

Properties computed using the SCF density matrix

  Nuclear Dipole Moment: [e a0]
     X:   -11.5860      Y:    -3.1818      Z:     0.1596

  Electronic Dipole Moment: [e a0]
     X:    11.8637      Y:     3.1223      Z:    -0.1960

  Dipole Moment: [e a0]
     X:     0.2776      Y:    -0.0595      Z:    -0.0364     Total:     0.2863

  Dipole Moment: [D]
     X:     0.7057      Y:    -0.1513      Z:    -0.0925     Total:     0.7276

*** tstop() called on ds3 at Mon Apr 27 16:32:44 2020
Module time:
	user time   =     202.10 seconds =       3.37 minutes
	system time =      88.98 seconds =       1.48 minutes
	total time  =        283 seconds =       4.72 minutes
Total time:
	user time   =     202.10 seconds =       3.37 minutes
	system time =      88.98 seconds =       1.48 minutes
	total time  =        283 seconds =       4.72 minutes
                                     G D M A

                                 by Anthony Stone

                           version 2.2.06, 22 June 2011

               Distributed Multipoles from Gaussian wavefunctions

Starting at 16:32:44 on 27 Apr 2020

Using SCF density matrix from file ./SSI/SSI-016PHE-192LEU-1-dimer.test.26915.fchk

                         Distributed Multipole Analysis

Standard DMA

Positions and radii in angstrom
Multipole moments in atomic units, ea_0^k for rank k

C          x =  3.157542  y = -2.008541  z = -0.482300 angstrom
           Maximum rank =  0   Radius =  0.650 angstrom
                   Q00  =  -0.203090

C          x =  0.778542  y =  1.535459  z =  0.191700 angstrom
           Maximum rank =  0   Radius =  0.650 angstrom
                   Q00  =  -0.082553

C          x =  0.995542  y =  1.070459  z = -1.105300 angstrom
           Maximum rank =  0   Radius =  0.650 angstrom
                   Q00  =  -0.077320

C          x =  1.318542  y =  0.837459  z =  1.277700 angstrom
           Maximum rank =  0   Radius =  0.650 angstrom
                   Q00  =  -0.082464

C          x =  1.754542  y = -0.085541  z = -1.320300 angstrom
           Maximum rank =  0   Radius =  0.650 angstrom
                   Q00  =  -0.019864

C          x =  2.078542  y = -0.322541  z =  1.055700 angstrom
           Maximum rank =  0   Radius =  0.650 angstrom
                   Q00  =  -0.056661

C          x =  2.302542  y = -0.787541  z = -0.243300 angstrom
           Maximum rank =  0   Radius =  0.650 angstrom
                   Q00  =  -0.096536

H          x =  0.200542  y =  2.434459  z =  0.356700 angstrom
           Maximum rank =  0   Radius =  0.325 angstrom
                   Q00  =   0.064420

H          x =  0.556542  y =  1.593459  z = -1.932300 angstrom
           Maximum rank =  0   Radius =  0.325 angstrom
                   Q00  =   0.065699

H          x =  1.168542  y =  1.222459  z =  2.272700 angstrom
           Maximum rank =  0   Radius =  0.325 angstrom
                   Q00  =   0.068301

H          x =  1.921542  y = -0.421541  z = -2.334300 angstrom
           Maximum rank =  0   Radius =  0.325 angstrom
                   Q00  =   0.057130

H          x =  2.505542  y = -0.847541  z =  1.897700 angstrom
           Maximum rank =  0   Radius =  0.325 angstrom
                   Q00  =   0.061350

H          x =  3.449542  y = -2.436541  z =  0.475700 angstrom
           Maximum rank =  0   Radius =  0.325 angstrom
                   Q00  =   0.097839

H          x =  4.067542  y = -1.687541  z = -0.991300 angstrom
           Maximum rank =  0   Radius =  0.325 angstrom
                   Q00  =   0.102469

H          x =  2.672852  y = -2.790234  z = -1.085649 angstrom
           Maximum rank =  0   Radius =  0.325 angstrom
                   Q00  =   0.103590

C          x = -2.572458  y =  0.271459  z =  0.169700 angstrom
           Maximum rank =  0   Radius =  0.650 angstrom
                   Q00  =   0.004346

C          x = -3.288458  y =  0.171459  z =  1.518700 angstrom
           Maximum rank =  0   Radius =  0.650 angstrom
                   Q00  =  -0.234618

C          x = -1.903458  y = -1.057541  z = -0.169300 angstrom
           Maximum rank =  0   Radius =  0.650 angstrom
                   Q00  =  -0.234236

C          x = -3.583458  y =  0.660459  z = -0.907300 angstrom
           Maximum rank =  0   Radius =  0.650 angstrom
                   Q00  =  -0.248370

H          x = -1.810458  y =  1.043459  z =  0.223700 angstrom
           Maximum rank =  0   Radius =  0.325 angstrom
                   Q00  =   0.020654

H          x = -2.655458  y = -0.367541  z =  2.223700 angstrom
           Maximum rank =  0   Radius =  0.325 angstrom
                   Q00  =   0.074379

H          x = -4.195458  y = -0.420541  z =  1.387700 angstrom
           Maximum rank =  0   Radius =  0.325 angstrom
                   Q00  =   0.070738

H          x = -2.648458  y = -1.847541  z = -0.188300 angstrom
           Maximum rank =  0   Radius =  0.325 angstrom
                   Q00  =   0.067896

H          x = -1.421458  y = -0.984541  z = -1.144300 angstrom
           Maximum rank =  0   Radius =  0.325 angstrom
                   Q00  =   0.081528

H          x = -1.141458  y = -1.288541  z =  0.574700 angstrom
           Maximum rank =  0   Radius =  0.325 angstrom
                   Q00  =   0.089530

H          x = -4.019458  y =  1.634459  z = -0.697300 angstrom
           Maximum rank =  0   Radius =  0.325 angstrom
                   Q00  =   0.077501

H          x = -3.078458  y =  0.711459  z = -1.870300 angstrom
           Maximum rank =  0   Radius =  0.325 angstrom
                   Q00  =   0.074101

H          x = -4.378458  y = -0.082541  z = -0.965300 angstrom
           Maximum rank =  0   Radius =  0.325 angstrom
                   Q00  =   0.074597

H          x = -3.552368  y =  1.140812  z =  1.966700 angstrom
           Maximum rank =  0   Radius =  0.325 angstrom
                   Q00  =   0.079643

Total multipoles referred to origin at
           x =   0.000000,  y =    0.000000,  z =    0.000000 angstrom
                   Q00  =  -0.000000

Finished at 16:32:44 on 27 Apr 2020

  DMA results are available in the Python driver through the
	  variable('DMA DISTRIBUTED MULTIPOLES')
  and
	  variable('DMA TOTAL MULTIPOLES')
  commands.

    Psi4 stopped on: Monday, 27 April 2020 04:32PM
    Psi4 wall time for execution: 0:04:42.43

*** Psi4 exiting successfully. Buy a developer a beer!
