                               Psi4 1.3.2 release

  ==> Input File <==

--------------------------------------------------------------------------
import numpy as np
set {scf_type pk
basis cc-pvdz
d_convergence 10
gdma_switch   0
gdma_limit    0
gdma_origin   [ 0.0,  0.0,  0.0 ]
}
molecule test {
    units Angstrom
    0 1
    --
    0 1
    C               -2.427590904122848    -2.458708297058410    -0.209841661586615
    C               -2.742590904122848    -2.348708297058409     1.259158338413385
    H               -1.406590904122847    -2.134708297058410    -0.392841661586615
    H               -2.522590904122847    -3.497708297058409    -0.522841661586615
    H               -3.102590904122847    -1.863708297058410    -0.815841661586615
    H               -3.777590904122848    -2.654708297058409     1.416158338413385
    H               -2.621040904122848    -1.309778297058410     1.599511338413385
    H               -2.103540904122847    -3.046508297058409     1.820122338413385
    C               -0.664590904122848    -0.023708297058410    -2.767841661586615
    C                0.522409095877152     0.202291702941590    -0.422841661586615
    C               -0.238590904122848     0.710291702941590    -1.539841661586615
    C                0.704409095877153     1.276291702941590     0.485158338413385
    C               -0.472590904122848     2.013291702941590    -1.271841661586615
    C                1.081409095877153    -1.043708297058410    -0.088841661586615
    C                1.788409095877153    -1.175708297058409     1.119158338413385
    C                1.948409095877152    -0.088708297058410     1.987158338413385
    C                1.399409095877153     1.142291702941590     1.680158338413385
    N                0.072409095877152     2.357291702941591    -0.063841661586615
    H                0.958409095877153    -1.895708297058410    -0.735841661586615
    H                2.220409095877152    -2.133708297058409     1.379158338413385
    H                2.510409095877152    -0.213708297058410     2.903158338413385
    H               -1.099590904122848     0.696291702941590    -3.462841661586615
    H               -1.448590904122848    -0.729708297058410    -2.490841661586615
    H               -1.016590904122848     2.690291702941591    -1.923841661586615
    H                0.044409095877152     3.290291702941591     0.329158338413385
    H                1.523409095877152     1.991291702941590     2.334158338413385
    H                0.137309095877152    -0.570978297058410    -3.284990661586615

}
e, wfn = energy('scf', return_wfn=True)
gdma(wfn)
dmavals = variable('DMA DISTRIBUTED MULTIPOLES')
charges = np.array(dmavals)
print(charges)
np.save('SSI-041LEU-170TRP-1-dimer.npy', np.array(charges))--------------------------------------------------------------------------

*** tstart() called on ds3
*** at Mon Apr 27 16:16:32 2020

   => Loading Basis Set <=

    Name: CC-PVDZ
    Role: ORBITAL
    Keyword: BASIS
    atoms 1-2, 9-17  entry C          line   138 file /theoryfs2/ds/metcalf/miniconda2/envs/tf2gpu/share/psi4/basis/cc-pvdz.gbs
    atoms 3-8, 19-27 entry H          line    22 file /theoryfs2/ds/metcalf/miniconda2/envs/tf2gpu/share/psi4/basis/cc-pvdz.gbs
    atoms 18         entry N          line   168 file /theoryfs2/ds/metcalf/miniconda2/envs/tf2gpu/share/psi4/basis/cc-pvdz.gbs

         ---------------------------------------------------------
                                   SCF
               by Justin Turney, Rob Parrish, Andy Simmonett
                          and Daniel G. A. Smith
                              RHF Reference
                        1 Threads,    500 MiB Core
         ---------------------------------------------------------

  ==> Geometry <==

    Molecular point group: c1
    Full point group: C1

    Geometry (in Angstrom), charge = 0, multiplicity = 1:

       Center              X                  Y                   Z               Mass
    ------------   -----------------  -----------------  -----------------  -----------------
         C           -2.427590904123    -2.458708297058    -0.209841661587    12.000000000000
         C           -2.742590904123    -2.348708297058     1.259158338413    12.000000000000
         H           -1.406590904123    -2.134708297058    -0.392841661587     1.007825032230
         H           -2.522590904123    -3.497708297058    -0.522841661587     1.007825032230
         H           -3.102590904123    -1.863708297058    -0.815841661587     1.007825032230
         H           -3.777590904123    -2.654708297058     1.416158338413     1.007825032230
         H           -2.621040904123    -1.309778297058     1.599511338413     1.007825032230
         H           -2.103540904123    -3.046508297058     1.820122338413     1.007825032230
         C           -0.664590904123    -0.023708297058    -2.767841661587    12.000000000000
         C            0.522409095877     0.202291702942    -0.422841661587    12.000000000000
         C           -0.238590904123     0.710291702942    -1.539841661587    12.000000000000
         C            0.704409095877     1.276291702942     0.485158338413    12.000000000000
         C           -0.472590904123     2.013291702942    -1.271841661587    12.000000000000
         C            1.081409095877    -1.043708297058    -0.088841661587    12.000000000000
         C            1.788409095877    -1.175708297058     1.119158338413    12.000000000000
         C            1.948409095877    -0.088708297058     1.987158338413    12.000000000000
         C            1.399409095877     1.142291702942     1.680158338413    12.000000000000
         N            0.072409095877     2.357291702942    -0.063841661587    14.003074004430
         H            0.958409095877    -1.895708297058    -0.735841661587     1.007825032230
         H            2.220409095877    -2.133708297058     1.379158338413     1.007825032230
         H            2.510409095877    -0.213708297058     2.903158338413     1.007825032230
         H           -1.099590904123     0.696291702942    -3.462841661587     1.007825032230
         H           -1.448590904123    -0.729708297058    -2.490841661587     1.007825032230
         H           -1.016590904123     2.690291702942    -1.923841661587     1.007825032230
         H            0.044409095877     3.290291702942     0.329158338413     1.007825032230
         H            1.523409095877     1.991291702942     2.334158338413     1.007825032230
         H            0.137309095877    -0.570978297058    -3.284990661587     1.007825032230

  Running in c1 symmetry.

  Rotational constants: A =      0.03116  B =      0.02470  C =      0.01764 [cm^-1]
  Rotational constants: A =    934.24034  B =    740.41134  C =    528.70657 [MHz]
  Nuclear repulsion =  665.460322610765616

  Charge       = 0
  Multiplicity = 1
  Electrons    = 88
  Nalpha       = 44
  Nbeta        = 44

  ==> Algorithm <==

  SCF Algorithm Type is PK.
  DIIS enabled.
  MOM disabled.
  Fractional occupation disabled.
  Guess Type is SAD.
  Energy threshold   = 1.00e-06
  Density threshold  = 1.00e-10
  Integral threshold = 0.00e+00

  ==> Primary Basis <==

  Basis Set: CC-PVDZ
    Blend: CC-PVDZ
    Number of shells: 117
    Number of basis function: 243
    Number of Cartesian functions: 255
    Spherical Harmonics?: true
    Max angular momentum: 2

  ==> Pre-Iterations <==

   -------------------------------------------------------
    Irrep   Nso     Nmo     Nalpha   Nbeta   Ndocc  Nsocc
   -------------------------------------------------------
     A        243     243       0       0       0       0
   -------------------------------------------------------
    Total     243     243      44      44      44       0
   -------------------------------------------------------

  ==> Integral Setup <==

  Using integral reordering PK algorithm.
  Sizing the integral batches needed.
  Building batch lookup table.
   Calculation information:
      Number of atoms:                  27
      Number of AO shells:             117
      Number of primitives:            339
      Number of atomic orbitals:       255
      Number of basis functions:       243

      Integral cutoff                 1.00e-12
      Number of threads:                 1

	Batch   1 pq = [       0,    9405] index = [             0,44231715] size =     44231715
	Batch   2 pq = [    9405,   13301] index = [      44231715,88464951] size =     44233236
	Batch   3 pq = [   13301,   16290] index = [      88464951,132690195] size =     44225244
	Batch   4 pq = [   16290,   18810] index = [     132690195,176917455] size =     44227260
	Batch   5 pq = [   18810,   21030] index = [     176917455,221140965] size =     44223510
	Batch   6 pq = [   21030,   23037] index = [     221140965,265363203] size =     44222238
	Batch   7 pq = [   23037,   24883] index = [     265363203,309594286] size =     44231083
	Batch   8 pq = [   24883,   26601] index = [     309594286,353819901] size =     44225615
	Batch   9 pq = [   26601,   28214] index = [     353819901,398029005] size =     44209104
	Batch  10 pq = [   28214,   29646] index = [     398029005,439457481] size =     41428476
  Task number: 40
  Buffer size: 11059200
  Buffer per thread: 2
  We computed 25001531 shell quartets total.
  Whereas there are 23829156 unique shell quartets.
     4.92 percent of shell quartets recomputed by reordering.

  ==> DiskJK: Disk-Based J/K Matrices <==

    J tasked:                  Yes
    K tasked:                  Yes
    wK tasked:                  No
    Memory [MiB]:              375
    Schwarz Cutoff:          1E-12

    OpenMP threads:              1

  Minimum eigenvalue in the overlap matrix is 2.3705290426E-04.
  Using Symmetric Orthogonalization.

  SCF Guess: Superposition of Atomic Densities via on-the-fly atomic UHF.

  ==> Iterations <==

                        Total Energy        Delta E     RMS |[F,P]|

   @RHF iter SAD:  -479.10185705023719   -4.79102e+02   0.00000e+00
   @RHF iter   1:  -479.48667513985794   -3.84818e-01   2.61948e-03 DIIS
   @RHF iter   2:  -479.72070647953024   -2.34031e-01   1.16225e-03 DIIS
   @RHF iter   3:  -479.76287882108556   -4.21723e-02   2.97577e-04 DIIS
   @RHF iter   4:  -479.76660631096570   -3.72749e-03   1.37108e-04 DIIS
   @RHF iter   5:  -479.76723032073824   -6.24010e-04   2.02921e-05 DIIS
   @RHF iter   6:  -479.76725965071347   -2.93300e-05   9.12315e-06 DIIS
   @RHF iter   7:  -479.76726549536284   -5.84465e-06   3.75446e-06 DIIS
   @RHF iter   8:  -479.76726714235269   -1.64699e-06   1.51521e-06 DIIS
   @RHF iter   9:  -479.76726747883509   -3.36482e-07   6.70490e-07 DIIS
   @RHF iter  10:  -479.76726754847823   -6.96431e-08   3.07808e-07 DIIS
   @RHF iter  11:  -479.76726756481003   -1.63318e-08   1.17309e-07 DIIS
   @RHF iter  12:  -479.76726756711008   -2.30006e-09   3.89825e-08 DIIS
   @RHF iter  13:  -479.76726756727925   -1.69166e-10   1.13072e-08 DIIS
   @RHF iter  14:  -479.76726756728198   -2.72848e-12   4.98430e-09 DIIS
   @RHF iter  15:  -479.76726756728596   -3.97904e-12   2.17942e-09 DIIS
   @RHF iter  16:  -479.76726756728402    1.93268e-12   9.40898e-10 DIIS
   @RHF iter  17:  -479.76726756728254    1.47793e-12   4.04474e-10 DIIS
   @RHF iter  18:  -479.76726756727732    5.22959e-12   1.56290e-10 DIIS
   @RHF iter  19:  -479.76726756728323   -5.91172e-12   5.46401e-11 DIIS
  Energy and wave function converged.

  ==> Post-Iterations <==

    Orbital Energies [Eh]
    ---------------------

    Doubly Occupied:

       1A    -15.600169     2A    -11.263807     3A    -11.262831
       4A    -11.233030     5A    -11.230334     6A    -11.229073
       7A    -11.225277     8A    -11.222852     9A    -11.222213
      10A    -11.217079    11A    -11.208356    12A    -11.204251
      13A     -1.298251    14A     -1.127194    15A     -1.074631
      16A     -1.015008    17A     -0.995813    18A     -0.989967
      19A     -0.931168    20A     -0.841015    21A     -0.826317
      22A     -0.803054    23A     -0.753446    24A     -0.720684
      25A     -0.664823    26A     -0.642284    27A     -0.603507
      28A     -0.596191    29A     -0.592015    30A     -0.589999
      31A     -0.586254    32A     -0.566754    33A     -0.552567
      34A     -0.539393    35A     -0.528896    36A     -0.496351
      37A     -0.494817    38A     -0.476273    39A     -0.475129
      40A     -0.468891    41A     -0.460064    42A     -0.371887
      43A     -0.295181    44A     -0.276670

    Virtual:

      45A      0.125256    46A      0.168435    47A      0.180114
      48A      0.182717    49A      0.201276    50A      0.205841
      51A      0.223245    52A      0.228546    53A      0.233964
      54A      0.253467    55A      0.257589    56A      0.267771
      57A      0.273761    58A      0.278997    59A      0.283109
      60A      0.294543    61A      0.332804    62A      0.345565
      63A      0.376096    64A      0.397249    65A      0.409126
      66A      0.418304    67A      0.423887    68A      0.441792
      69A      0.471300    70A      0.482733    71A      0.503587
      72A      0.510968    73A      0.590244    74A      0.597963
      75A      0.608243    76A      0.613814    77A      0.628487
      78A      0.638484    79A      0.639623    80A      0.662373
      81A      0.685643    82A      0.701630    83A      0.704713
      84A      0.718910    85A      0.727613    86A      0.730247
      87A      0.739737    88A      0.741569    89A      0.746024
      90A      0.761761    91A      0.772356    92A      0.775693
      93A      0.791320    94A      0.795240    95A      0.820991
      96A      0.847653    97A      0.866369    98A      0.867934
      99A      0.877016   100A      0.883214   101A      0.894813
     102A      0.897978   103A      0.909216   104A      0.909798
     105A      0.914362   106A      0.920333   107A      0.926128
     108A      0.928565   109A      0.955010   110A      0.957043
     111A      0.958707   112A      0.972509   113A      0.979721
     114A      0.999446   115A      1.019239   116A      1.040698
     117A      1.064315   118A      1.080936   119A      1.090278
     120A      1.119608   121A      1.129985   122A      1.140748
     123A      1.144969   124A      1.164239   125A      1.170950
     126A      1.178960   127A      1.209726   128A      1.229506
     129A      1.233891   130A      1.239742   131A      1.253019
     132A      1.271502   133A      1.287263   134A      1.299176
     135A      1.315017   136A      1.332026   137A      1.353037
     138A      1.362547   139A      1.379054   140A      1.404166
     141A      1.447425   142A      1.489583   143A      1.498759
     144A      1.523387   145A      1.561783   146A      1.579110
     147A      1.583920   148A      1.602504   149A      1.630453
     150A      1.645542   151A      1.656348   152A      1.680279
     153A      1.689555   154A      1.704063   155A      1.717176
     156A      1.745562   157A      1.763109   158A      1.779618
     159A      1.783344   160A      1.807038   161A      1.824851
     162A      1.826099   163A      1.869371   164A      1.878193
     165A      1.886877   166A      1.888695   167A      1.908078
     168A      1.918852   169A      1.924944   170A      1.929789
     171A      1.935545   172A      1.940639   173A      1.961441
     174A      1.964066   175A      1.969394   176A      1.977738
     177A      1.987159   178A      1.996479   179A      1.998155
     180A      2.001756   181A      2.016087   182A      2.030926
     183A      2.049427   184A      2.074101   185A      2.084250
     186A      2.092987   187A      2.100569   188A      2.110023
     189A      2.117082   190A      2.124668   191A      2.133101
     192A      2.139973   193A      2.151259   194A      2.170415
     195A      2.187628   196A      2.226122   197A      2.237753
     198A      2.299724   199A      2.302404   200A      2.315588
     201A      2.320019   202A      2.337844   203A      2.345023
     204A      2.350557   205A      2.393997   206A      2.432805
     207A      2.450904   208A      2.469992   209A      2.470442
     210A      2.497910   211A      2.532756   212A      2.577504
     213A      2.589577   214A      2.591365   215A      2.604640
     216A      2.651299   217A      2.658823   218A      2.677030
     219A      2.706887   220A      2.767850   221A      2.775271
     222A      2.782224   223A      2.791324   224A      2.793864
     225A      2.814369   226A      2.830167   227A      2.869079
     228A      2.872615   229A      2.875327   230A      2.897382
     231A      2.913649   232A      2.964649   233A      2.971687
     234A      3.013236   235A      3.037677   236A      3.061699
     237A      3.080272   238A      3.121845   239A      3.204613
     240A      3.300673   241A      3.388894   242A      3.747031
     243A      3.944006

    Final Occupation by Irrep:
              A
    DOCC [    44 ]

  @RHF Final Energy:  -479.76726756728323

   => Energetics <=

    Nuclear Repulsion Energy =            665.4603226107656155
    One-Electron Energy =               -1968.9076593410429723
    Two-Electron Energy =                 823.6800691629941866
    Total Energy =                       -479.7672675672831701

Computation Completed

Properties will be evaluated at   0.000000,   0.000000,   0.000000 [a0]

Properties computed using the SCF density matrix

  Nuclear Dipole Moment: [e a0]
     X:   -10.9727      Y:   -10.6778      Z:    -1.7327

  Electronic Dipole Moment: [e a0]
     X:    10.7746      Y:    11.4868      Z:     1.6567

  Dipole Moment: [e a0]
     X:    -0.1980      Y:     0.8090      Z:    -0.0760     Total:     0.8363

  Dipole Moment: [D]
     X:    -0.5034      Y:     2.0562      Z:    -0.1931     Total:     2.1257

*** tstop() called on ds3 at Mon Apr 27 16:21:37 2020
Module time:
	user time   =     211.95 seconds =       3.53 minutes
	system time =      87.54 seconds =       1.46 minutes
	total time  =        305 seconds =       5.08 minutes
Total time:
	user time   =     211.95 seconds =       3.53 minutes
	system time =      87.54 seconds =       1.46 minutes
	total time  =        305 seconds =       5.08 minutes
                                     G D M A

                                 by Anthony Stone

                           version 2.2.06, 22 June 2011

               Distributed Multipoles from Gaussian wavefunctions

Starting at 16:21:38 on 27 Apr 2020

Using SCF density matrix from file ./SSI/SSI-041LEU-170TRP-1-dimer.test.15547.fchk

                         Distributed Multipole Analysis

Standard DMA

Positions and radii in angstrom
Multipole moments in atomic units, ea_0^k for rank k

C          x = -2.427591  y = -2.458708  z = -0.209842 angstrom
           Maximum rank =  0   Radius =  0.650 angstrom
                   Q00  =  -0.239455

C          x = -2.742591  y = -2.348708  z =  1.259158 angstrom
           Maximum rank =  0   Radius =  0.650 angstrom
                   Q00  =  -0.223549

H          x = -1.406591  y = -2.134708  z = -0.392842 angstrom
           Maximum rank =  0   Radius =  0.325 angstrom
                   Q00  =   0.089804

H          x = -2.522591  y = -3.497708  z = -0.522842 angstrom
           Maximum rank =  0   Radius =  0.325 angstrom
                   Q00  =   0.068956

H          x = -3.102591  y = -1.863708  z = -0.815842 angstrom
           Maximum rank =  0   Radius =  0.325 angstrom
                   Q00  =   0.073417

H          x = -3.777591  y = -2.654708  z =  1.416158 angstrom
           Maximum rank =  0   Radius =  0.325 angstrom
                   Q00  =   0.069334

H          x = -2.621041  y = -1.309778  z =  1.599511 angstrom
           Maximum rank =  0   Radius =  0.325 angstrom
                   Q00  =   0.083921

H          x = -2.103541  y = -3.046508  z =  1.820122 angstrom
           Maximum rank =  0   Radius =  0.325 angstrom
                   Q00  =   0.077096

C          x = -0.664591  y = -0.023708  z = -2.767842 angstrom
           Maximum rank =  0   Radius =  0.650 angstrom
                   Q00  =  -0.206492

C          x =  0.522409  y =  0.202292  z = -0.422842 angstrom
           Maximum rank =  0   Radius =  0.650 angstrom
                   Q00  =  -0.058560

C          x = -0.238591  y =  0.710292  z = -1.539842 angstrom
           Maximum rank =  0   Radius =  0.650 angstrom
                   Q00  =  -0.114934

C          x =  0.704409  y =  1.276292  z =  0.485158 angstrom
           Maximum rank =  0   Radius =  0.650 angstrom
                   Q00  =   0.298227

C          x = -0.472591  y =  2.013292  z = -1.271842 angstrom
           Maximum rank =  0   Radius =  0.650 angstrom
                   Q00  =   0.073543

C          x =  1.081409  y = -1.043708  z = -0.088842 angstrom
           Maximum rank =  0   Radius =  0.650 angstrom
                   Q00  =  -0.108039

C          x =  1.788409  y = -1.175708  z =  1.119158 angstrom
           Maximum rank =  0   Radius =  0.650 angstrom
                   Q00  =  -0.092752

C          x =  1.948409  y = -0.088708  z =  1.987158 angstrom
           Maximum rank =  0   Radius =  0.650 angstrom
                   Q00  =  -0.063950

C          x =  1.399409  y =  1.142292  z =  1.680158 angstrom
           Maximum rank =  0   Radius =  0.650 angstrom
                   Q00  =  -0.121494

N          x =  0.072409  y =  2.357292  z = -0.063842 angstrom
           Maximum rank =  0   Radius =  0.650 angstrom
                   Q00  =  -0.496523

H          x =  0.958409  y = -1.895708  z = -0.735842 angstrom
           Maximum rank =  0   Radius =  0.325 angstrom
                   Q00  =   0.073760

H          x =  2.220409  y = -2.133708  z =  1.379158 angstrom
           Maximum rank =  0   Radius =  0.325 angstrom
                   Q00  =   0.061414

H          x =  2.510409  y = -0.213708  z =  2.903158 angstrom
           Maximum rank =  0   Radius =  0.325 angstrom
                   Q00  =   0.065657

H          x = -1.099591  y =  0.696292  z = -3.462842 angstrom
           Maximum rank =  0   Radius =  0.325 angstrom
                   Q00  =   0.100871

H          x = -1.448591  y = -0.729708  z = -2.490842 angstrom
           Maximum rank =  0   Radius =  0.325 angstrom
                   Q00  =   0.102732

H          x = -1.016591  y =  2.690292  z = -1.923842 angstrom
           Maximum rank =  0   Radius =  0.325 angstrom
                   Q00  =   0.100409

H          x =  0.044409  y =  3.290292  z =  0.329158 angstrom
           Maximum rank =  0   Radius =  0.325 angstrom
                   Q00  =   0.214464

H          x =  1.523409  y =  1.991292  z =  2.334158 angstrom
           Maximum rank =  0   Radius =  0.325 angstrom
                   Q00  =   0.072690

H          x =  0.137309  y = -0.570978  z = -3.284991 angstrom
           Maximum rank =  0   Radius =  0.325 angstrom
                   Q00  =   0.099453

Total multipoles referred to origin at
           x =   0.000000,  y =    0.000000,  z =    0.000000 angstrom
                   Q00  =  -0.000000

Finished at 16:21:38 on 27 Apr 2020

  DMA results are available in the Python driver through the
	  variable('DMA DISTRIBUTED MULTIPOLES')
  and
	  variable('DMA TOTAL MULTIPOLES')
  commands.

    Psi4 stopped on: Monday, 27 April 2020 04:21PM
    Psi4 wall time for execution: 0:05:05.61

*** Psi4 exiting successfully. Buy a developer a beer!
