                               Psi4 1.3.2 release

  ==> Input File <==

--------------------------------------------------------------------------
import numpy as np
set {scf_type pk
basis cc-pvdz
d_convergence 10
gdma_switch   0
gdma_limit    0
gdma_origin   [ 0.0,  0.0,  0.0 ]
}
molecule test {
    units Angstrom
    1 1
    --
    1 1
    C                1.884334240686460     0.065038264464869     2.047863492579089
    C                0.837334240686460    -0.472961735535131     1.085863492579089
    O                0.670334240686460     0.006038264464869    -0.040136507420911
    N                0.229334240686460    -1.573961735535131     1.452863492579089
    H                2.653334240686461    -0.703961735535131     2.153863492579089
    H                1.426334240686460     0.210038264464869     3.028863492579089
    H               -0.417665759313540    -2.013961735535132     0.815863492579089
    H                0.415334240686460    -1.985961735535131     2.356863492579089
    H                2.360324240686460     0.992937264464869     1.697953492579089
    C               -1.645665759313540     1.640038264464869    -2.514136507420911
    N               -1.666665759313540     0.336038264464869    -1.742136507420911
    H               -2.570665759313540     0.170038264464869    -1.310136507420911
    H               -1.483665759313539    -0.447961735535131    -2.360136507420911
    H               -0.940665759313540     0.322038264464869    -1.024136507420911
    H               -2.305665759313539     1.597038264464869    -3.388136507420911
    H               -0.626665759313540     1.858038264464869    -2.855136507420911
    H               -1.990015759313539     2.435449264464868    -1.836826507420911

}
e, wfn = energy('scf', return_wfn=True)
gdma(wfn)
dmavals = variable('DMA DISTRIBUTED MULTIPOLES')
charges = np.array(dmavals)
print(charges)
np.save('SSI-174ASN-178LYS-1-dimer.npy', np.array(charges))--------------------------------------------------------------------------

*** tstart() called on ds3
*** at Tue Apr 28 04:00:20 2020

   => Loading Basis Set <=

    Name: CC-PVDZ
    Role: ORBITAL
    Keyword: BASIS
    atoms 1-2, 10    entry C          line   138 file /theoryfs2/ds/metcalf/miniconda2/envs/tf2gpu/share/psi4/basis/cc-pvdz.gbs
    atoms 3          entry O          line   198 file /theoryfs2/ds/metcalf/miniconda2/envs/tf2gpu/share/psi4/basis/cc-pvdz.gbs
    atoms 4, 11      entry N          line   168 file /theoryfs2/ds/metcalf/miniconda2/envs/tf2gpu/share/psi4/basis/cc-pvdz.gbs
    atoms 5-9, 12-17 entry H          line    22 file /theoryfs2/ds/metcalf/miniconda2/envs/tf2gpu/share/psi4/basis/cc-pvdz.gbs

         ---------------------------------------------------------
                                   SCF
               by Justin Turney, Rob Parrish, Andy Simmonett
                          and Daniel G. A. Smith
                              RHF Reference
                        1 Threads,    500 MiB Core
         ---------------------------------------------------------

  ==> Geometry <==

    Molecular point group: c1
    Full point group: C1

    Geometry (in Angstrom), charge = 1, multiplicity = 1:

       Center              X                  Y                   Z               Mass
    ------------   -----------------  -----------------  -----------------  -----------------
         C            1.884334240686     0.065038264465     2.047863492579    12.000000000000
         C            0.837334240686    -0.472961735535     1.085863492579    12.000000000000
         O            0.670334240686     0.006038264465    -0.040136507421    15.994914619570
         N            0.229334240686    -1.573961735535     1.452863492579    14.003074004430
         H            2.653334240686    -0.703961735535     2.153863492579     1.007825032230
         H            1.426334240686     0.210038264465     3.028863492579     1.007825032230
         H           -0.417665759314    -2.013961735535     0.815863492579     1.007825032230
         H            0.415334240686    -1.985961735535     2.356863492579     1.007825032230
         H            2.360324240686     0.992937264465     1.697953492579     1.007825032230
         C           -1.645665759314     1.640038264465    -2.514136507421    12.000000000000
         N           -1.666665759314     0.336038264465    -1.742136507421    14.003074004430
         H           -2.570665759314     0.170038264465    -1.310136507421     1.007825032230
         H           -1.483665759314    -0.447961735535    -2.360136507421     1.007825032230
         H           -0.940665759314     0.322038264465    -1.024136507421     1.007825032230
         H           -2.305665759314     1.597038264465    -3.388136507421     1.007825032230
         H           -0.626665759314     1.858038264465    -2.855136507421     1.007825032230
         H           -1.990015759314     2.435449264465    -1.836826507421     1.007825032230

  Running in c1 symmetry.

  Rotational constants: A =      0.23892  B =      0.03637  C =      0.03263 [cm^-1]
  Rotational constants: A =   7162.59294  B =   1090.43452  C =    978.30547 [MHz]
  Nuclear repulsion =  244.182917499690376

  Charge       = 1
  Multiplicity = 1
  Electrons    = 50
  Nalpha       = 25
  Nbeta        = 25

  ==> Algorithm <==

  SCF Algorithm Type is PK.
  DIIS enabled.
  MOM disabled.
  Fractional occupation disabled.
  Guess Type is SAD.
  Energy threshold   = 1.00e-06
  Density threshold  = 1.00e-10
  Integral threshold = 0.00e+00

  ==> Primary Basis <==

  Basis Set: CC-PVDZ
    Blend: CC-PVDZ
    Number of shells: 69
    Number of basis function: 139
    Number of Cartesian functions: 145
    Spherical Harmonics?: true
    Max angular momentum: 2

  ==> Pre-Iterations <==

   -------------------------------------------------------
    Irrep   Nso     Nmo     Nalpha   Nbeta   Ndocc  Nsocc
   -------------------------------------------------------
     A        139     139       0       0       0       0
   -------------------------------------------------------
    Total     139     139      25      25      25       0
   -------------------------------------------------------

  ==> Integral Setup <==

  Using integral reordering PK algorithm.
  Sizing the integral batches needed.
  Building batch lookup table.
   Calculation information:
      Number of atoms:                  17
      Number of AO shells:              69
      Number of primitives:            187
      Number of atomic orbitals:       145
      Number of basis functions:       139

      Integral cutoff                 1.00e-12
      Number of threads:                 1

	Batch   1 pq = [       0,    9730] index = [             0,47341315] size =     47341315
  Task number: 5
  Buffer size: 11059200
  Buffer per thread: 2
  We computed 2274873 shell quartets total.
  Whereas there are 2917320 unique shell quartets.

  ==> DiskJK: Disk-Based J/K Matrices <==

    J tasked:                  Yes
    K tasked:                  Yes
    wK tasked:                  No
    Memory [MiB]:              375
    Schwarz Cutoff:          1E-12

    OpenMP threads:              1

  Minimum eigenvalue in the overlap matrix is 4.6748382410E-03.
  Using Symmetric Orthogonalization.

  SCF Guess: Superposition of Atomic Densities via on-the-fly atomic UHF.

  ==> Iterations <==

                        Total Energy        Delta E     RMS |[F,P]|

   @RHF iter SAD:  -302.74553471353443   -3.02746e+02   0.00000e+00
   @RHF iter   1:  -303.43156687850671   -6.86032e-01   4.17672e-03 DIIS
   @RHF iter   2:  -303.58063570844058   -1.49069e-01   2.13117e-03 DIIS
   @RHF iter   3:  -303.61367892403069   -3.30432e-02   5.41780e-04 DIIS
   @RHF iter   4:  -303.61686587946679   -3.18696e-03   1.78567e-04 DIIS
   @RHF iter   5:  -303.61724363217127   -3.77753e-04   3.25033e-05 DIIS
   @RHF iter   6:  -303.61726573338518   -2.21012e-05   1.24489e-05 DIIS
   @RHF iter   7:  -303.61726816293941   -2.42955e-06   3.94442e-06 DIIS
   @RHF iter   8:  -303.61726861696485   -4.54025e-07   1.30609e-06 DIIS
   @RHF iter   9:  -303.61726867105256   -5.40877e-08   3.55580e-07 DIIS
   @RHF iter  10:  -303.61726867513664   -4.08409e-09   9.03976e-08 DIIS
   @RHF iter  11:  -303.61726867533622   -1.99577e-10   2.65410e-08 DIIS
   @RHF iter  12:  -303.61726867535015   -1.39266e-11   6.93998e-09 DIIS
   @RHF iter  13:  -303.61726867535265   -2.50111e-12   1.78382e-09 DIIS
   @RHF iter  14:  -303.61726867535072    1.93268e-12   7.07587e-10 DIIS
   @RHF iter  15:  -303.61726867535054    1.70530e-13   2.25372e-10 DIIS
   @RHF iter  16:  -303.61726867535140   -8.52651e-13   7.75193e-11 DIIS
  Energy and wave function converged.

  ==> Post-Iterations <==

    Orbital Energies [Eh]
    ---------------------

    Doubly Occupied:

       1A    -20.655223     2A    -15.869040     3A    -15.724811
       4A    -11.490571     5A    -11.467960     6A    -11.357791
       7A     -1.518150     8A     -1.482720     9A     -1.359081
      10A     -1.136873    11A     -1.119920    12A     -0.949102
      13A     -0.942389    14A     -0.932096    15A     -0.862645
      16A     -0.828063    17A     -0.795448    18A     -0.743605
      19A     -0.742637    20A     -0.738231    21A     -0.707991
      22A     -0.675666    23A     -0.650036    24A     -0.559882
      25A     -0.551752

    Virtual:

      26A     -0.024796    27A      0.038861    28A      0.043119
      29A      0.056558    30A      0.064354    31A      0.093766
      32A      0.098222    33A      0.106175    34A      0.125742
      35A      0.141730    36A      0.155569    37A      0.167791
      38A      0.187942    39A      0.264630    40A      0.361014
      41A      0.394059    42A      0.395866    43A      0.416126
      44A      0.453180    45A      0.506905    46A      0.518496
      47A      0.531816    48A      0.568948    49A      0.574089
      50A      0.614629    51A      0.616737    52A      0.620564
      53A      0.674927    54A      0.678572    55A      0.686695
      56A      0.711086    57A      0.718029    58A      0.743514
      59A      0.764811    60A      0.773861    61A      0.792545
      62A      0.809503    63A      0.831612    64A      0.873163
      65A      0.881462    66A      0.885596    67A      0.936027
      68A      0.940264    69A      0.952390    70A      1.012168
      71A      1.043482    72A      1.147334    73A      1.193445
      74A      1.208075    75A      1.228803    76A      1.277336
      77A      1.286413    78A      1.300504    79A      1.328295
      80A      1.356232    81A      1.372356    82A      1.480835
      83A      1.523683    84A      1.536554    85A      1.551571
      86A      1.584838    87A      1.642629    88A      1.670343
      89A      1.697200    90A      1.699494    91A      1.715047
      92A      1.727898    93A      1.742955    94A      1.754693
      95A      1.758432    96A      1.784108    97A      1.805043
      98A      1.823393    99A      1.864726   100A      1.905330
     101A      1.933102   102A      1.951178   103A      1.966567
     104A      1.977276   105A      1.983238   106A      1.999853
     107A      2.060351   108A      2.115984   109A      2.145766
     110A      2.159931   111A      2.255001   112A      2.272489
     113A      2.293513   114A      2.327434   115A      2.374127
     116A      2.401851   117A      2.446412   118A      2.450781
     119A      2.478048   120A      2.501274   121A      2.517816
     122A      2.551196   123A      2.576042   124A      2.625339
     125A      2.676868   126A      2.729006   127A      2.739362
     128A      2.756190   129A      2.788418   130A      2.871948
     131A      2.939181   132A      2.993692   133A      3.107525
     134A      3.135403   135A      3.156676   136A      3.338260
     137A      3.407323   138A      3.716778   139A      3.798462

    Final Occupation by Irrep:
              A
    DOCC [    25 ]

  @RHF Final Energy:  -303.61726867535140

   => Energetics <=

    Nuclear Repulsion Energy =            244.1829174996903760
    One-Electron Energy =                -887.8770100359615753
    Two-Electron Energy =                 340.0768238609198306
    Total Energy =                       -303.6172686753513972

Computation Completed

Properties will be evaluated at   0.000000,   0.000000,   0.000000 [a0]

Properties computed using the SCF density matrix

  Nuclear Dipole Moment: [e a0]
     X:    -3.2547      Y:     2.2852      Z:    -2.5503

  Electronic Dipole Moment: [e a0]
     X:     0.7127      Y:    -2.4395      Z:     1.1601

  Dipole Moment: [e a0]
     X:    -2.5420      Y:    -0.1543      Z:    -1.3902     Total:     2.9015

  Dipole Moment: [D]
     X:    -6.4612      Y:    -0.3923      Z:    -3.5335     Total:     7.3748

*** tstop() called on ds3 at Tue Apr 28 04:01:03 2020
Module time:
	user time   =      14.97 seconds =       0.25 minutes
	system time =       6.29 seconds =       0.10 minutes
	total time  =         43 seconds =       0.72 minutes
Total time:
	user time   =      14.97 seconds =       0.25 minutes
	system time =       6.29 seconds =       0.10 minutes
	total time  =         43 seconds =       0.72 minutes
                                     G D M A

                                 by Anthony Stone

                           version 2.2.06, 22 June 2011

               Distributed Multipoles from Gaussian wavefunctions

Starting at 4:1:3 on 28 Apr 2020

Using SCF density matrix from file ./SSI/SSI-174ASN-178LYS-1-dimer.test.27138.fchk

                         Distributed Multipole Analysis

Standard DMA

Positions and radii in angstrom
Multipole moments in atomic units, ea_0^k for rank k

C          x =  1.884334  y =  0.065038  z =  2.047863 angstrom
           Maximum rank =  0   Radius =  0.650 angstrom
                   Q00  =  -0.255345

C          x =  0.837334  y = -0.472962  z =  1.085863 angstrom
           Maximum rank =  0   Radius =  0.650 angstrom
                   Q00  =   0.818074

O          x =  0.670334  y =  0.006038  z = -0.040137 angstrom
           Maximum rank =  0   Radius =  0.650 angstrom
                   Q00  =  -0.866139

N          x =  0.229334  y = -1.573962  z =  1.452863 angstrom
           Maximum rank =  0   Radius =  0.650 angstrom
                   Q00  =  -0.520800

H          x =  2.653334  y = -0.703962  z =  2.153863 angstrom
           Maximum rank =  0   Radius =  0.325 angstrom
                   Q00  =   0.134570

H          x =  1.426334  y =  0.210038  z =  3.028863 angstrom
           Maximum rank =  0   Radius =  0.325 angstrom
                   Q00  =   0.117289

H          x = -0.417666  y = -2.013962  z =  0.815863 angstrom
           Maximum rank =  0   Radius =  0.325 angstrom
                   Q00  =   0.215462

H          x =  0.415334  y = -1.985962  z =  2.356863 angstrom
           Maximum rank =  0   Radius =  0.325 angstrom
                   Q00  =   0.238351

H          x =  2.360324  y =  0.992937  z =  1.697953 angstrom
           Maximum rank =  0   Radius =  0.325 angstrom
                   Q00  =   0.145312

C          x = -1.645666  y =  1.640038  z = -2.514137 angstrom
           Maximum rank =  0   Radius =  0.650 angstrom
                   Q00  =  -0.141105

N          x = -1.666666  y =  0.336038  z = -1.742137 angstrom
           Maximum rank =  0   Radius =  0.650 angstrom
                   Q00  =  -0.160304

H          x = -2.570666  y =  0.170038  z = -1.310137 angstrom
           Maximum rank =  0   Radius =  0.325 angstrom
                   Q00  =   0.242636

H          x = -1.483666  y = -0.447962  z = -2.360137 angstrom
           Maximum rank =  0   Radius =  0.325 angstrom
                   Q00  =   0.246451

H          x = -0.940666  y =  0.322038  z = -1.024137 angstrom
           Maximum rank =  0   Radius =  0.325 angstrom
                   Q00  =   0.304913

H          x = -2.305666  y =  1.597038  z = -3.388137 angstrom
           Maximum rank =  0   Radius =  0.325 angstrom
                   Q00  =   0.155628

H          x = -0.626666  y =  1.858038  z = -2.855137 angstrom
           Maximum rank =  0   Radius =  0.325 angstrom
                   Q00  =   0.168502

H          x = -1.990016  y =  2.435449  z = -1.836827 angstrom
           Maximum rank =  0   Radius =  0.325 angstrom
                   Q00  =   0.156504

Total multipoles referred to origin at
           x =   0.000000,  y =    0.000000,  z =    0.000000 angstrom
                   Q00  =   1.000000

Finished at 4:1:3 on 28 Apr 2020

  DMA results are available in the Python driver through the
	  variable('DMA DISTRIBUTED MULTIPOLES')
  and
	  variable('DMA TOTAL MULTIPOLES')
  commands.

    Psi4 stopped on: Tuesday, 28 April 2020 04:01AM
    Psi4 wall time for execution: 0:00:43.50

*** Psi4 exiting successfully. Buy a developer a beer!
