                               Psi4 1.3.2 release

  ==> Input File <==

--------------------------------------------------------------------------
import numpy as np
set {scf_type pk
basis cc-pvdz
d_convergence 10
gdma_switch   0
gdma_limit    0
gdma_origin   [ 0.0,  0.0,  0.0 ]
}
molecule test {
    units Angstrom
    0 1
    --
    0 1
    C                3.871175103771143     0.409205282713995    -1.265455388396760
    C                0.346175103771143     0.572205282713995     0.210544611603240
    C                1.403175103771143     0.513205282713995    -0.706455388396760
    C                0.609175103771143     0.630205282713995     1.595544611603240
    C                2.731175103771143     0.502205282713995    -0.258455388396760
    C                1.933175103771144     0.633205282713995     2.063544611603240
    C                2.989175103771143     0.561205282713995     1.127544611603240
    H               -0.674824896228857     0.575205282713995    -0.149455388396760
    H                1.195175103771143     0.477205282713995    -1.768455388396760
    H               -0.213824896228857     0.673205282713995     2.298544611603239
    H                2.146175103771143     0.689205282713995     3.126544611603239
    H                3.598175103771143    -0.351794717286005    -1.994455388396760
    H                4.751175103771143     0.072205282713995    -0.722455388396760
    H                4.016175103771143     0.552205282713995     1.471544611603240
    H                4.115829103771143     1.347165282713995    -1.785435388396760
    C               -2.660824896228857    -1.296794717286005    -1.141455388396760
    C               -2.944824896228857    -0.286794717286005    -2.262455388396760
    S               -3.180824896228857    -0.783794717286005     0.504544611603240
    H               -3.181824896228857    -2.228794717286005    -1.359455388396760
    H               -1.587824896228857    -1.488794717286005    -1.084455388396760
    H               -2.547824896228857     0.687205282713995    -1.960455388396760
    H               -2.772824896228857    -1.894794717286005     1.126544611603240
    H               -4.028518896228857    -0.224894717286005    -2.440705388396761
    H               -2.466962896228857    -0.665224717286005    -3.178115388396760

}
e, wfn = energy('scf', return_wfn=True)
gdma(wfn)
dmavals = variable('DMA DISTRIBUTED MULTIPOLES')
charges = np.array(dmavals)
print(charges)
np.save('SSI-034PHE-058CYS-1-dimer.npy', np.array(charges))--------------------------------------------------------------------------

*** tstart() called on ds3
*** at Mon Apr 27 23:40:59 2020

   => Loading Basis Set <=

    Name: CC-PVDZ
    Role: ORBITAL
    Keyword: BASIS
    atoms 1-7, 16-17  entry C          line   138 file /theoryfs2/ds/metcalf/miniconda2/envs/tf2gpu/share/psi4/basis/cc-pvdz.gbs
    atoms 8-15, 19-24 entry H          line    22 file /theoryfs2/ds/metcalf/miniconda2/envs/tf2gpu/share/psi4/basis/cc-pvdz.gbs
    atoms 18          entry S          line   598 file /theoryfs2/ds/metcalf/miniconda2/envs/tf2gpu/share/psi4/basis/cc-pvdz.gbs

         ---------------------------------------------------------
                                   SCF
               by Justin Turney, Rob Parrish, Andy Simmonett
                          and Daniel G. A. Smith
                              RHF Reference
                        1 Threads,    500 MiB Core
         ---------------------------------------------------------

  ==> Geometry <==

    Molecular point group: c1
    Full point group: C1

    Geometry (in Angstrom), charge = 0, multiplicity = 1:

       Center              X                  Y                   Z               Mass
    ------------   -----------------  -----------------  -----------------  -----------------
         C            3.871175103771     0.409205282714    -1.265455388397    12.000000000000
         C            0.346175103771     0.572205282714     0.210544611603    12.000000000000
         C            1.403175103771     0.513205282714    -0.706455388397    12.000000000000
         C            0.609175103771     0.630205282714     1.595544611603    12.000000000000
         C            2.731175103771     0.502205282714    -0.258455388397    12.000000000000
         C            1.933175103771     0.633205282714     2.063544611603    12.000000000000
         C            2.989175103771     0.561205282714     1.127544611603    12.000000000000
         H           -0.674824896229     0.575205282714    -0.149455388397     1.007825032230
         H            1.195175103771     0.477205282714    -1.768455388397     1.007825032230
         H           -0.213824896229     0.673205282714     2.298544611603     1.007825032230
         H            2.146175103771     0.689205282714     3.126544611603     1.007825032230
         H            3.598175103771    -0.351794717286    -1.994455388397     1.007825032230
         H            4.751175103771     0.072205282714    -0.722455388397     1.007825032230
         H            4.016175103771     0.552205282714     1.471544611603     1.007825032230
         H            4.115829103771     1.347165282714    -1.785435388397     1.007825032230
         C           -2.660824896229    -1.296794717286    -1.141455388397    12.000000000000
         C           -2.944824896229    -0.286794717286    -2.262455388397    12.000000000000
         S           -3.180824896229    -0.783794717286     0.504544611603    31.972071174400
         H           -3.181824896229    -2.228794717286    -1.359455388397     1.007825032230
         H           -1.587824896229    -1.488794717286    -1.084455388397     1.007825032230
         H           -2.547824896229     0.687205282714    -1.960455388397     1.007825032230
         H           -2.772824896229    -1.894794717286     1.126544611603     1.007825032230
         H           -4.028518896229    -0.224894717286    -2.440705388397     1.007825032230
         H           -2.466962896229    -0.665224717286    -3.178115388397     1.007825032230

  Running in c1 symmetry.

  Rotational constants: A =      0.06142  B =      0.01425  C =      0.01199 [cm^-1]
  Rotational constants: A =   1841.31989  B =    427.24682  C =    359.34363 [MHz]
  Nuclear repulsion =  543.254438485759351

  Charge       = 0
  Multiplicity = 1
  Electrons    = 84
  Nalpha       = 42
  Nbeta        = 42

  ==> Algorithm <==

  SCF Algorithm Type is PK.
  DIIS enabled.
  MOM disabled.
  Fractional occupation disabled.
  Guess Type is SAD.
  Energy threshold   = 1.00e-06
  Density threshold  = 1.00e-10
  Integral threshold = 0.00e+00

  ==> Primary Basis <==

  Basis Set: CC-PVDZ
    Blend: CC-PVDZ
    Number of shells: 104
    Number of basis function: 214
    Number of Cartesian functions: 224
    Spherical Harmonics?: true
    Max angular momentum: 2

  ==> Pre-Iterations <==

   -------------------------------------------------------
    Irrep   Nso     Nmo     Nalpha   Nbeta   Ndocc  Nsocc
   -------------------------------------------------------
     A        214     214       0       0       0       0
   -------------------------------------------------------
    Total     214     214      42      42      42       0
   -------------------------------------------------------

  ==> Integral Setup <==

  Using integral reordering PK algorithm.
  Sizing the integral batches needed.
  Building batch lookup table.
   Calculation information:
      Number of atoms:                  24
      Number of AO shells:             104
      Number of primitives:            318
      Number of atomic orbitals:       224
      Number of basis functions:       214

      Integral cutoff                 1.00e-12
      Number of threads:                 1

	Batch   1 pq = [       0,    9405] index = [             0,44231715] size =     44231715
	Batch   2 pq = [    9405,   13301] index = [      44231715,88464951] size =     44233236
	Batch   3 pq = [   13301,   16290] index = [      88464951,132690195] size =     44225244
	Batch   4 pq = [   16290,   18810] index = [     132690195,176917455] size =     44227260
	Batch   5 pq = [   18810,   21030] index = [     176917455,221140965] size =     44223510
	Batch   6 pq = [   21030,   23005] index = [     221140965,264626515] size =     43485550
  Task number: 24
  Buffer size: 11059200
  Buffer per thread: 2
  We computed 12470270 shell quartets total.
  Whereas there are 14908530 unique shell quartets.

  ==> DiskJK: Disk-Based J/K Matrices <==

    J tasked:                  Yes
    K tasked:                  Yes
    wK tasked:                  No
    Memory [MiB]:              375
    Schwarz Cutoff:          1E-12

    OpenMP threads:              1

  Minimum eigenvalue in the overlap matrix is 3.3055273096E-04.
  Using Symmetric Orthogonalization.

  SCF Guess: Superposition of Atomic Densities via on-the-fly atomic UHF.

  ==> Iterations <==

                        Total Energy        Delta E     RMS |[F,P]|

   @RHF iter SAD:  -745.33131355621924   -7.45331e+02   0.00000e+00
   @RHF iter   1:  -746.29932301325903   -9.68009e-01   2.54010e-03 DIIS
   @RHF iter   2:  -746.48833162866276   -1.89009e-01   1.01449e-03 DIIS
   @RHF iter   3:  -746.51487966877744   -2.65480e-02   2.47231e-04 DIIS
   @RHF iter   4:  -746.51750988934589   -2.63022e-03   5.62414e-05 DIIS
   @RHF iter   5:  -746.51761182026269   -1.01931e-04   1.72218e-05 DIIS
   @RHF iter   6:  -746.51762142422297   -9.60396e-06   5.00640e-06 DIIS
   @RHF iter   7:  -746.51762236076684   -9.36544e-07   1.55085e-06 DIIS
   @RHF iter   8:  -746.51762247507543   -1.14309e-07   4.46598e-07 DIIS
   @RHF iter   9:  -746.51762249381329   -1.87379e-08   1.88594e-07 DIIS
   @RHF iter  10:  -746.51762249781063   -3.99734e-09   8.87329e-08 DIIS
   @RHF iter  11:  -746.51762249907233   -1.26170e-09   3.87149e-08 DIIS
   @RHF iter  12:  -746.51762249929629   -2.23963e-10   1.67422e-08 DIIS
   @RHF iter  13:  -746.51762249932085   -2.45564e-11   4.94107e-09 DIIS
   @RHF iter  14:  -746.51762249932517   -4.32010e-12   1.36353e-09 DIIS
   @RHF iter  15:  -746.51762249932369    1.47793e-12   5.34500e-10 DIIS
   @RHF iter  16:  -746.51762249932563   -1.93268e-12   2.24138e-10 DIIS
   @RHF iter  17:  -746.51762249932517    4.54747e-13   1.04091e-10 DIIS
   @RHF iter  18:  -746.51762249932540   -2.27374e-13   4.13442e-11 DIIS
  Energy and wave function converged.

  ==> Post-Iterations <==

    Orbital Energies [Eh]
    ---------------------

    Doubly Occupied:

       1A    -91.944235     2A    -11.263301     3A    -11.242782
       4A    -11.241031     5A    -11.238516     6A    -11.234680
       7A    -11.233717     8A    -11.232198     9A    -11.230946
      10A    -11.230073    11A     -8.948036    12A     -6.630140
      13A     -6.628788    14A     -6.626360    15A     -1.140966
      16A     -1.073566    17A     -1.035774    18A     -1.004128
      19A     -0.949310    20A     -0.926531    21A     -0.819442
      22A     -0.811438    23A     -0.790272    24A     -0.683861
      25A     -0.638705    26A     -0.624869    27A     -0.623369
      28A     -0.615015    29A     -0.577921    30A     -0.574400
      31A     -0.554716    32A     -0.540898    33A     -0.535173
      34A     -0.518757    35A     -0.503303    36A     -0.482171
      37A     -0.479336    38A     -0.476302    39A     -0.443656
      40A     -0.351255    41A     -0.327311    42A     -0.316504

    Virtual:

      43A      0.135024    44A      0.138578    45A      0.150540
      46A      0.185709    47A      0.197962    48A      0.207928
      49A      0.219620    50A      0.230988    51A      0.236260
      52A      0.239408    53A      0.253315    54A      0.261740
      55A      0.265808    56A      0.271003    57A      0.288731
      58A      0.294675    59A      0.344370    60A      0.363257
      61A      0.364366    62A      0.375180    63A      0.450401
      64A      0.457298    65A      0.473287    66A      0.491797
      67A      0.516969    68A      0.559761    69A      0.582684
      70A      0.593856    71A      0.610731    72A      0.635468
      73A      0.642301    74A      0.651739    75A      0.656246
      76A      0.676988    77A      0.682494    78A      0.700955
      79A      0.701106    80A      0.716389    81A      0.734492
      82A      0.738869    83A      0.743593    84A      0.754210
      85A      0.765122    86A      0.767300    87A      0.781527
      88A      0.793264    89A      0.794490    90A      0.809465
      91A      0.830764    92A      0.850915    93A      0.855913
      94A      0.863218    95A      0.869319    96A      0.872258
      97A      0.881943    98A      0.885353    99A      0.894217
     100A      0.902436   101A      0.905583   102A      0.919623
     103A      0.924001   104A      0.929399   105A      0.944065
     106A      0.947940   107A      0.952698   108A      0.964418
     109A      0.987610   110A      0.993625   111A      1.059236
     112A      1.085693   113A      1.128909   114A      1.149344
     115A      1.154445   116A      1.175170   117A      1.181306
     118A      1.195288   119A      1.213863   120A      1.235390
     121A      1.242068   122A      1.250146   123A      1.266871
     124A      1.292367   125A      1.300499   126A      1.305264
     127A      1.310070   128A      1.322723   129A      1.343501
     130A      1.399629   131A      1.415427   132A      1.471968
     133A      1.510951   134A      1.521352   135A      1.546996
     136A      1.608083   137A      1.615333   138A      1.624475
     139A      1.661143   140A      1.684264   141A      1.692888
     142A      1.722052   143A      1.726274   144A      1.733048
     145A      1.744997   146A      1.752582   147A      1.785537
     148A      1.801308   149A      1.843874   150A      1.850056
     151A      1.856996   152A      1.868370   153A      1.880944
     154A      1.889005   155A      1.899596   156A      1.902784
     157A      1.910830   158A      1.929512   159A      1.942280
     160A      1.944143   161A      1.961598   162A      1.966212
     163A      1.972933   164A      1.985700   165A      2.001140
     166A      2.014275   167A      2.031493   168A      2.037397
     169A      2.045800   170A      2.071748   171A      2.099206
     172A      2.126443   173A      2.132525   174A      2.140858
     175A      2.156453   176A      2.173741   177A      2.194053
     178A      2.210533   179A      2.244561   180A      2.259235
     181A      2.274595   182A      2.286762   183A      2.292252
     184A      2.310083   185A      2.318195   186A      2.334126
     187A      2.402403   188A      2.436824   189A      2.453022
     190A      2.462576   191A      2.500365   192A      2.522940
     193A      2.531412   194A      2.563770   195A      2.610263
     196A      2.727106   197A      2.747946   198A      2.759589
     199A      2.768374   200A      2.774493   201A      2.792285
     202A      2.797833   203A      2.825860   204A      2.846916
     205A      2.862072   206A      2.889526   207A      2.936033
     208A      2.952785   209A      2.980822   210A      3.013722
     211A      3.126981   212A      3.169375   213A      3.270960
     214A      3.914425

    Final Occupation by Irrep:
              A
    DOCC [    42 ]

  @RHF Final Energy:  -746.51762249932540

   => Energetics <=

    Nuclear Repulsion Energy =            543.2544384857593514
    One-Electron Energy =               -2098.8566144387013992
    Two-Electron Energy =                 809.0845534536167634
    Total Energy =                       -746.5176224993253982

Computation Completed

Properties will be evaluated at   0.000000,   0.000000,   0.000000 [a0]

Properties computed using the SCF density matrix

  Nuclear Dipole Moment: [e a0]
     X:     2.1175      Y:    -1.6900      Z:    -7.8804

  Electronic Dipole Moment: [e a0]
     X:    -1.8448      Y:     1.2124      Z:     7.3800

  Dipole Moment: [e a0]
     X:     0.2727      Y:    -0.4776      Z:    -0.5004     Total:     0.7436

  Dipole Moment: [D]
     X:     0.6932      Y:    -1.2140      Z:    -1.2720     Total:     1.8901

*** tstop() called on ds3 at Mon Apr 27 23:43:42 2020
Module time:
	user time   =     121.41 seconds =       2.02 minutes
	system time =      48.98 seconds =       0.82 minutes
	total time  =        163 seconds =       2.72 minutes
Total time:
	user time   =     121.41 seconds =       2.02 minutes
	system time =      48.98 seconds =       0.82 minutes
	total time  =        163 seconds =       2.72 minutes
                                     G D M A

                                 by Anthony Stone

                           version 2.2.06, 22 June 2011

               Distributed Multipoles from Gaussian wavefunctions

Starting at 23:43:43 on 27 Apr 2020

Using SCF density matrix from file ./SSI/SSI-034PHE-058CYS-1-dimer.test.3683.fchk

                         Distributed Multipole Analysis

Standard DMA

Positions and radii in angstrom
Multipole moments in atomic units, ea_0^k for rank k

C          x =  3.871175  y =  0.409205  z = -1.265455 angstrom
           Maximum rank =  0   Radius =  0.650 angstrom
                   Q00  =  -0.194845

C          x =  0.346175  y =  0.572205  z =  0.210545 angstrom
           Maximum rank =  0   Radius =  0.650 angstrom
                   Q00  =  -0.051011

C          x =  1.403175  y =  0.513205  z = -0.706455 angstrom
           Maximum rank =  0   Radius =  0.650 angstrom
                   Q00  =  -0.087473

C          x =  0.609175  y =  0.630205  z =  1.595545 angstrom
           Maximum rank =  0   Radius =  0.650 angstrom
                   Q00  =  -0.093093

C          x =  2.731175  y =  0.502205  z = -0.258455 angstrom
           Maximum rank =  0   Radius =  0.650 angstrom
                   Q00  =  -0.112132

C          x =  1.933175  y =  0.633205  z =  2.063545 angstrom
           Maximum rank =  0   Radius =  0.650 angstrom
                   Q00  =  -0.073466

C          x =  2.989175  y =  0.561205  z =  1.127545 angstrom
           Maximum rank =  0   Radius =  0.650 angstrom
                   Q00  =  -0.005198

H          x = -0.674825  y =  0.575205  z = -0.149455 angstrom
           Maximum rank =  0   Radius =  0.325 angstrom
                   Q00  =   0.066499

H          x =  1.195175  y =  0.477205  z = -1.768455 angstrom
           Maximum rank =  0   Radius =  0.325 angstrom
                   Q00  =   0.052545

H          x = -0.213825  y =  0.673205  z =  2.298545 angstrom
           Maximum rank =  0   Radius =  0.325 angstrom
                   Q00  =   0.066503

H          x =  2.146175  y =  0.689205  z =  3.126545 angstrom
           Maximum rank =  0   Radius =  0.325 angstrom
                   Q00  =   0.069727

H          x =  3.598175  y = -0.351795  z = -1.994455 angstrom
           Maximum rank =  0   Radius =  0.325 angstrom
                   Q00  =   0.097879

H          x =  4.751175  y =  0.072205  z = -0.722455 angstrom
           Maximum rank =  0   Radius =  0.325 angstrom
                   Q00  =   0.097153

H          x =  4.016175  y =  0.552205  z =  1.471545 angstrom
           Maximum rank =  0   Radius =  0.325 angstrom
                   Q00  =   0.060856

H          x =  4.115829  y =  1.347165  z = -1.785435 angstrom
           Maximum rank =  0   Radius =  0.325 angstrom
                   Q00  =   0.105499

C          x = -2.660825  y = -1.296795  z = -1.141455 angstrom
           Maximum rank =  0   Radius =  0.650 angstrom
                   Q00  =  -0.189167

C          x = -2.944825  y = -0.286795  z = -2.262455 angstrom
           Maximum rank =  0   Radius =  0.650 angstrom
                   Q00  =  -0.223697

S          x = -3.180825  y = -0.783795  z =  0.504545 angstrom
           Maximum rank =  0   Radius =  0.650 angstrom
                   Q00  =  -0.118872

H          x = -3.181825  y = -2.228795  z = -1.359455 angstrom
           Maximum rank =  0   Radius =  0.325 angstrom
                   Q00  =   0.071522

H          x = -1.587825  y = -1.488795  z = -1.084455 angstrom
           Maximum rank =  0   Radius =  0.325 angstrom
                   Q00  =   0.065215

H          x = -2.547825  y =  0.687205  z = -1.960455 angstrom
           Maximum rank =  0   Radius =  0.325 angstrom
                   Q00  =   0.090526

H          x = -2.772825  y = -1.894795  z =  1.126545 angstrom
           Maximum rank =  0   Radius =  0.325 angstrom
                   Q00  =   0.115376

H          x = -4.028519  y = -0.224895  z = -2.440705 angstrom
           Maximum rank =  0   Radius =  0.325 angstrom
                   Q00  =   0.091565

H          x = -2.466963  y = -0.665225  z = -3.178115 angstrom
           Maximum rank =  0   Radius =  0.325 angstrom
                   Q00  =   0.098089

Total multipoles referred to origin at
           x =   0.000000,  y =    0.000000,  z =    0.000000 angstrom
                   Q00  =  -0.000000

Finished at 23:43:43 on 27 Apr 2020

  DMA results are available in the Python driver through the
	  variable('DMA DISTRIBUTED MULTIPOLES')
  and
	  variable('DMA TOTAL MULTIPOLES')
  commands.

    Psi4 stopped on: Monday, 27 April 2020 11:43PM
    Psi4 wall time for execution: 0:02:43.84

*** Psi4 exiting successfully. Buy a developer a beer!
