                               Psi4 1.3.2 release

  ==> Input File <==

--------------------------------------------------------------------------
import numpy as np
set {scf_type pk
basis cc-pvdz
d_convergence 10
gdma_switch   0
gdma_limit    0
gdma_origin   [ 0.0,  0.0,  0.0 ]
}
molecule test {
    units Angstrom
    0 1
    --
    0 1
    C                2.066413681065838    -0.470210863945930     2.350627038988410
    C                3.555413681065838    -0.481210863945930     2.683627038988410
    H                1.606413681065838    -1.426210863945930     2.597627038988410
    H                1.565413681065838     0.303789136054070     2.927627038988410
    H                1.926413681065838    -0.254210863945930     1.291627038988410
    H                3.714413681065838    -0.824210863945930     3.707627038988410
    H                3.886413681065838     0.545789136054070     2.582627038988410
    H                4.135093681065838    -1.085340863945930     1.970177038988410
    C               -0.457586318934162    -0.578210863945930    -0.366372961011590
    C               -2.723586318934162     0.792789136054070    -1.048372961011590
    S               -1.128586318934162     0.351789136054070    -1.740372961011590
    H               -1.122586318934162    -1.400210863945930    -0.115372961011590
    H                0.517413681065838    -0.980210863945930    -0.642372961011590
    H               -0.351586318934162     0.073789136054070     0.500627038988410
    H               -2.571586318934162     1.241789136054070    -0.066372961011590
    H               -3.335586318934162    -0.102210863945930    -0.938372961011590
    H               -3.227606318934162     1.520819136054070    -1.701012961011590

}
e, wfn = energy('scf', return_wfn=True)
gdma(wfn)
dmavals = variable('DMA DISTRIBUTED MULTIPOLES')
charges = np.array(dmavals)
print(charges)
np.save('SSI-061ILE-089MET-1-dimer.npy', np.array(charges))--------------------------------------------------------------------------

*** tstart() called on ds3
*** at Mon Apr 27 12:50:19 2020

   => Loading Basis Set <=

    Name: CC-PVDZ
    Role: ORBITAL
    Keyword: BASIS
    atoms 1-2, 9-10  entry C          line   138 file /theoryfs2/ds/metcalf/miniconda2/envs/tf2gpu/share/psi4/basis/cc-pvdz.gbs
    atoms 3-8, 12-17 entry H          line    22 file /theoryfs2/ds/metcalf/miniconda2/envs/tf2gpu/share/psi4/basis/cc-pvdz.gbs
    atoms 11         entry S          line   598 file /theoryfs2/ds/metcalf/miniconda2/envs/tf2gpu/share/psi4/basis/cc-pvdz.gbs

         ---------------------------------------------------------
                                   SCF
               by Justin Turney, Rob Parrish, Andy Simmonett
                          and Daniel G. A. Smith
                              RHF Reference
                        1 Threads,    500 MiB Core
         ---------------------------------------------------------

  ==> Geometry <==

    Molecular point group: c1
    Full point group: C1

    Geometry (in Angstrom), charge = 0, multiplicity = 1:

       Center              X                  Y                   Z               Mass
    ------------   -----------------  -----------------  -----------------  -----------------
         C            2.066413681066    -0.470210863946     2.350627038988    12.000000000000
         C            3.555413681066    -0.481210863946     2.683627038988    12.000000000000
         H            1.606413681066    -1.426210863946     2.597627038988     1.007825032230
         H            1.565413681066     0.303789136054     2.927627038988     1.007825032230
         H            1.926413681066    -0.254210863946     1.291627038988     1.007825032230
         H            3.714413681066    -0.824210863946     3.707627038988     1.007825032230
         H            3.886413681066     0.545789136054     2.582627038988     1.007825032230
         H            4.135093681066    -1.085340863946     1.970177038988     1.007825032230
         C           -0.457586318934    -0.578210863946    -0.366372961012    12.000000000000
         C           -2.723586318934     0.792789136054    -1.048372961012    12.000000000000
         S           -1.128586318934     0.351789136054    -1.740372961012    31.972071174400
         H           -1.122586318934    -1.400210863946    -0.115372961012     1.007825032230
         H            0.517413681066    -0.980210863946    -0.642372961012     1.007825032230
         H           -0.351586318934     0.073789136054     0.500627038988     1.007825032230
         H           -2.571586318934     1.241789136054    -0.066372961012     1.007825032230
         H           -3.335586318934    -0.102210863946    -0.938372961012     1.007825032230
         H           -3.227606318934     1.520819136054    -1.701012961012     1.007825032230

  Running in c1 symmetry.

  Rotational constants: A =      0.31802  B =      0.02324  C =      0.02255 [cm^-1]
  Rotational constants: A =   9533.88774  B =    696.62712  C =    676.01676 [MHz]
  Nuclear repulsion =  213.601175239347185

  Charge       = 0
  Multiplicity = 1
  Electrons    = 52
  Nalpha       = 26
  Nbeta        = 26

  ==> Algorithm <==

  SCF Algorithm Type is PK.
  DIIS enabled.
  MOM disabled.
  Fractional occupation disabled.
  Guess Type is SAD.
  Energy threshold   = 1.00e-06
  Density threshold  = 1.00e-10
  Integral threshold = 0.00e+00

  ==> Primary Basis <==

  Basis Set: CC-PVDZ
    Blend: CC-PVDZ
    Number of shells: 68
    Number of basis function: 134
    Number of Cartesian functions: 139
    Spherical Harmonics?: true
    Max angular momentum: 2

  ==> Pre-Iterations <==

   -------------------------------------------------------
    Irrep   Nso     Nmo     Nalpha   Nbeta   Ndocc  Nsocc
   -------------------------------------------------------
     A        134     134       0       0       0       0
   -------------------------------------------------------
    Total     134     134      26      26      26       0
   -------------------------------------------------------

  ==> Integral Setup <==

  Using integral reordering PK algorithm.
  Sizing the integral batches needed.
  Building batch lookup table.
   Calculation information:
      Number of atoms:                  17
      Number of AO shells:              68
      Number of primitives:            198
      Number of atomic orbitals:       139
      Number of basis functions:       134

      Integral cutoff                 1.00e-12
      Number of threads:                 1

	Batch   1 pq = [       0,    9045] index = [             0,40910535] size =     40910535
  Task number: 4
  Buffer size: 11059200
  Buffer per thread: 2
  We computed 1946760 shell quartets total.
  Whereas there are 2753031 unique shell quartets.

  ==> DiskJK: Disk-Based J/K Matrices <==

    J tasked:                  Yes
    K tasked:                  Yes
    wK tasked:                  No
    Memory [MiB]:              375
    Schwarz Cutoff:          1E-12

    OpenMP threads:              1

  Minimum eigenvalue in the overlap matrix is 6.8416923491E-03.
  Using Symmetric Orthogonalization.

  SCF Guess: Superposition of Atomic Densities via on-the-fly atomic UHF.

  ==> Iterations <==

                        Total Energy        Delta E     RMS |[F,P]|

   @RHF iter SAD:  -554.94904243454698   -5.54949e+02   0.00000e+00
   @RHF iter   1:  -555.84445013922721   -8.95408e-01   3.38936e-03 DIIS
   @RHF iter   2:  -555.96867369134804   -1.24224e-01   1.34307e-03 DIIS
   @RHF iter   3:  -555.98680950422556   -1.81358e-02   3.15451e-04 DIIS
   @RHF iter   4:  -555.98868098509888   -1.87148e-03   4.69679e-05 DIIS
   @RHF iter   5:  -555.98871869845732   -3.77134e-05   1.05338e-05 DIIS
   @RHF iter   6:  -555.98872062534895   -1.92689e-06   2.60065e-06 DIIS
   @RHF iter   7:  -555.98872073638904   -1.11040e-07   7.01332e-07 DIIS
   @RHF iter   8:  -555.98872074528481   -8.89577e-09   1.74144e-07 DIIS
   @RHF iter   9:  -555.98872074610267   -8.17863e-10   5.26994e-08 DIIS
   @RHF iter  10:  -555.98872074617884   -7.61702e-11   1.71003e-08 DIIS
   @RHF iter  11:  -555.98872074618714   -8.29914e-12   5.01670e-09 DIIS
   @RHF iter  12:  -555.98872074618816   -1.02318e-12   2.02445e-09 DIIS
   @RHF iter  13:  -555.98872074618805    1.13687e-13   6.91943e-10 DIIS
   @RHF iter  14:  -555.98872074618828   -2.27374e-13   1.65292e-10 DIIS
   @RHF iter  15:  -555.98872074618885   -5.68434e-13   3.57110e-11 DIIS
  Energy and wave function converged.

  ==> Post-Iterations <==

    Orbital Energies [Eh]
    ---------------------

    Doubly Occupied:

       1A    -91.932950     2A    -11.255589     3A    -11.253163
       4A    -11.219806     5A    -11.219055     6A     -8.937249
       7A     -6.619332     8A     -6.617789     9A     -6.615476
      10A     -1.065801    11A     -1.022931    12A     -0.951111
      13A     -0.840534    14A     -0.803436    15A     -0.608087
      16A     -0.604235    17A     -0.601725    18A     -0.598749
      19A     -0.573369    20A     -0.561646    21A     -0.505350
      22A     -0.499283    23A     -0.489799    24A     -0.483781
      25A     -0.426832    26A     -0.329424

    Virtual:

      27A      0.170403    28A      0.183955    29A      0.196200
      30A      0.221381    31A      0.235078    32A      0.240952
      33A      0.252625    34A      0.252999    35A      0.266183
      36A      0.278629    37A      0.281915    38A      0.293828
      39A      0.302512    40A      0.321407    41A      0.400807
      42A      0.516809    43A      0.554230    44A      0.570410
      45A      0.594545    46A      0.601771    47A      0.603608
      48A      0.632384    49A      0.670831    50A      0.681164
      51A      0.700074    52A      0.711833    53A      0.726303
      54A      0.793144    55A      0.804851    56A      0.818785
      57A      0.839895    58A      0.860649    59A      0.871261
      60A      0.882631    61A      0.887180    62A      0.889783
      63A      0.893196    64A      0.893655    65A      0.903880
      66A      0.906680    67A      0.915332    68A      0.939478
      69A      0.942129    70A      0.947458    71A      0.974516
      72A      1.023053    73A      1.120541    74A      1.132117
      75A      1.173763    76A      1.238352    77A      1.264769
      78A      1.310812    79A      1.319906    80A      1.373358
      81A      1.384271    82A      1.466739    83A      1.475398
      84A      1.483007    85A      1.487305    86A      1.588799
      87A      1.664366    88A      1.671279    89A      1.679838
      90A      1.693366    91A      1.854307    92A      1.860704
      93A      1.876371    94A      1.890455    95A      1.895196
      96A      1.908680    97A      1.914675    98A      1.920230
      99A      1.941940   100A      1.951949   101A      1.954572
     102A      1.959213   103A      1.975265   104A      1.989427
     105A      2.003715   106A      2.031272   107A      2.060845
     108A      2.092261   109A      2.100261   110A      2.140922
     111A      2.215567   112A      2.234596   113A      2.299326
     114A      2.315180   115A      2.403229   116A      2.437249
     117A      2.448327   118A      2.450444   119A      2.457586
     120A      2.479287   121A      2.563307   122A      2.590704
     123A      2.730930   124A      2.761775   125A      2.764705
     126A      2.772026   127A      2.782080   128A      2.791761
     129A      2.812733   130A      2.826557   131A      2.841325
     132A      2.868950   133A      2.948056   134A      2.967184

    Final Occupation by Irrep:
              A
    DOCC [    26 ]

  @RHF Final Energy:  -555.98872074618885

   => Energetics <=

    Nuclear Repulsion Energy =            213.6011752393471852
    One-Electron Energy =               -1185.9067823201096417
    Two-Electron Energy =                 416.3168863345735531
    Total Energy =                       -555.9887207461888465

Computation Completed

Properties will be evaluated at   0.000000,   0.000000,   0.000000 [a0]

Properties computed using the SCF density matrix

  Nuclear Dipole Moment: [e a0]
     X:     6.2912      Y:    -2.2281      Z:    11.3110

  Electronic Dipole Moment: [e a0]
     X:    -6.5406      Y:     2.1038      Z:   -10.7024

  Dipole Moment: [e a0]
     X:    -0.2494      Y:    -0.1243      Z:     0.6086     Total:     0.6694

  Dipole Moment: [D]
     X:    -0.6338      Y:    -0.3159      Z:     1.5469     Total:     1.7014

*** tstop() called on ds3 at Mon Apr 27 12:50:47 2020
Module time:
	user time   =      20.92 seconds =       0.35 minutes
	system time =       7.41 seconds =       0.12 minutes
	total time  =         28 seconds =       0.47 minutes
Total time:
	user time   =      20.92 seconds =       0.35 minutes
	system time =       7.41 seconds =       0.12 minutes
	total time  =         28 seconds =       0.47 minutes
                                     G D M A

                                 by Anthony Stone

                           version 2.2.06, 22 June 2011

               Distributed Multipoles from Gaussian wavefunctions

Starting at 12:50:47 on 27 Apr 2020

Using SCF density matrix from file ./SSI/SSI-061ILE-089MET-1-dimer.test.4314.fchk

                         Distributed Multipole Analysis

Standard DMA

Positions and radii in angstrom
Multipole moments in atomic units, ea_0^k for rank k

C          x =  2.066414  y = -0.470211  z =  2.350627 angstrom
           Maximum rank =  0   Radius =  0.650 angstrom
                   Q00  =  -0.237065

C          x =  3.555414  y = -0.481211  z =  2.683627 angstrom
           Maximum rank =  0   Radius =  0.650 angstrom
                   Q00  =  -0.237266

H          x =  1.606414  y = -1.426211  z =  2.597627 angstrom
           Maximum rank =  0   Radius =  0.325 angstrom
                   Q00  =   0.076764

H          x =  1.565414  y =  0.303789  z =  2.927627 angstrom
           Maximum rank =  0   Radius =  0.325 angstrom
                   Q00  =   0.077601

H          x =  1.926414  y = -0.254211  z =  1.291627 angstrom
           Maximum rank =  0   Radius =  0.325 angstrom
                   Q00  =   0.079537

H          x =  3.714414  y = -0.824211  z =  3.707627 angstrom
           Maximum rank =  0   Radius =  0.325 angstrom
                   Q00  =   0.081995

H          x =  3.886414  y =  0.545789  z =  2.582627 angstrom
           Maximum rank =  0   Radius =  0.325 angstrom
                   Q00  =   0.076899

H          x =  4.135094  y = -1.085341  z =  1.970177 angstrom
           Maximum rank =  0   Radius =  0.325 angstrom
                   Q00  =   0.080397

C          x = -0.457586  y = -0.578211  z = -0.366373 angstrom
           Maximum rank =  0   Radius =  0.650 angstrom
                   Q00  =  -0.349670

C          x = -2.723586  y =  0.792789  z = -1.048373 angstrom
           Maximum rank =  0   Radius =  0.650 angstrom
                   Q00  =  -0.351129

S          x = -1.128586  y =  0.351789  z = -1.740373 angstrom
           Maximum rank =  0   Radius =  0.650 angstrom
                   Q00  =   0.122964

H          x = -1.122586  y = -1.400211  z = -0.115373 angstrom
           Maximum rank =  0   Radius =  0.325 angstrom
                   Q00  =   0.084647

H          x =  0.517414  y = -0.980211  z = -0.642373 angstrom
           Maximum rank =  0   Radius =  0.325 angstrom
                   Q00  =   0.119643

H          x = -0.351586  y =  0.073789  z =  0.500627 angstrom
           Maximum rank =  0   Radius =  0.325 angstrom
                   Q00  =   0.085211

H          x = -2.571586  y =  1.241789  z = -0.066373 angstrom
           Maximum rank =  0   Radius =  0.325 angstrom
                   Q00  =   0.083857

H          x = -3.335586  y = -0.102211  z = -0.938373 angstrom
           Maximum rank =  0   Radius =  0.325 angstrom
                   Q00  =   0.084513

H          x = -3.227606  y =  1.520819  z = -1.701013 angstrom
           Maximum rank =  0   Radius =  0.325 angstrom
                   Q00  =   0.121101

Total multipoles referred to origin at
           x =   0.000000,  y =    0.000000,  z =    0.000000 angstrom
                   Q00  =   0.000000

Finished at 12:50:47 on 27 Apr 2020

  DMA results are available in the Python driver through the
	  variable('DMA DISTRIBUTED MULTIPOLES')
  and
	  variable('DMA TOTAL MULTIPOLES')
  commands.

    Psi4 stopped on: Monday, 27 April 2020 12:50PM
    Psi4 wall time for execution: 0:00:28.03

*** Psi4 exiting successfully. Buy a developer a beer!
