                               Psi4 1.3.2 release

  ==> Input File <==

--------------------------------------------------------------------------
import numpy as np
set {scf_type pk
basis cc-pvdz
d_convergence 10
gdma_switch   0
gdma_limit    0
gdma_origin   [ 0.0,  0.0,  0.0 ]
}
molecule test {
    units Angstrom
    0 1
    --
    0 1
    C                0.898912039073628    -1.490582724052451     0.812890188439990
    C                2.346912039073628    -1.970582724052451     0.795890188439990
    C                0.627912039073628    -0.474582724052450    -0.286109811560010
    C                0.407912039073628    -0.937582724052451    -1.584109811560010
    C                0.614912039073628     0.887417275947549    -0.024109811560010
    C                0.164912039073628    -0.014582724052450    -2.605109811560010
    C                0.369912039073628     1.813417275947550    -1.049109811560010
    C                0.157912039073628     1.358417275947549    -2.345109811560010
    H                0.236912039073628    -2.345582724052450     0.676890188439990
    H                0.675912039073628    -1.045582724052450     1.783890188439990
    H                2.546912039073627    -2.445582724052450    -0.167109811560010
    H                0.420912039073628    -1.997582724052451    -1.800109811560010
    H                0.794912039073628     1.243417275947550     0.981890188439990
    H               -0.000087960926372    -0.366582724052451    -3.615109811560010
    H                0.355912039073628     2.873417275947549    -0.833109811560010
    H               -0.018087960926372     2.059417275947550    -3.148109811560010
    H                2.527082039073628    -2.678459724052451     1.618350188439990
    H                3.047562039073628    -1.130671724052450     0.912670188439990
    C               -2.230087960926372    -0.122582724052451     2.448890188439990
    C               -2.944087960926372     1.173417275947550     2.818890188439990
    H               -2.956087960926372    -0.922582724052450     2.309890188439990
    H               -1.700087960926372     0.011417275947550     1.504890188439990
    H               -1.520087960926372    -0.402582724052450     3.226890188439990
    H               -3.721087960926372     1.354417275947549     2.078890188439990
    H               -3.399707960926373     1.136570275947549     3.819420188439990
    H               -2.233647960926372     2.011180875947550     2.760290188439990

}
e, wfn = energy('scf', return_wfn=True)
gdma(wfn)
dmavals = variable('DMA DISTRIBUTED MULTIPOLES')
charges = np.array(dmavals)
print(charges)
np.save('SSI-017PHE-084LEU-1-dimer.npy', np.array(charges))--------------------------------------------------------------------------

*** tstart() called on ds3
*** at Sun Apr 26 17:51:51 2020

   => Loading Basis Set <=

    Name: CC-PVDZ
    Role: ORBITAL
    Keyword: BASIS
    atoms 1-8, 19-20  entry C          line   138 file /theoryfs2/ds/metcalf/miniconda2/envs/tf2gpu/share/psi4/basis/cc-pvdz.gbs
    atoms 9-18, 21-26 entry H          line    22 file /theoryfs2/ds/metcalf/miniconda2/envs/tf2gpu/share/psi4/basis/cc-pvdz.gbs

         ---------------------------------------------------------
                                   SCF
               by Justin Turney, Rob Parrish, Andy Simmonett
                          and Daniel G. A. Smith
                              RHF Reference
                        1 Threads,    500 MiB Core
         ---------------------------------------------------------

  ==> Geometry <==

    Molecular point group: c1
    Full point group: C1

    Geometry (in Angstrom), charge = 0, multiplicity = 1:

       Center              X                  Y                   Z               Mass
    ------------   -----------------  -----------------  -----------------  -----------------
         C            0.898912039074    -1.490582724052     0.812890188440    12.000000000000
         C            2.346912039074    -1.970582724052     0.795890188440    12.000000000000
         C            0.627912039074    -0.474582724052    -0.286109811560    12.000000000000
         C            0.407912039074    -0.937582724052    -1.584109811560    12.000000000000
         C            0.614912039074     0.887417275948    -0.024109811560    12.000000000000
         C            0.164912039074    -0.014582724052    -2.605109811560    12.000000000000
         C            0.369912039074     1.813417275948    -1.049109811560    12.000000000000
         C            0.157912039074     1.358417275948    -2.345109811560    12.000000000000
         H            0.236912039074    -2.345582724052     0.676890188440     1.007825032230
         H            0.675912039074    -1.045582724052     1.783890188440     1.007825032230
         H            2.546912039074    -2.445582724052    -0.167109811560     1.007825032230
         H            0.420912039074    -1.997582724052    -1.800109811560     1.007825032230
         H            0.794912039074     1.243417275948     0.981890188440     1.007825032230
         H           -0.000087960926    -0.366582724052    -3.615109811560     1.007825032230
         H            0.355912039074     2.873417275948    -0.833109811560     1.007825032230
         H           -0.018087960926     2.059417275948    -3.148109811560     1.007825032230
         H            2.527082039074    -2.678459724052     1.618350188440     1.007825032230
         H            3.047562039074    -1.130671724052     0.912670188440     1.007825032230
         C           -2.230087960926    -0.122582724052     2.448890188440    12.000000000000
         C           -2.944087960926     1.173417275948     2.818890188440    12.000000000000
         H           -2.956087960926    -0.922582724052     2.309890188440     1.007825032230
         H           -1.700087960926     0.011417275948     1.504890188440     1.007825032230
         H           -1.520087960926    -0.402582724052     3.226890188440     1.007825032230
         H           -3.721087960926     1.354417275948     2.078890188440     1.007825032230
         H           -3.399707960926     1.136570275948     3.819420188440     1.007825032230
         H           -2.233647960926     2.011180875948     2.760290188440     1.007825032230

  Running in c1 symmetry.

  Rotational constants: A =      0.04196  B =      0.02517  C =      0.01822 [cm^-1]
  Rotational constants: A =   1257.84456  B =    754.69893  C =    546.28526 [MHz]
  Nuclear repulsion =  492.430422640588802

  Charge       = 0
  Multiplicity = 1
  Electrons    = 76
  Nalpha       = 38
  Nbeta        = 38

  ==> Algorithm <==

  SCF Algorithm Type is PK.
  DIIS enabled.
  MOM disabled.
  Fractional occupation disabled.
  Guess Type is SAD.
  Energy threshold   = 1.00e-06
  Density threshold  = 1.00e-10
  Integral threshold = 0.00e+00

  ==> Primary Basis <==

  Basis Set: CC-PVDZ
    Blend: CC-PVDZ
    Number of shells: 108
    Number of basis function: 220
    Number of Cartesian functions: 230
    Spherical Harmonics?: true
    Max angular momentum: 2

  ==> Pre-Iterations <==

   -------------------------------------------------------
    Irrep   Nso     Nmo     Nalpha   Nbeta   Ndocc  Nsocc
   -------------------------------------------------------
     A        220     220       0       0       0       0
   -------------------------------------------------------
    Total     220     220      38      38      38       0
   -------------------------------------------------------

  ==> Integral Setup <==

  Using integral reordering PK algorithm.
  Sizing the integral batches needed.
  Building batch lookup table.
   Calculation information:
      Number of atoms:                  26
      Number of AO shells:             108
      Number of primitives:            300
      Number of atomic orbitals:       230
      Number of basis functions:       220

      Integral cutoff                 1.00e-12
      Number of threads:                 1

	Batch   1 pq = [       0,    9405] index = [             0,44231715] size =     44231715
	Batch   2 pq = [    9405,   13301] index = [      44231715,88464951] size =     44233236
	Batch   3 pq = [   13301,   16290] index = [      88464951,132690195] size =     44225244
	Batch   4 pq = [   16290,   18810] index = [     132690195,176917455] size =     44227260
	Batch   5 pq = [   18810,   21030] index = [     176917455,221140965] size =     44223510
	Batch   6 pq = [   21030,   23037] index = [     221140965,265363203] size =     44222238
	Batch   7 pq = [   23037,   24310] index = [     265363203,295500205] size =     30137002
  Task number: 27
  Buffer size: 11059200
  Buffer per thread: 2
  We computed 15968308 shell quartets total.
  Whereas there are 17325441 unique shell quartets.

  ==> DiskJK: Disk-Based J/K Matrices <==

    J tasked:                  Yes
    K tasked:                  Yes
    wK tasked:                  No
    Memory [MiB]:              375
    Schwarz Cutoff:          1E-12

    OpenMP threads:              1

  Minimum eigenvalue in the overlap matrix is 3.1842897034E-04.
  Using Symmetric Orthogonalization.

  SCF Guess: Superposition of Atomic Densities via on-the-fly atomic UHF.

  ==> Iterations <==

                        Total Energy        Delta E     RMS |[F,P]|

   @RHF iter SAD:  -386.83789163552478   -3.86838e+02   0.00000e+00
   @RHF iter   1:  -387.77931743443781   -9.41426e-01   2.71630e-03 DIIS
   @RHF iter   2:  -387.99280714526611   -2.13490e-01   1.13015e-03 DIIS
   @RHF iter   3:  -388.02662992524216   -3.38228e-02   2.47138e-04 DIIS
   @RHF iter   4:  -388.02945024846008   -2.82032e-03   5.70189e-05 DIIS
   @RHF iter   5:  -388.02954846519373   -9.82167e-05   2.10462e-05 DIIS
   @RHF iter   6:  -388.02956245441595   -1.39892e-05   3.97826e-06 DIIS
   @RHF iter   7:  -388.02956315090580   -6.96490e-07   1.24199e-06 DIIS
   @RHF iter   8:  -388.02956322771132   -7.68055e-08   4.27903e-07 DIIS
   @RHF iter   9:  -388.02956324827716   -2.05658e-08   2.09372e-07 DIIS
   @RHF iter  10:  -388.02956325484018   -6.56303e-09   9.75787e-08 DIIS
   @RHF iter  11:  -388.02956325621909   -1.37891e-09   2.54181e-08 DIIS
   @RHF iter  12:  -388.02956325628281   -6.37215e-11   9.64461e-09 DIIS
   @RHF iter  13:  -388.02956325629077   -7.95808e-12   4.03687e-09 DIIS
   @RHF iter  14:  -388.02956325629458   -3.80851e-12   1.14614e-09 DIIS
   @RHF iter  15:  -388.02956325629242    2.16005e-12   5.66553e-10 DIIS
   @RHF iter  16:  -388.02956325629305   -6.25278e-13   2.51846e-10 DIIS
   @RHF iter  17:  -388.02956325629322   -1.70530e-13   9.95273e-11 DIIS
  Energy and wave function converged.

  ==> Post-Iterations <==

    Orbital Energies [Eh]
    ---------------------

    Doubly Occupied:

       1A    -11.238488     2A    -11.237821     3A    -11.237333
       4A    -11.232466     5A    -11.232299     6A    -11.231918
       7A    -11.229064     8A    -11.222789     9A    -11.215681
      10A    -11.211736    11A     -1.152943    12A     -1.061926
      13A     -1.015440    14A     -1.010149    15A     -0.981930
      16A     -0.858862    17A     -0.833355    18A     -0.826041
      19A     -0.785266    20A     -0.690952    21A     -0.639184
      22A     -0.634435    23A     -0.595939    24A     -0.594074
      25A     -0.590696    26A     -0.587008    27A     -0.575405
      28A     -0.542528    29A     -0.518508    30A     -0.500495
      31A     -0.496709    32A     -0.484972    33A     -0.481702
      34A     -0.479996    35A     -0.474986    36A     -0.464364
      37A     -0.331089    38A     -0.323182

    Virtual:

      39A      0.133241    40A      0.139632    41A      0.173769
      42A      0.192881    43A      0.199433    44A      0.215238
      45A      0.224360    46A      0.237207    47A      0.240879
      48A      0.255124    49A      0.260343    50A      0.263859
      51A      0.278123    52A      0.285035    53A      0.290296
      54A      0.302257    55A      0.312127    56A      0.327713
      57A      0.346392    58A      0.384998    59A      0.400416
      60A      0.421262    61A      0.449169    62A      0.466430
      63A      0.483608    64A      0.497728    65A      0.567305
      66A      0.579171    67A      0.592553    68A      0.600763
      69A      0.605826    70A      0.622105    71A      0.635624
      72A      0.663646    73A      0.681598    74A      0.688034
      75A      0.698973    76A      0.716238    77A      0.720054
      78A      0.736113    79A      0.741883    80A      0.745093
      81A      0.750343    82A      0.761440    83A      0.786537
      84A      0.801744    85A      0.830149    86A      0.849943
      87A      0.853520    88A      0.863561    89A      0.880255
      90A      0.887219    91A      0.892704    92A      0.895838
      93A      0.897527    94A      0.902288    95A      0.905897
      96A      0.909291    97A      0.917834    98A      0.924150
      99A      0.934308   100A      0.941886   101A      0.949913
     102A      0.965520   103A      0.974500   104A      0.988163
     105A      0.996304   106A      1.019941   107A      1.051616
     108A      1.081874   109A      1.120294   110A      1.128080
     111A      1.137473   112A      1.148104   113A      1.157322
     114A      1.160476   115A      1.184021   116A      1.219305
     117A      1.235797   118A      1.246497   119A      1.248287
     120A      1.284127   121A      1.295259   122A      1.304965
     123A      1.318184   124A      1.326891   125A      1.392672
     126A      1.427642   127A      1.431091   128A      1.471682
     129A      1.489837   130A      1.510712   131A      1.532783
     132A      1.593582   133A      1.610010   134A      1.621108
     135A      1.676397   136A      1.681956   137A      1.689172
     138A      1.701672   139A      1.721144   140A      1.749866
     141A      1.761813   142A      1.775672   143A      1.833435
     144A      1.853690   145A      1.858767   146A      1.865909
     147A      1.873576   148A      1.882647   149A      1.889653
     150A      1.899237   151A      1.903312   152A      1.909072
     153A      1.926525   154A      1.930491   155A      1.938489
     156A      1.944276   157A      1.948577   158A      1.951461
     159A      1.960556   160A      1.962308   161A      1.968428
     162A      1.976471   163A      1.978439   164A      2.005724
     165A      2.013167   166A      2.022975   167A      2.038449
     168A      2.055285   169A      2.065759   170A      2.091039
     171A      2.104813   172A      2.121735   173A      2.137401
     174A      2.151355   175A      2.158494   176A      2.163095
     177A      2.167598   178A      2.190283   179A      2.240301
     180A      2.246276   181A      2.270771   182A      2.298659
     183A      2.309885   184A      2.317328   185A      2.320237
     186A      2.341051   187A      2.380607   188A      2.452696
     189A      2.458473   190A      2.476937   191A      2.480636
     192A      2.488706   193A      2.517583   194A      2.540497
     195A      2.569538   196A      2.576013   197A      2.587196
     198A      2.635931   199A      2.739444   200A      2.760319
     201A      2.763863   202A      2.771455   203A      2.779856
     204A      2.794053   205A      2.803474   206A      2.840760
     207A      2.851940   208A      2.870817   209A      2.876883
     210A      2.910376   211A      2.949078   212A      2.959895
     213A      2.980757   214A      2.989102   215A      3.027503
     216A      3.049765   217A      3.178587   218A      3.195609
     219A      3.299945   220A      3.958390

    Final Occupation by Irrep:
              A
    DOCC [    38 ]

  @RHF Final Energy:  -388.02956325629322

   => Energetics <=

    Nuclear Repulsion Energy =            492.4304226405888016
    One-Electron Energy =               -1499.2765126147960473
    Two-Electron Energy =                 618.8165267179139164
    Total Energy =                       -388.0295632562932724

Computation Completed

Properties will be evaluated at   0.000000,   0.000000,   0.000000 [a0]

Properties computed using the SCF density matrix

  Nuclear Dipole Moment: [e a0]
     X:    -4.6337      Y:    -2.4800      Z:    11.3531

  Electronic Dipole Moment: [e a0]
     X:     4.6872      Y:     2.3955      Z:   -11.3414

  Dipole Moment: [e a0]
     X:     0.0535      Y:    -0.0844      Z:     0.0117     Total:     0.1007

  Dipole Moment: [D]
     X:     0.1360      Y:    -0.2146      Z:     0.0298     Total:     0.2559

*** tstop() called on ds3 at Sun Apr 26 17:54:30 2020
Module time:
	user time   =     115.88 seconds =       1.93 minutes
	system time =      48.89 seconds =       0.81 minutes
	total time  =        159 seconds =       2.65 minutes
Total time:
	user time   =     115.88 seconds =       1.93 minutes
	system time =      48.89 seconds =       0.81 minutes
	total time  =        159 seconds =       2.65 minutes
                                     G D M A

                                 by Anthony Stone

                           version 2.2.06, 22 June 2011

               Distributed Multipoles from Gaussian wavefunctions

Starting at 17:54:30 on 26 Apr 2020

Using SCF density matrix from file ./SSI/SSI-017PHE-084LEU-1-dimer.test.9914.fchk

                         Distributed Multipole Analysis

Standard DMA

Positions and radii in angstrom
Multipole moments in atomic units, ea_0^k for rank k

C          x =  0.898912  y = -1.490583  z =  0.812890 angstrom
           Maximum rank =  0   Radius =  0.650 angstrom
                   Q00  =  -0.042162

C          x =  2.346912  y = -1.970583  z =  0.795890 angstrom
           Maximum rank =  0   Radius =  0.650 angstrom
                   Q00  =  -0.233528

C          x =  0.627912  y = -0.474583  z = -0.286110 angstrom
           Maximum rank =  0   Radius =  0.650 angstrom
                   Q00  =  -0.105537

C          x =  0.407912  y = -0.937583  z = -1.584110 angstrom
           Maximum rank =  0   Radius =  0.650 angstrom
                   Q00  =  -0.087868

C          x =  0.614912  y =  0.887417  z = -0.024110 angstrom
           Maximum rank =  0   Radius =  0.650 angstrom
                   Q00  =  -0.032146

C          x =  0.164912  y = -0.014583  z = -2.605110 angstrom
           Maximum rank =  0   Radius =  0.650 angstrom
                   Q00  =  -0.035114

C          x =  0.369912  y =  1.813417  z = -1.049110 angstrom
           Maximum rank =  0   Radius =  0.650 angstrom
                   Q00  =  -0.070488

C          x =  0.157912  y =  1.358417  z = -2.345110 angstrom
           Maximum rank =  0   Radius =  0.650 angstrom
                   Q00  =  -0.087625

H          x =  0.236912  y = -2.345583  z =  0.676890 angstrom
           Maximum rank =  0   Radius =  0.325 angstrom
                   Q00  =   0.069159

H          x =  0.675912  y = -1.045583  z =  1.783890 angstrom
           Maximum rank =  0   Radius =  0.325 angstrom
                   Q00  =   0.069864

H          x =  2.546912  y = -2.445583  z = -0.167110 angstrom
           Maximum rank =  0   Radius =  0.325 angstrom
                   Q00  =   0.081236

H          x =  0.420912  y = -1.997583  z = -1.800110 angstrom
           Maximum rank =  0   Radius =  0.325 angstrom
                   Q00  =   0.059497

H          x =  0.794912  y =  1.243417  z =  0.981890 angstrom
           Maximum rank =  0   Radius =  0.325 angstrom
                   Q00  =   0.057666

H          x = -0.000088  y = -0.366583  z = -3.615110 angstrom
           Maximum rank =  0   Radius =  0.325 angstrom
                   Q00  =   0.064652

H          x =  0.355912  y =  2.873417  z = -0.833110 angstrom
           Maximum rank =  0   Radius =  0.325 angstrom
                   Q00  =   0.067298

H          x = -0.018088  y =  2.059417  z = -3.148110 angstrom
           Maximum rank =  0   Radius =  0.325 angstrom
                   Q00  =   0.062690

H          x =  2.527082  y = -2.678460  z =  1.618350 angstrom
           Maximum rank =  0   Radius =  0.325 angstrom
                   Q00  =   0.081562

H          x =  3.047562  y = -1.130672  z =  0.912670 angstrom
           Maximum rank =  0   Radius =  0.325 angstrom
                   Q00  =   0.083952

C          x = -2.230088  y = -0.122583  z =  2.448890 angstrom
           Maximum rank =  0   Radius =  0.650 angstrom
                   Q00  =  -0.248011

C          x = -2.944088  y =  1.173417  z =  2.818890 angstrom
           Maximum rank =  0   Radius =  0.650 angstrom
                   Q00  =  -0.228760

H          x = -2.956088  y = -0.922583  z =  2.309890 angstrom
           Maximum rank =  0   Radius =  0.325 angstrom
                   Q00  =   0.077651

H          x = -1.700088  y =  0.011417  z =  1.504890 angstrom
           Maximum rank =  0   Radius =  0.325 angstrom
                   Q00  =   0.091802

H          x = -1.520088  y = -0.402583  z =  3.226890 angstrom
           Maximum rank =  0   Radius =  0.325 angstrom
                   Q00  =   0.072707

H          x = -3.721088  y =  1.354417  z =  2.078890 angstrom
           Maximum rank =  0   Radius =  0.325 angstrom
                   Q00  =   0.079274

H          x = -3.399708  y =  1.136570  z =  3.819420 angstrom
           Maximum rank =  0   Radius =  0.325 angstrom
                   Q00  =   0.078669

H          x = -2.233648  y =  2.011181  z =  2.760290 angstrom
           Maximum rank =  0   Radius =  0.325 angstrom
                   Q00  =   0.073558

Total multipoles referred to origin at
           x =   0.000000,  y =    0.000000,  z =    0.000000 angstrom
                   Q00  =  -0.000000

Finished at 17:54:30 on 26 Apr 2020

  DMA results are available in the Python driver through the
	  variable('DMA DISTRIBUTED MULTIPOLES')
  and
	  variable('DMA TOTAL MULTIPOLES')
  commands.

    Psi4 stopped on: Sunday, 26 April 2020 05:54PM
    Psi4 wall time for execution: 0:02:39.26

*** Psi4 exiting successfully. Buy a developer a beer!
