                               Psi4 1.3.2 release

  ==> Input File <==

--------------------------------------------------------------------------
import numpy as np
set {scf_type pk
basis cc-pvdz
d_convergence 10
gdma_switch   0
gdma_limit    0
gdma_origin   [ 0.0,  0.0,  0.0 ]
}
molecule test {
    units Angstrom
    0 1
    --
    0 1
    C               -2.191486887795614    -0.040644150154609    -2.447971099207715
    C               -0.351486887795614    -1.114644150154609     0.744028900792285
    C               -1.367486887795615    -0.809644150154609    -0.159971099207715
    C                0.977513112204386    -0.942644150154609     0.366028900792285
    C               -1.078486887795614    -0.361644150154609    -1.459971099207715
    C                1.279513112204386    -0.488644150154609    -0.915971099207715
    C                0.269513112204386    -0.197644150154609    -1.810971099207715
    O                1.990513112204386    -1.212644150154609     1.225028900792285
    H               -0.588486887795615    -1.456644150154609     1.741028900792285
    H               -2.396486887795614    -0.907644150154609     0.156028900792285
    H                1.683513112204385    -1.344644150154609     2.141028900792285
    H                2.313513112204385    -0.366644150154609    -1.205971099207715
    H               -1.751486887795614     0.226355849845391    -3.409971099207715
    H               -2.715486887795614     0.840355849845391    -2.071971099207715
    H                0.528513112204386     0.145355849845391    -2.803971099207715
    H               -2.917936887795614    -0.852734150154609    -2.598922099207715
    C               -0.278486887795614     2.085355849845391     2.478028900792285
    C                0.521513112204386     2.618355849845391     1.300028900792285
    H                0.014513112204386     2.598355849845391     3.395028900792285
    H               -1.345486887795615     2.238355849845391     2.303028900792285
    H               -0.092486887795614     1.017355849845391     2.598028900792285
    H                0.248513112204386     2.037355849845391     0.415028900792285
    H                1.596023112204386     2.493585849845391     1.499656900792285
    H                0.258183112204386     3.668055849845391     1.103074900792285

}
e, wfn = energy('scf', return_wfn=True)
gdma(wfn)
dmavals = variable('DMA DISTRIBUTED MULTIPOLES')
charges = np.array(dmavals)
print(charges)
np.save('SSI-161TYR-201ALA-1-dimer.npy', np.array(charges))--------------------------------------------------------------------------

*** tstart() called on ds3
*** at Mon Apr 27 22:14:57 2020

   => Loading Basis Set <=

    Name: CC-PVDZ
    Role: ORBITAL
    Keyword: BASIS
    atoms 1-7, 17-18  entry C          line   138 file /theoryfs2/ds/metcalf/miniconda2/envs/tf2gpu/share/psi4/basis/cc-pvdz.gbs
    atoms 8           entry O          line   198 file /theoryfs2/ds/metcalf/miniconda2/envs/tf2gpu/share/psi4/basis/cc-pvdz.gbs
    atoms 9-16, 19-24 entry H          line    22 file /theoryfs2/ds/metcalf/miniconda2/envs/tf2gpu/share/psi4/basis/cc-pvdz.gbs

         ---------------------------------------------------------
                                   SCF
               by Justin Turney, Rob Parrish, Andy Simmonett
                          and Daniel G. A. Smith
                              RHF Reference
                        1 Threads,    500 MiB Core
         ---------------------------------------------------------

  ==> Geometry <==

    Molecular point group: c1
    Full point group: C1

    Geometry (in Angstrom), charge = 0, multiplicity = 1:

       Center              X                  Y                   Z               Mass
    ------------   -----------------  -----------------  -----------------  -----------------
         C           -2.191486887796    -0.040644150155    -2.447971099208    12.000000000000
         C           -0.351486887796    -1.114644150155     0.744028900792    12.000000000000
         C           -1.367486887796    -0.809644150155    -0.159971099208    12.000000000000
         C            0.977513112204    -0.942644150155     0.366028900792    12.000000000000
         C           -1.078486887796    -0.361644150155    -1.459971099208    12.000000000000
         C            1.279513112204    -0.488644150155    -0.915971099208    12.000000000000
         C            0.269513112204    -0.197644150155    -1.810971099208    12.000000000000
         O            1.990513112204    -1.212644150155     1.225028900792    15.994914619570
         H           -0.588486887796    -1.456644150155     1.741028900792     1.007825032230
         H           -2.396486887796    -0.907644150155     0.156028900792     1.007825032230
         H            1.683513112204    -1.344644150155     2.141028900792     1.007825032230
         H            2.313513112204    -0.366644150155    -1.205971099208     1.007825032230
         H           -1.751486887796     0.226355849845    -3.409971099208     1.007825032230
         H           -2.715486887796     0.840355849845    -2.071971099208     1.007825032230
         H            0.528513112204     0.145355849845    -2.803971099208     1.007825032230
         H           -2.917936887796    -0.852734150155    -2.598922099208     1.007825032230
         C           -0.278486887796     2.085355849845     2.478028900792    12.000000000000
         C            0.521513112204     2.618355849845     1.300028900792    12.000000000000
         H            0.014513112204     2.598355849845     3.395028900792     1.007825032230
         H           -1.345486887796     2.238355849845     2.303028900792     1.007825032230
         H           -0.092486887796     1.017355849845     2.598028900792     1.007825032230
         H            0.248513112204     2.037355849845     0.415028900792     1.007825032230
         H            1.596023112204     2.493585849845     1.499656900792     1.007825032230
         H            0.258183112204     3.668055849845     1.103074900792     1.007825032230

  Running in c1 symmetry.

  Rotational constants: A =      0.04631  B =      0.03039  C =      0.02377 [cm^-1]
  Rotational constants: A =   1388.42917  B =    911.14133  C =    712.72616 [MHz]
  Nuclear repulsion =  512.152646493143038

  Charge       = 0
  Multiplicity = 1
  Electrons    = 76
  Nalpha       = 38
  Nbeta        = 38

  ==> Algorithm <==

  SCF Algorithm Type is PK.
  DIIS enabled.
  MOM disabled.
  Fractional occupation disabled.
  Guess Type is SAD.
  Energy threshold   = 1.00e-06
  Density threshold  = 1.00e-10
  Integral threshold = 0.00e+00

  ==> Primary Basis <==

  Basis Set: CC-PVDZ
    Blend: CC-PVDZ
    Number of shells: 102
    Number of basis function: 210
    Number of Cartesian functions: 220
    Spherical Harmonics?: true
    Max angular momentum: 2

  ==> Pre-Iterations <==

   -------------------------------------------------------
    Irrep   Nso     Nmo     Nalpha   Nbeta   Ndocc  Nsocc
   -------------------------------------------------------
     A        210     210       0       0       0       0
   -------------------------------------------------------
    Total     210     210      38      38      38       0
   -------------------------------------------------------

  ==> Integral Setup <==

  Using integral reordering PK algorithm.
  Sizing the integral batches needed.
  Building batch lookup table.
   Calculation information:
      Number of atoms:                  24
      Number of AO shells:             102
      Number of primitives:            290
      Number of atomic orbitals:       220
      Number of basis functions:       210

      Integral cutoff                 1.00e-12
      Number of threads:                 1

	Batch   1 pq = [       0,    9405] index = [             0,44231715] size =     44231715
	Batch   2 pq = [    9405,   13301] index = [      44231715,88464951] size =     44233236
	Batch   3 pq = [   13301,   16290] index = [      88464951,132690195] size =     44225244
	Batch   4 pq = [   16290,   18810] index = [     132690195,176917455] size =     44227260
	Batch   5 pq = [   18810,   21030] index = [     176917455,221140965] size =     44223510
	Batch   6 pq = [   21030,   22155] index = [     221140965,245433090] size =     24292125
  Task number: 23
  Buffer size: 11059200
  Buffer per thread: 2
  We computed 13707656 shell quartets total.
  Whereas there are 13799631 unique shell quartets.

  ==> DiskJK: Disk-Based J/K Matrices <==

    J tasked:                  Yes
    K tasked:                  Yes
    wK tasked:                  No
    Memory [MiB]:              375
    Schwarz Cutoff:          1E-12

    OpenMP threads:              1

  Minimum eigenvalue in the overlap matrix is 3.2211637512E-04.
  Using Symmetric Orthogonalization.

  SCF Guess: Superposition of Atomic Densities via on-the-fly atomic UHF.

  ==> Iterations <==

                        Total Energy        Delta E     RMS |[F,P]|

   @RHF iter SAD:  -422.66274385026594   -4.22663e+02   0.00000e+00
   @RHF iter   1:  -423.59986586383906   -9.37122e-01   2.98107e-03 DIIS
   @RHF iter   2:  -423.81682372212998   -2.16958e-01   1.25737e-03 DIIS
   @RHF iter   3:  -423.85178978478973   -3.49661e-02   2.76838e-04 DIIS
   @RHF iter   4:  -423.85461987606561   -2.83009e-03   1.07853e-04 DIIS
   @RHF iter   5:  -423.85491715729830   -2.97281e-04   2.16376e-05 DIIS
   @RHF iter   6:  -423.85493519992633   -1.80426e-05   6.51899e-06 DIIS
   @RHF iter   7:  -423.85493686009465   -1.66017e-06   2.02062e-06 DIIS
   @RHF iter   8:  -423.85493706132576   -2.01231e-07   7.31022e-07 DIIS
   @RHF iter   9:  -423.85493708727222   -2.59465e-08   2.52129e-07 DIIS
   @RHF iter  10:  -423.85493709061313   -3.34092e-09   8.67218e-08 DIIS
   @RHF iter  11:  -423.85493709127547   -6.62340e-10   3.93969e-08 DIIS
   @RHF iter  12:  -423.85493709144782   -1.72349e-10   2.29545e-08 DIIS
   @RHF iter  13:  -423.85493709150319   -5.53655e-11   8.32700e-09 DIIS
   @RHF iter  14:  -423.85493709151132   -8.12861e-12   2.21809e-09 DIIS
   @RHF iter  15:  -423.85493709151001    1.30740e-12   7.25104e-10 DIIS
   @RHF iter  16:  -423.85493709151245   -2.44427e-12   2.11422e-10 DIIS
   @RHF iter  17:  -423.85493709150995    2.50111e-12   7.81669e-11 DIIS
  Energy and wave function converged.

  ==> Post-Iterations <==

    Orbital Energies [Eh]
    ---------------------

    Doubly Occupied:

       1A    -20.585550     2A    -11.299194     3A    -11.240565
       4A    -11.238270     5A    -11.237119     6A    -11.234013
       7A    -11.230860     8A    -11.228181     9A    -11.211713
      10A    -11.209262    11A     -1.401199    12A     -1.149255
      13A     -1.034312    14A     -1.019100    15A     -1.013169
      16A     -0.926334    17A     -0.843194    18A     -0.827589
      19A     -0.803385    20A     -0.732669    21A     -0.666811
      22A     -0.641143    23A     -0.608869    24A     -0.598583
      25A     -0.594130    26A     -0.586402    27A     -0.580813
      28A     -0.571536    29A     -0.563930    30A     -0.527529
      31A     -0.498874    32A     -0.493576    33A     -0.483616
      34A     -0.481131    35A     -0.476944    36A     -0.463151
      37A     -0.339973    38A     -0.300184

    Virtual:

      39A      0.130324    40A      0.152413    41A      0.166293
      42A      0.183041    43A      0.206402    44A      0.214280
      45A      0.217249    46A      0.245825    47A      0.257588
      48A      0.261928    49A      0.268910    50A      0.272575
      51A      0.285509    52A      0.290440    53A      0.310159
      54A      0.320654    55A      0.366731    56A      0.374768
      57A      0.403957    58A      0.427191    59A      0.451115
      60A      0.487981    61A      0.491735    62A      0.510226
      63A      0.580612    64A      0.589675    65A      0.602632
      66A      0.617679    67A      0.627904    68A      0.644249
      69A      0.652462    70A      0.661763    71A      0.675733
      72A      0.697867    73A      0.712175    74A      0.728420
      75A      0.736112    76A      0.766958    77A      0.769308
      78A      0.784882    79A      0.790451    80A      0.804656
      81A      0.829130    82A      0.849072    83A      0.852185
      84A      0.857013    85A      0.864413    86A      0.873849
      87A      0.886595    88A      0.891343    89A      0.898634
      90A      0.903967    91A      0.912624    92A      0.914506
      93A      0.923905    94A      0.932760    95A      0.942814
      96A      0.948888    97A      0.965787    98A      0.992207
      99A      0.999455   100A      1.017852   101A      1.050958
     102A      1.107434   103A      1.125603   104A      1.130211
     105A      1.140136   106A      1.145045   107A      1.150530
     108A      1.181787   109A      1.205914   110A      1.233359
     111A      1.243389   112A      1.259820   113A      1.271588
     114A      1.280483   115A      1.300539   116A      1.313688
     117A      1.334250   118A      1.361588   119A      1.365904
     120A      1.389387   121A      1.479011   122A      1.482021
     123A      1.494435   124A      1.510811   125A      1.512716
     126A      1.551597   127A      1.584166   128A      1.626023
     129A      1.637023   130A      1.672127   131A      1.685064
     132A      1.692623   133A      1.698368   134A      1.742477
     135A      1.742925   136A      1.785381   137A      1.816050
     138A      1.827490   139A      1.861861   140A      1.865844
     141A      1.878373   142A      1.880748   143A      1.897376
     144A      1.904985   145A      1.918470   146A      1.926856
     147A      1.937369   148A      1.947724   149A      1.951532
     150A      1.952026   151A      1.956886   152A      1.967849
     153A      1.973005   154A      1.979549   155A      1.992760
     156A      2.006134   157A      2.031046   158A      2.053748
     159A      2.063110   160A      2.073095   161A      2.082789
     162A      2.110082   163A      2.129368   164A      2.134473
     165A      2.150269   166A      2.179408   167A      2.196159
     168A      2.213630   169A      2.253479   170A      2.272475
     171A      2.297281   172A      2.306239   173A      2.321423
     174A      2.357291   175A      2.376009   176A      2.394057
     177A      2.440105   178A      2.467140   179A      2.472747
     180A      2.479791   181A      2.488267   182A      2.531053
     183A      2.551981   184A      2.583497   185A      2.589377
     186A      2.610424   187A      2.637799   188A      2.731604
     189A      2.766196   190A      2.778382   191A      2.785680
     192A      2.803707   193A      2.806981   194A      2.839855
     195A      2.858061   196A      2.870117   197A      2.889569
     198A      2.956071   199A      2.965328   200A      2.996012
     201A      3.006947   202A      3.085428   203A      3.114963
     204A      3.248976   205A      3.281600   206A      3.353679
     207A      3.576667   208A      3.668860   209A      3.964086
     210A      4.179064

    Final Occupation by Irrep:
              A
    DOCC [    38 ]

  @RHF Final Energy:  -423.85493709150995

   => Energetics <=

    Nuclear Repulsion Energy =            512.1526464931430382
    One-Electron Energy =               -1590.1309119089462456
    Two-Electron Energy =                 654.1233283242931975
    Total Energy =                       -423.8549370915100099

Computation Completed

Properties will be evaluated at   0.000000,   0.000000,   0.000000 [a0]

Properties computed using the SCF density matrix

  Nuclear Dipole Moment: [e a0]
     X:    -4.8325      Y:     9.6846      Z:     3.0631

  Electronic Dipole Moment: [e a0]
     X:     4.3538      Y:    -9.7108      Z:    -2.8217

  Dipole Moment: [e a0]
     X:    -0.4788      Y:    -0.0262      Z:     0.2414     Total:     0.5368

  Dipole Moment: [D]
     X:    -1.2169      Y:    -0.0665      Z:     0.6135     Total:     1.3644

*** tstop() called on ds3 at Mon Apr 27 22:17:14 2020
Module time:
	user time   =     101.97 seconds =       1.70 minutes
	system time =      39.17 seconds =       0.65 minutes
	total time  =        137 seconds =       2.28 minutes
Total time:
	user time   =     101.97 seconds =       1.70 minutes
	system time =      39.17 seconds =       0.65 minutes
	total time  =        137 seconds =       2.28 minutes
                                     G D M A

                                 by Anthony Stone

                           version 2.2.06, 22 June 2011

               Distributed Multipoles from Gaussian wavefunctions

Starting at 22:17:14 on 27 Apr 2020

Using SCF density matrix from file ./SSI/SSI-161TYR-201ALA-1-dimer.test.3943.fchk

                         Distributed Multipole Analysis

Standard DMA

Positions and radii in angstrom
Multipole moments in atomic units, ea_0^k for rank k

C          x = -2.191487  y = -0.040644  z = -2.447971 angstrom
           Maximum rank =  0   Radius =  0.650 angstrom
                   Q00  =  -0.206938

C          x = -0.351487  y = -1.114644  z =  0.744029 angstrom
           Maximum rank =  0   Radius =  0.650 angstrom
                   Q00  =  -0.188552

C          x = -1.367487  y = -0.809644  z = -0.159971 angstrom
           Maximum rank =  0   Radius =  0.650 angstrom
                   Q00  =  -0.048551

C          x =  0.977513  y = -0.942644  z =  0.366029 angstrom
           Maximum rank =  0   Radius =  0.650 angstrom
                   Q00  =   0.323529

C          x = -1.078487  y = -0.361644  z = -1.459971 angstrom
           Maximum rank =  0   Radius =  0.650 angstrom
                   Q00  =  -0.138135

C          x =  1.279513  y = -0.488644  z = -0.915971 angstrom
           Maximum rank =  0   Radius =  0.650 angstrom
                   Q00  =  -0.053561

C          x =  0.269513  y = -0.197644  z = -1.810971 angstrom
           Maximum rank =  0   Radius =  0.650 angstrom
                   Q00  =   0.000966

O          x =  1.990513  y = -1.212644  z =  1.225029 angstrom
           Maximum rank =  0   Radius =  0.650 angstrom
                   Q00  =  -0.674209

H          x = -0.588487  y = -1.456644  z =  1.741029 angstrom
           Maximum rank =  0   Radius =  0.325 angstrom
                   Q00  =   0.072926

H          x = -2.396487  y = -0.907644  z =  0.156029 angstrom
           Maximum rank =  0   Radius =  0.325 angstrom
                   Q00  =   0.067818

H          x =  1.683513  y = -1.344644  z =  2.141029 angstrom
           Maximum rank =  0   Radius =  0.325 angstrom
                   Q00  =   0.412035

H          x =  2.313513  y = -0.366644  z = -1.205971 angstrom
           Maximum rank =  0   Radius =  0.325 angstrom
                   Q00  =   0.079418

H          x = -1.751487  y =  0.226356  z = -3.409971 angstrom
           Maximum rank =  0   Radius =  0.325 angstrom
                   Q00  =   0.098301

H          x = -2.715487  y =  0.840356  z = -2.071971 angstrom
           Maximum rank =  0   Radius =  0.325 angstrom
                   Q00  =   0.097891

H          x =  0.528513  y =  0.145356  z = -2.803971 angstrom
           Maximum rank =  0   Radius =  0.325 angstrom
                   Q00  =   0.064244

H          x = -2.917937  y = -0.852734  z = -2.598922 angstrom
           Maximum rank =  0   Radius =  0.325 angstrom
                   Q00  =   0.101431

C          x = -0.278487  y =  2.085356  z =  2.478029 angstrom
           Maximum rank =  0   Radius =  0.650 angstrom
                   Q00  =  -0.226495

C          x =  0.521513  y =  2.618356  z =  1.300029 angstrom
           Maximum rank =  0   Radius =  0.650 angstrom
                   Q00  =  -0.236138

H          x =  0.014513  y =  2.598356  z =  3.395029 angstrom
           Maximum rank =  0   Radius =  0.325 angstrom
                   Q00  =   0.071001

H          x = -1.345487  y =  2.238356  z =  2.303029 angstrom
           Maximum rank =  0   Radius =  0.325 angstrom
                   Q00  =   0.076300

H          x = -0.092487  y =  1.017356  z =  2.598029 angstrom
           Maximum rank =  0   Radius =  0.325 angstrom
                   Q00  =   0.064603

H          x =  0.248513  y =  2.037356  z =  0.415029 angstrom
           Maximum rank =  0   Radius =  0.325 angstrom
                   Q00  =   0.091564

H          x =  1.596023  y =  2.493586  z =  1.499657 angstrom
           Maximum rank =  0   Radius =  0.325 angstrom
                   Q00  =   0.076780

H          x =  0.258183  y =  3.668056  z =  1.103075 angstrom
           Maximum rank =  0   Radius =  0.325 angstrom
                   Q00  =   0.073773

Total multipoles referred to origin at
           x =   0.000000,  y =    0.000000,  z =    0.000000 angstrom
                   Q00  =  -0.000000

Finished at 22:17:14 on 27 Apr 2020

  DMA results are available in the Python driver through the
	  variable('DMA DISTRIBUTED MULTIPOLES')
  and
	  variable('DMA TOTAL MULTIPOLES')
  commands.

    Psi4 stopped on: Monday, 27 April 2020 10:17PM
    Psi4 wall time for execution: 0:02:16.76

*** Psi4 exiting successfully. Buy a developer a beer!
