                               Psi4 1.3.2 release

  ==> Input File <==

--------------------------------------------------------------------------
import numpy as np
set {scf_type pk
basis cc-pvdz
d_convergence 10
gdma_switch   0
gdma_limit    0
gdma_origin   [ 0.0,  0.0,  0.0 ]
}
molecule test {
    units Angstrom
    -1 1
    --
    -1 1
    C                2.023633468532317    -0.443176441685621     2.195228411345930
    C                2.605633468532316    -1.333176441685621     3.293228411345930
    H                0.982633468532316    -0.701176441685621     2.017228411345930
    H                2.072633468532317     0.599823558314379     2.508228411345930
    H                2.631633468532316    -0.529176441685621     1.307228411345930
    H                3.694633468532316    -1.322176441685621     3.223228411345930
    H                2.227397468532316    -2.361746441685621     3.198488411345930
    H                2.310433468532317    -0.902736441685621     4.261518411345931
    C               -0.205366531467684     0.571823558314379    -0.381771588654070
    C                0.777633468532316     1.345823558314379    -1.268771588654070
    C               -1.440366531467683     0.091823558314379    -1.130771588654070
    O               -1.919366531467684     0.796823558314379    -2.049771588654070
    O               -1.952366531467684    -0.993176441685621    -0.773771588654070
    H                0.312633468532316    -0.298176441685621     0.015228411345930
    H               -0.531366531467684     1.196823558314379     0.450228411345930
    H                0.235633468532316     2.180823558314379    -1.713771588654070
    H                1.171540468532317     0.695083558314379    -2.063361588654070
    H                1.555832468532317     1.783203558314379    -0.626041588654070

}
e, wfn = energy('scf', return_wfn=True)
gdma(wfn)
dmavals = variable('DMA DISTRIBUTED MULTIPOLES')
charges = np.array(dmavals)
print(charges)
np.save('SSI-015THR-019ASP-1-dimer.npy', np.array(charges))--------------------------------------------------------------------------

*** tstart() called on ds3
*** at Mon Apr 27 07:27:26 2020

   => Loading Basis Set <=

    Name: CC-PVDZ
    Role: ORBITAL
    Keyword: BASIS
    atoms 1-2, 9-11  entry C          line   138 file /theoryfs2/ds/metcalf/miniconda2/envs/tf2gpu/share/psi4/basis/cc-pvdz.gbs
    atoms 3-8, 14-18 entry H          line    22 file /theoryfs2/ds/metcalf/miniconda2/envs/tf2gpu/share/psi4/basis/cc-pvdz.gbs
    atoms 12-13      entry O          line   198 file /theoryfs2/ds/metcalf/miniconda2/envs/tf2gpu/share/psi4/basis/cc-pvdz.gbs

         ---------------------------------------------------------
                                   SCF
               by Justin Turney, Rob Parrish, Andy Simmonett
                          and Daniel G. A. Smith
                              RHF Reference
                        1 Threads,    500 MiB Core
         ---------------------------------------------------------

  ==> Geometry <==

    Molecular point group: c1
    Full point group: C1

    Geometry (in Angstrom), charge = -1, multiplicity = 1:

       Center              X                  Y                   Z               Mass
    ------------   -----------------  -----------------  -----------------  -----------------
         C            2.023633468532    -0.443176441686     2.195228411346    12.000000000000
         C            2.605633468532    -1.333176441686     3.293228411346    12.000000000000
         H            0.982633468532    -0.701176441686     2.017228411346     1.007825032230
         H            2.072633468532     0.599823558314     2.508228411346     1.007825032230
         H            2.631633468532    -0.529176441686     1.307228411346     1.007825032230
         H            3.694633468532    -1.322176441686     3.223228411346     1.007825032230
         H            2.227397468532    -2.361746441686     3.198488411346     1.007825032230
         H            2.310433468532    -0.902736441686     4.261518411346     1.007825032230
         C           -0.205366531468     0.571823558314    -0.381771588654    12.000000000000
         C            0.777633468532     1.345823558314    -1.268771588654    12.000000000000
         C           -1.440366531468     0.091823558314    -1.130771588654    12.000000000000
         O           -1.919366531468     0.796823558314    -2.049771588654    15.994914619570
         O           -1.952366531468    -0.993176441686    -0.773771588654    15.994914619570
         H            0.312633468532    -0.298176441686     0.015228411346     1.007825032230
         H           -0.531366531468     1.196823558314     0.450228411346     1.007825032230
         H            0.235633468532     2.180823558314    -1.713771588654     1.007825032230
         H            1.171540468532     0.695083558314    -2.063361588654     1.007825032230
         H            1.555832468532     1.783203558314    -0.626041588654     1.007825032230

  Running in c1 symmetry.

  Rotational constants: A =      0.13867  B =      0.02527  C =      0.02192 [cm^-1]
  Rotational constants: A =   4157.24945  B =    757.71284  C =    657.06241 [MHz]
  Nuclear repulsion =  284.384921580855064

  Charge       = -1
  Multiplicity = 1
  Electrons    = 58
  Nalpha       = 29
  Nbeta        = 29

  ==> Algorithm <==

  SCF Algorithm Type is PK.
  DIIS enabled.
  MOM disabled.
  Fractional occupation disabled.
  Guess Type is SAD.
  Energy threshold   = 1.00e-06
  Density threshold  = 1.00e-10
  Integral threshold = 0.00e+00

  ==> Primary Basis <==

  Basis Set: CC-PVDZ
    Blend: CC-PVDZ
    Number of shells: 75
    Number of basis function: 153
    Number of Cartesian functions: 160
    Spherical Harmonics?: true
    Max angular momentum: 2

  ==> Pre-Iterations <==

   -------------------------------------------------------
    Irrep   Nso     Nmo     Nalpha   Nbeta   Ndocc  Nsocc
   -------------------------------------------------------
     A        153     153       0       0       0       0
   -------------------------------------------------------
    Total     153     153      29      29      29       0
   -------------------------------------------------------

  ==> Integral Setup <==

  Using integral reordering PK algorithm.
  Sizing the integral batches needed.
  Building batch lookup table.
   Calculation information:
      Number of atoms:                  18
      Number of AO shells:              75
      Number of primitives:            209
      Number of atomic orbitals:       160
      Number of basis functions:       153

      Integral cutoff                 1.00e-12
      Number of threads:                 1

	Batch   1 pq = [       0,    9405] index = [             0,44231715] size =     44231715
	Batch   2 pq = [    9405,   11781] index = [      44231715,69401871] size =     25170156
  Task number: 7
  Buffer size: 11059200
  Buffer per thread: 2
  We computed 3260610 shell quartets total.
  Whereas there are 4062675 unique shell quartets.

  ==> DiskJK: Disk-Based J/K Matrices <==

    J tasked:                  Yes
    K tasked:                  Yes
    wK tasked:                  No
    Memory [MiB]:              375
    Schwarz Cutoff:          1E-12

    OpenMP threads:              1

  Minimum eigenvalue in the overlap matrix is 3.6232136860E-03.
  Using Symmetric Orthogonalization.

  SCF Guess: Superposition of Atomic Densities via on-the-fly atomic UHF.

  ==> Iterations <==

                        Total Energy        Delta E     RMS |[F,P]|

   @RHF iter SAD:  -343.87165082638040   -3.43872e+02   0.00000e+00
   @RHF iter   1:  -345.21619049791190   -1.34454e+00   4.90832e-03 DIIS
   @RHF iter   2:  -345.43726821552718   -2.21078e-01   2.70637e-03 DIIS
   @RHF iter   3:  -345.50159949107160   -6.43313e-02   4.26630e-04 DIIS
   @RHF iter   4:  -345.50461279137755   -3.01330e-03   1.67011e-04 DIIS
   @RHF iter   5:  -345.50505331947522   -4.40528e-04   2.42877e-05 DIIS
   @RHF iter   6:  -345.50506677171677   -1.34522e-05   5.70656e-06 DIIS
   @RHF iter   7:  -345.50506739343444   -6.21718e-07   2.33832e-06 DIIS
   @RHF iter   8:  -345.50506746866517   -7.52307e-08   7.26168e-07 DIIS
   @RHF iter   9:  -345.50506747762421   -8.95903e-09   2.49589e-07 DIIS
   @RHF iter  10:  -345.50506747897037   -1.34617e-09   5.60319e-08 DIIS
   @RHF iter  11:  -345.50506747907968   -1.09310e-10   1.68063e-08 DIIS
   @RHF iter  12:  -345.50506747908912   -9.43601e-12   6.36628e-09 DIIS
   @RHF iter  13:  -345.50506747909117   -2.04636e-12   2.45744e-09 DIIS
   @RHF iter  14:  -345.50506747909128   -1.13687e-13   7.61663e-10 DIIS
   @RHF iter  15:  -345.50506747909105    2.27374e-13   2.55861e-10 DIIS
   @RHF iter  16:  -345.50506747909174   -6.82121e-13   8.34913e-11 DIIS
  Energy and wave function converged.

  ==> Post-Iterations <==

    Orbital Energies [Eh]
    ---------------------

    Doubly Occupied:

       1A    -20.254017     2A    -20.250788     3A    -11.136250
       4A    -11.119082     5A    -11.107191     6A    -11.071069
       7A    -11.048407     8A     -1.141954     9A     -1.027800
      10A     -0.931122    11A     -0.867338    12A     -0.747177
      13A     -0.698100    14A     -0.515742    15A     -0.510378
      16A     -0.501732    17A     -0.457158    18A     -0.426136
      19A     -0.408021    20A     -0.401000    21A     -0.392452
      22A     -0.381299    23A     -0.362297    24A     -0.354960
      25A     -0.315139    26A     -0.294574    27A     -0.175439
      28A     -0.164514    29A     -0.153906

    Virtual:

      30A      0.268935    31A      0.305750    32A      0.324704
      33A      0.336659    34A      0.360761    35A      0.373234
      36A      0.385034    37A      0.399183    38A      0.413548
      39A      0.426746    40A      0.446173    41A      0.479172
      42A      0.492659    43A      0.551724    44A      0.603261
      45A      0.686565    46A      0.690070    47A      0.693323
      48A      0.717848    49A      0.749199    50A      0.762558
      51A      0.783020    52A      0.806211    53A      0.840903
      54A      0.879225    55A      0.934035    56A      0.963364
      57A      0.964635    58A      0.974575    59A      0.983802
      60A      0.994305    61A      0.997981    62A      1.013088
      63A      1.025565    64A      1.041107    65A      1.051308
      66A      1.057029    67A      1.064022    68A      1.070292
      69A      1.088834    70A      1.106380    71A      1.117364
      72A      1.151790    73A      1.201267    74A      1.239799
      75A      1.248880    76A      1.307853    77A      1.320310
      78A      1.334931    79A      1.400013    80A      1.490351
      81A      1.532001    82A      1.558352    83A      1.572930
      84A      1.587493    85A      1.608727    86A      1.613569
      87A      1.648258    88A      1.676826    89A      1.683457
      90A      1.709426    91A      1.758596    92A      1.786131
      93A      1.796720    94A      1.829758    95A      1.898292
      96A      1.914521    97A      1.950870    98A      1.963924
      99A      1.994206   100A      2.014169   101A      2.020154
     102A      2.027694   103A      2.036706   104A      2.050741
     105A      2.062873   106A      2.088661   107A      2.108913
     108A      2.116547   109A      2.129016   110A      2.144975
     111A      2.175457   112A      2.203387   113A      2.229168
     114A      2.245503   115A      2.270281   116A      2.283692
     117A      2.372743   118A      2.381641   119A      2.393131
     120A      2.450685   121A      2.459642   122A      2.479624
     123A      2.516449   124A      2.531788   125A      2.557405
     126A      2.577671   127A      2.670774   128A      2.689467
     129A      2.692137   130A      2.720627   131A      2.765169
     132A      2.826462   133A      2.845378   134A      2.899074
     135A      2.906518   136A      2.917951   137A      2.925069
     138A      2.982411   139A      3.012687   140A      3.037625
     141A      3.043016   142A      3.068430   143A      3.142777
     144A      3.255290   145A      3.293457   146A      3.307774
     147A      3.368918   148A      3.644597   149A      3.780297
     150A      3.832120   151A      4.056619   152A      4.084828
     153A      4.207527

    Final Occupation by Irrep:
              A
    DOCC [    29 ]

  @RHF Final Energy:  -345.50506747909174

   => Energetics <=

    Nuclear Repulsion Energy =            284.3849215808550639
    One-Electron Energy =               -1045.3499002851024215
    Two-Electron Energy =                 415.4599112251556789
    Total Energy =                       -345.5050674790917355

Computation Completed

Properties will be evaluated at   0.000000,   0.000000,   0.000000 [a0]

Properties computed using the SCF density matrix

  Nuclear Dipole Moment: [e a0]
     X:    15.6030      Y:     0.3183      Z:    11.7781

  Electronic Dipole Moment: [e a0]
     X:   -12.1232      Y:    -0.1037      Z:    -9.1242

  Dipole Moment: [e a0]
     X:     3.4799      Y:     0.2147      Z:     2.6539     Total:     4.3817

  Dipole Moment: [D]
     X:     8.8450      Y:     0.5456      Z:     6.7457     Total:    11.1371

*** tstop() called on ds3 at Mon Apr 27 07:27:59 2020
Module time:
	user time   =      22.92 seconds =       0.38 minutes
	system time =      11.35 seconds =       0.19 minutes
	total time  =         33 seconds =       0.55 minutes
Total time:
	user time   =      22.92 seconds =       0.38 minutes
	system time =      11.35 seconds =       0.19 minutes
	total time  =         33 seconds =       0.55 minutes
                                     G D M A

                                 by Anthony Stone

                           version 2.2.06, 22 June 2011

               Distributed Multipoles from Gaussian wavefunctions

Starting at 7:27:59 on 27 Apr 2020

Using SCF density matrix from file ./SSI/SSI-015THR-019ASP-1-dimer.test.12205.fchk

                         Distributed Multipole Analysis

Standard DMA

Positions and radii in angstrom
Multipole moments in atomic units, ea_0^k for rank k

C          x =  2.023633  y = -0.443176  z =  2.195228 angstrom
           Maximum rank =  0   Radius =  0.650 angstrom
                   Q00  =  -0.222945

C          x =  2.605633  y = -1.333176  z =  3.293228 angstrom
           Maximum rank =  0   Radius =  0.650 angstrom
                   Q00  =  -0.237241

H          x =  0.982633  y = -0.701176  z =  2.017228 angstrom
           Maximum rank =  0   Radius =  0.325 angstrom
                   Q00  =   0.108910

H          x =  2.072633  y =  0.599824  z =  2.508228 angstrom
           Maximum rank =  0   Radius =  0.325 angstrom
                   Q00  =   0.069807

H          x =  2.631633  y = -0.529176  z =  1.307228 angstrom
           Maximum rank =  0   Radius =  0.325 angstrom
                   Q00  =   0.076560

H          x =  3.694633  y = -1.322176  z =  3.223228 angstrom
           Maximum rank =  0   Radius =  0.325 angstrom
                   Q00  =   0.061865

H          x =  2.227397  y = -2.361746  z =  3.198488 angstrom
           Maximum rank =  0   Radius =  0.325 angstrom
                   Q00  =   0.079744

H          x =  2.310433  y = -0.902736  z =  4.261518 angstrom
           Maximum rank =  0   Radius =  0.325 angstrom
                   Q00  =   0.069234

C          x = -0.205367  y =  0.571824  z = -0.381772 angstrom
           Maximum rank =  0   Radius =  0.650 angstrom
                   Q00  =  -0.146935

C          x =  0.777633  y =  1.345824  z = -1.268772 angstrom
           Maximum rank =  0   Radius =  0.650 angstrom
                   Q00  =  -0.217665

C          x = -1.440367  y =  0.091824  z = -1.130772 angstrom
           Maximum rank =  0   Radius =  0.650 angstrom
                   Q00  =   1.027160

O          x = -1.919367  y =  0.796824  z = -2.049772 angstrom
           Maximum rank =  0   Radius =  0.650 angstrom
                   Q00  =  -0.962257

O          x = -1.952367  y = -0.993176  z = -0.773772 angstrom
           Maximum rank =  0   Radius =  0.650 angstrom
                   Q00  =  -0.946792

H          x =  0.312633  y = -0.298176  z =  0.015228 angstrom
           Maximum rank =  0   Radius =  0.325 angstrom
                   Q00  =   0.015882

H          x = -0.531367  y =  1.196824  z =  0.450228 angstrom
           Maximum rank =  0   Radius =  0.325 angstrom
                   Q00  =   0.051610

H          x =  0.235633  y =  2.180824  z = -1.713772 angstrom
           Maximum rank =  0   Radius =  0.325 angstrom
                   Q00  =   0.087765

H          x =  1.171540  y =  0.695084  z = -2.063362 angstrom
           Maximum rank =  0   Radius =  0.325 angstrom
                   Q00  =   0.069862

H          x =  1.555832  y =  1.783204  z = -0.626042 angstrom
           Maximum rank =  0   Radius =  0.325 angstrom
                   Q00  =   0.015435

Total multipoles referred to origin at
           x =   0.000000,  y =    0.000000,  z =    0.000000 angstrom
                   Q00  =  -1.000000

Finished at 7:27:59 on 27 Apr 2020

  DMA results are available in the Python driver through the
	  variable('DMA DISTRIBUTED MULTIPOLES')
  and
	  variable('DMA TOTAL MULTIPOLES')
  commands.

    Psi4 stopped on: Monday, 27 April 2020 07:27AM
    Psi4 wall time for execution: 0:00:33.10

*** Psi4 exiting successfully. Buy a developer a beer!
