                               Psi4 1.3.2 release

  ==> Input File <==

--------------------------------------------------------------------------
import numpy as np
set {scf_type pk
basis cc-pvdz
d_convergence 10
gdma_switch   0
gdma_limit    0
gdma_origin   [ 0.0,  0.0,  0.0 ]
}
molecule test {
    units Angstrom
    0 1
    --
    0 1
    C                2.583259728343430    -1.182978590274954     0.172596595448096
    C                3.164259728343430    -0.482978590274954     1.398596595448096
    H                1.670259728343430    -1.720978590274954     0.425596595448096
    H                2.390259728343430    -0.440978590274954    -0.593403404551904
    H                3.310259728343430    -1.879978590274954    -0.244403404551904
    H                3.930259728343430     0.215021409725046     1.063596595448096
    H                3.631774728343431    -1.223510590274953     2.064206595448096
    H                2.383863728343430     0.074860409725046     1.936926595448096
    C               -0.771740271656569    -1.592978590274953    -1.841403404551904
    C               -0.869740271656569    -0.442978590274954    -0.867403404551904
    C               -1.888740271656569    -0.414978590274954     0.079596595448096
    C                0.047259728343431     0.607021409725046    -0.904403404551904
    C               -1.986740271656570     0.637021409725046     0.991596595448096
    C               -0.052740271656569     1.667021409725047     0.000596595448096
    C               -1.068740271656569     1.679021409725047     0.948596595448096
    H               -1.275740271656569    -2.461978590274954    -1.413403404551904
    H                0.278259728343431    -1.850978590274953    -1.952403404551904
    H               -2.610740271656569    -1.218978590274953     0.119596595448096
    H                0.827259728343431     0.622021409725046    -1.652403404551904
    H               -2.781740271656570     0.645021409725047     1.726596595448096
    H                0.652259728343431     2.486021409725046    -0.046403404551904
    H               -1.147740271656569     2.500021409725046     1.649596595448096
    H               -1.213151271656569    -1.379809590274953    -2.826143404551904

}
e, wfn = energy('scf', return_wfn=True)
gdma(wfn)
dmavals = variable('DMA DISTRIBUTED MULTIPOLES')
charges = np.array(dmavals)
print(charges)
np.save('SSI-036LEU-046PHE-2-dimer.npy', np.array(charges))--------------------------------------------------------------------------

*** tstart() called on ds3
*** at Sun Apr 26 18:25:44 2020

   => Loading Basis Set <=

    Name: CC-PVDZ
    Role: ORBITAL
    Keyword: BASIS
    atoms 1-2, 9-15  entry C          line   138 file /theoryfs2/ds/metcalf/miniconda2/envs/tf2gpu/share/psi4/basis/cc-pvdz.gbs
    atoms 3-8, 16-23 entry H          line    22 file /theoryfs2/ds/metcalf/miniconda2/envs/tf2gpu/share/psi4/basis/cc-pvdz.gbs

         ---------------------------------------------------------
                                   SCF
               by Justin Turney, Rob Parrish, Andy Simmonett
                          and Daniel G. A. Smith
                              RHF Reference
                        1 Threads,    500 MiB Core
         ---------------------------------------------------------

  ==> Geometry <==

    Molecular point group: c1
    Full point group: C1

    Geometry (in Angstrom), charge = 0, multiplicity = 1:

       Center              X                  Y                   Z               Mass
    ------------   -----------------  -----------------  -----------------  -----------------
         C            2.583259728343    -1.182978590275     0.172596595448    12.000000000000
         C            3.164259728343    -0.482978590275     1.398596595448    12.000000000000
         H            1.670259728343    -1.720978590275     0.425596595448     1.007825032230
         H            2.390259728343    -0.440978590275    -0.593403404552     1.007825032230
         H            3.310259728343    -1.879978590275    -0.244403404552     1.007825032230
         H            3.930259728343     0.215021409725     1.063596595448     1.007825032230
         H            3.631774728343    -1.223510590275     2.064206595448     1.007825032230
         H            2.383863728343     0.074860409725     1.936926595448     1.007825032230
         C           -0.771740271657    -1.592978590275    -1.841403404552    12.000000000000
         C           -0.869740271657    -0.442978590275    -0.867403404552    12.000000000000
         C           -1.888740271657    -0.414978590275     0.079596595448    12.000000000000
         C            0.047259728343     0.607021409725    -0.904403404552    12.000000000000
         C           -1.986740271657     0.637021409725     0.991596595448    12.000000000000
         C           -0.052740271657     1.667021409725     0.000596595448    12.000000000000
         C           -1.068740271657     1.679021409725     0.948596595448    12.000000000000
         H           -1.275740271657    -2.461978590275    -1.413403404552     1.007825032230
         H            0.278259728343    -1.850978590275    -1.952403404552     1.007825032230
         H           -2.610740271657    -1.218978590275     0.119596595448     1.007825032230
         H            0.827259728343     0.622021409725    -1.652403404552     1.007825032230
         H           -2.781740271657     0.645021409725     1.726596595448     1.007825032230
         H            0.652259728343     2.486021409725    -0.046403404552     1.007825032230
         H           -1.147740271657     2.500021409725     1.649596595448     1.007825032230
         H           -1.213151271657    -1.379809590275    -2.826143404552     1.007825032230

  Running in c1 symmetry.

  Rotational constants: A =      0.06078  B =      0.03475  C =      0.02655 [cm^-1]
  Rotational constants: A =   1822.05960  B =   1041.67870  C =    795.94850 [MHz]
  Nuclear repulsion =  419.840615425588226

  Charge       = 0
  Multiplicity = 1
  Electrons    = 68
  Nalpha       = 34
  Nbeta        = 34

  ==> Algorithm <==

  SCF Algorithm Type is PK.
  DIIS enabled.
  MOM disabled.
  Fractional occupation disabled.
  Guess Type is SAD.
  Energy threshold   = 1.00e-06
  Density threshold  = 1.00e-10
  Integral threshold = 0.00e+00

  ==> Primary Basis <==

  Basis Set: CC-PVDZ
    Blend: CC-PVDZ
    Number of shells: 96
    Number of basis function: 196
    Number of Cartesian functions: 205
    Spherical Harmonics?: true
    Max angular momentum: 2

  ==> Pre-Iterations <==

   -------------------------------------------------------
    Irrep   Nso     Nmo     Nalpha   Nbeta   Ndocc  Nsocc
   -------------------------------------------------------
     A        196     196       0       0       0       0
   -------------------------------------------------------
    Total     196     196      34      34      34       0
   -------------------------------------------------------

  ==> Integral Setup <==

  Using integral reordering PK algorithm.
  Sizing the integral batches needed.
  Building batch lookup table.
   Calculation information:
      Number of atoms:                  23
      Number of AO shells:              96
      Number of primitives:            268
      Number of atomic orbitals:       205
      Number of basis functions:       196

      Integral cutoff                 1.00e-12
      Number of threads:                 1

	Batch   1 pq = [       0,    9405] index = [             0,44231715] size =     44231715
	Batch   2 pq = [    9405,   13301] index = [      44231715,88464951] size =     44233236
	Batch   3 pq = [   13301,   16290] index = [      88464951,132690195] size =     44225244
	Batch   4 pq = [   16290,   18810] index = [     132690195,176917455] size =     44227260
	Batch   5 pq = [   18810,   19306] index = [     176917455,186370471] size =      9453016
  Task number: 17
  Buffer size: 11059200
  Buffer per thread: 2
  We computed 10545996 shell quartets total.
  Whereas there are 10841496 unique shell quartets.

  ==> DiskJK: Disk-Based J/K Matrices <==

    J tasked:                  Yes
    K tasked:                  Yes
    wK tasked:                  No
    Memory [MiB]:              375
    Schwarz Cutoff:          1E-12

    OpenMP threads:              1

  Minimum eigenvalue in the overlap matrix is 3.0807186452E-04.
  Using Symmetric Orthogonalization.

  SCF Guess: Superposition of Atomic Densities via on-the-fly atomic UHF.

  ==> Iterations <==

                        Total Energy        Delta E     RMS |[F,P]|

   @RHF iter SAD:  -347.89917494510530   -3.47899e+02   0.00000e+00
   @RHF iter   1:  -348.76252718150795   -8.63352e-01   2.90113e-03 DIIS
   @RHF iter   2:  -348.95535631353880   -1.92829e-01   1.21154e-03 DIIS
   @RHF iter   3:  -348.98604997063944   -3.06937e-02   2.61237e-04 DIIS
   @RHF iter   4:  -348.98856614880907   -2.51618e-03   5.38495e-05 DIIS
   @RHF iter   5:  -348.98864318405680   -7.70352e-05   1.82189e-05 DIIS
   @RHF iter   6:  -348.98865142331624   -8.23926e-06   5.07164e-06 DIIS
   @RHF iter   7:  -348.98865218574929   -7.62433e-07   1.38838e-06 DIIS
   @RHF iter   8:  -348.98865226833988   -8.25906e-08   4.60824e-07 DIIS
   @RHF iter   9:  -348.98865228806380   -1.97239e-08   2.34431e-07 DIIS
   @RHF iter  10:  -348.98865229369670   -5.63290e-09   9.90797e-08 DIIS
   @RHF iter  11:  -348.98865229496266   -1.26596e-09   3.01298e-08 DIIS
   @RHF iter  12:  -348.98865229503122   -6.85532e-11   1.21274e-08 DIIS
   @RHF iter  13:  -348.98865229504008   -8.86757e-12   4.53158e-09 DIIS
   @RHF iter  14:  -348.98865229504065   -5.68434e-13   1.20872e-09 DIIS
   @RHF iter  15:  -348.98865229504253   -1.87583e-12   5.22064e-10 DIIS
   @RHF iter  16:  -348.98865229504139    1.13687e-12   2.29541e-10 DIIS
   @RHF iter  17:  -348.98865229504077    6.25278e-13   8.47488e-11 DIIS
  Energy and wave function converged.

  ==> Post-Iterations <==

    Orbital Energies [Eh]
    ---------------------

    Doubly Occupied:

       1A    -11.239969     2A    -11.235675     3A    -11.235106
       4A    -11.231364     5A    -11.231189     6A    -11.230615
       7A    -11.228894     8A    -11.213100     9A    -11.208915
      10A     -1.152259    11A     -1.044082    12A     -1.014529
      13A     -1.009337    14A     -0.931018    15A     -0.832969
      16A     -0.823903    17A     -0.794791    18A     -0.690950
      19A     -0.631205    20A     -0.629873    21A     -0.596142
      22A     -0.593555    23A     -0.580611    24A     -0.575900
      25A     -0.561855    26A     -0.534550    27A     -0.495683
      28A     -0.488372    29A     -0.486209    30A     -0.481481
      31A     -0.480787    32A     -0.473121    33A     -0.330473
      34A     -0.322493

    Virtual:

      35A      0.135417    36A      0.140696    37A      0.177167
      38A      0.196798    39A      0.201903    40A      0.219724
      41A      0.236479    42A      0.242282    43A      0.257814
      44A      0.264012    45A      0.266221    46A      0.277282
      47A      0.288701    48A      0.289153    49A      0.300945
      50A      0.343146    51A      0.369737    52A      0.376855
      53A      0.418029    54A      0.453830    55A      0.462294
      56A      0.478809    57A      0.494054    58A      0.560554
      59A      0.572891    60A      0.599081    61A      0.605745
      62A      0.614659    63A      0.651345    64A      0.668969
      65A      0.675780    66A      0.691966    67A      0.702580
      68A      0.713892    69A      0.723810    70A      0.739680
      71A      0.745095    72A      0.746192    73A      0.765475
      74A      0.772755    75A      0.786052    76A      0.824331
      77A      0.847883    78A      0.859602    79A      0.862342
      80A      0.866080    81A      0.879629    82A      0.891885
      83A      0.897875    84A      0.900411    85A      0.904226
      86A      0.915026    87A      0.922550    88A      0.932874
      89A      0.946905    90A      0.958367    91A      0.965765
      92A      0.988882    93A      0.997105    94A      1.005848
      95A      1.019976    96A      1.067198    97A      1.111817
      98A      1.127003    99A      1.133530   100A      1.150415
     101A      1.155517   102A      1.181632   103A      1.191895
     104A      1.226000   105A      1.240411   106A      1.253991
     107A      1.257580   108A      1.275108   109A      1.304128
     110A      1.312830   111A      1.324713   112A      1.346008
     113A      1.413429   114A      1.490025   115A      1.493971
     116A      1.508003   117A      1.512936   118A      1.556003
     119A      1.595643   120A      1.609796   121A      1.682316
     122A      1.689405   123A      1.697158   124A      1.720987
     125A      1.745547   126A      1.760434   127A      1.762769
     128A      1.811800   129A      1.827402   130A      1.850307
     131A      1.867683   132A      1.877802   133A      1.892272
     134A      1.898412   135A      1.907012   136A      1.918567
     137A      1.925150   138A      1.933610   139A      1.938885
     140A      1.944081   141A      1.952466   142A      1.960873
     143A      1.965042   144A      1.976918   145A      1.984349
     146A      1.989325   147A      1.994913   148A      2.024239
     149A      2.063245   150A      2.066177   151A      2.082940
     152A      2.115465   153A      2.131665   154A      2.144689
     155A      2.155483   156A      2.167428   157A      2.167788
     158A      2.177183   159A      2.191075   160A      2.251362
     161A      2.277156   162A      2.297218   163A      2.303326
     164A      2.311964   165A      2.317505   166A      2.321763
     167A      2.347475   168A      2.450227   169A      2.466047
     170A      2.473809   171A      2.485475   172A      2.502563
     173A      2.546409   174A      2.588546   175A      2.596518
     176A      2.623631   177A      2.737682   178A      2.759264
     179A      2.773593   180A      2.779187   181A      2.785798
     182A      2.806401   183A      2.809486   184A      2.849839
     185A      2.854267   186A      2.865718   187A      2.878642
     188A      2.962490   189A      2.978139   190A      2.990353
     191A      3.018513   192A      3.040598   193A      3.152263
     194A      3.196668   195A      3.296429   196A      3.964871

    Final Occupation by Irrep:
              A
    DOCC [    34 ]

  @RHF Final Energy:  -348.98865229504077

   => Energetics <=

    Nuclear Repulsion Energy =            419.8406154255882257
    One-Electron Energy =               -1302.4365843246073382
    Two-Electron Energy =                 533.6073166039783473
    Total Energy =                       -348.9886522950407652

Computation Completed

Properties will be evaluated at   0.000000,   0.000000,   0.000000 [a0]

Properties computed using the SCF density matrix

  Nuclear Dipole Moment: [e a0]
     X:     9.4172      Y:    -5.2819      Z:     0.2414

  Electronic Dipole Moment: [e a0]
     X:    -9.4545      Y:     5.2145      Z:    -0.3436

  Dipole Moment: [e a0]
     X:    -0.0373      Y:    -0.0674      Z:    -0.1022     Total:     0.1279

  Dipole Moment: [D]
     X:    -0.0947      Y:    -0.1713      Z:    -0.2597     Total:     0.3252

*** tstop() called on ds3 at Sun Apr 26 18:27:59 2020
Module time:
	user time   =      71.04 seconds =       1.18 minutes
	system time =      25.56 seconds =       0.43 minutes
	total time  =        135 seconds =       2.25 minutes
Total time:
	user time   =      71.04 seconds =       1.18 minutes
	system time =      25.56 seconds =       0.43 minutes
	total time  =        135 seconds =       2.25 minutes
                                     G D M A

                                 by Anthony Stone

                           version 2.2.06, 22 June 2011

               Distributed Multipoles from Gaussian wavefunctions

Starting at 18:27:59 on 26 Apr 2020

Using SCF density matrix from file ./SSI/SSI-036LEU-046PHE-2-dimer.test.11360.fchk

                         Distributed Multipole Analysis

Standard DMA

Positions and radii in angstrom
Multipole moments in atomic units, ea_0^k for rank k

C          x =  2.583260  y = -1.182979  z =  0.172597 angstrom
           Maximum rank =  0   Radius =  0.650 angstrom
                   Q00  =  -0.221774

C          x =  3.164260  y = -0.482979  z =  1.398597 angstrom
           Maximum rank =  0   Radius =  0.650 angstrom
                   Q00  =  -0.243680

H          x =  1.670260  y = -1.720979  z =  0.425597 angstrom
           Maximum rank =  0   Radius =  0.325 angstrom
                   Q00  =   0.083027

H          x =  2.390260  y = -0.440979  z = -0.593403 angstrom
           Maximum rank =  0   Radius =  0.325 angstrom
                   Q00  =   0.074069

H          x =  3.310260  y = -1.879979  z = -0.244403 angstrom
           Maximum rank =  0   Radius =  0.325 angstrom
                   Q00  =   0.070089

H          x =  3.930260  y =  0.215021  z =  1.063597 angstrom
           Maximum rank =  0   Radius =  0.325 angstrom
                   Q00  =   0.073130

H          x =  3.631775  y = -1.223511  z =  2.064207 angstrom
           Maximum rank =  0   Radius =  0.325 angstrom
                   Q00  =   0.075360

H          x =  2.383864  y =  0.074860  z =  1.936927 angstrom
           Maximum rank =  0   Radius =  0.325 angstrom
                   Q00  =   0.086738

C          x = -0.771740  y = -1.592979  z = -1.841403 angstrom
           Maximum rank =  0   Radius =  0.650 angstrom
                   Q00  =  -0.203006

C          x = -0.869740  y = -0.442979  z = -0.867403 angstrom
           Maximum rank =  0   Radius =  0.650 angstrom
                   Q00  =  -0.103064

C          x = -1.888740  y = -0.414979  z =  0.079597 angstrom
           Maximum rank =  0   Radius =  0.650 angstrom
                   Q00  =   0.006641

C          x =  0.047260  y =  0.607021  z = -0.904403 angstrom
           Maximum rank =  0   Radius =  0.650 angstrom
                   Q00  =  -0.083950

C          x = -1.986740  y =  0.637021  z =  0.991597 angstrom
           Maximum rank =  0   Radius =  0.650 angstrom
                   Q00  =  -0.069884

C          x = -0.052740  y =  1.667021  z =  0.000597 angstrom
           Maximum rank =  0   Radius =  0.650 angstrom
                   Q00  =  -0.066645

C          x = -1.068740  y =  1.679021  z =  0.948597 angstrom
           Maximum rank =  0   Radius =  0.650 angstrom
                   Q00  =  -0.085319

H          x = -1.275740  y = -2.461979  z = -1.413403 angstrom
           Maximum rank =  0   Radius =  0.325 angstrom
                   Q00  =   0.096476

H          x =  0.278260  y = -1.850979  z = -1.952403 angstrom
           Maximum rank =  0   Radius =  0.325 angstrom
                   Q00  =   0.100291

H          x = -2.610740  y = -1.218979  z =  0.119597 angstrom
           Maximum rank =  0   Radius =  0.325 angstrom
                   Q00  =   0.057143

H          x =  0.827260  y =  0.622021  z = -1.652403 angstrom
           Maximum rank =  0   Radius =  0.325 angstrom
                   Q00  =   0.057375

H          x = -2.781740  y =  0.645021  z =  1.726597 angstrom
           Maximum rank =  0   Radius =  0.325 angstrom
                   Q00  =   0.064884

H          x =  0.652260  y =  2.486021  z = -0.046403 angstrom
           Maximum rank =  0   Radius =  0.325 angstrom
                   Q00  =   0.065118

H          x = -1.147740  y =  2.500021  z =  1.649597 angstrom
           Maximum rank =  0   Radius =  0.325 angstrom
                   Q00  =   0.061123

H          x = -1.213151  y = -1.379810  z = -2.826143 angstrom
           Maximum rank =  0   Radius =  0.325 angstrom
                   Q00  =   0.105857

Total multipoles referred to origin at
           x =   0.000000,  y =    0.000000,  z =    0.000000 angstrom
                   Q00  =  -0.000000

Finished at 18:27:59 on 26 Apr 2020

  DMA results are available in the Python driver through the
	  variable('DMA DISTRIBUTED MULTIPOLES')
  and
	  variable('DMA TOTAL MULTIPOLES')
  commands.

    Psi4 stopped on: Sunday, 26 April 2020 06:27PM
    Psi4 wall time for execution: 0:02:14.82

*** Psi4 exiting successfully. Buy a developer a beer!
