                               Psi4 1.3.2 release

  ==> Input File <==

--------------------------------------------------------------------------
import numpy as np
set {scf_type pk
basis cc-pvdz
d_convergence 10
gdma_switch   0
gdma_limit    0
gdma_origin   [ 0.0,  0.0,  0.0 ]
}
molecule test {
    units Angstrom
    0 1
    --
    0 1
    C                0.656121307837443     1.048208280414490     0.167239381066809
    C                2.092121307837443     1.585208280414490     0.128239381066809
    C               -0.071878692162557     1.581208280414490     1.402239381066809
    C               -0.139878692162557     1.398208280414491    -1.094760618933191
    H                0.698121307837443    -0.033791719585509     0.254239381066809
    H                2.603121307837443     1.249208280414491     1.030239381066809
    H                2.056121307837443     2.676208280414491     0.151239381066809
    H               -0.169878692162557     2.665208280414491     1.338239381066809
    H               -1.064878692162557     1.135208280414491     1.462239381066809
    H                0.483121307837443     1.325208280414490     2.304239381066809
    H                0.283121307837443     0.887208280414490    -1.957760618933191
    H               -1.172878692162557     1.070208280414491    -0.978760618933191
    H               -0.121878692162557     2.475208280414491    -1.253760618933191
    H                2.685009307837444     1.271114680414491    -0.743440618933191
    C               -1.067878692162557    -2.286791719585509     0.293239381066809
    C               -1.372878692162557    -3.186791719585509    -0.884760618933191
    H                0.007121307837443    -2.230791719585509     0.459239381066809
    H               -1.450878692162557    -1.286791719585509     0.092239381066809
    H               -1.554878692162557    -2.666791719585509     1.192239381066809
    H               -2.450878692162556    -3.148791719585509    -1.041760618933191
    H               -1.082240692162557    -4.219377719585509    -0.641250618933191
    H               -0.887160692162557    -2.826466719585509    -1.803590618933191

}
e, wfn = energy('scf', return_wfn=True)
gdma(wfn)
dmavals = variable('DMA DISTRIBUTED MULTIPOLES')
charges = np.array(dmavals)
print(charges)
np.save('SSI-042LEU-048VAL-1-dimer.npy', np.array(charges))--------------------------------------------------------------------------

*** tstart() called on ds3
*** at Tue Apr 28 10:16:14 2020

   => Loading Basis Set <=

    Name: CC-PVDZ
    Role: ORBITAL
    Keyword: BASIS
    atoms 1-4, 15-16  entry C          line   138 file /theoryfs2/ds/metcalf/miniconda2/envs/tf2gpu/share/psi4/basis/cc-pvdz.gbs
    atoms 5-14, 17-22 entry H          line    22 file /theoryfs2/ds/metcalf/miniconda2/envs/tf2gpu/share/psi4/basis/cc-pvdz.gbs

         ---------------------------------------------------------
                                   SCF
               by Justin Turney, Rob Parrish, Andy Simmonett
                          and Daniel G. A. Smith
                              RHF Reference
                        1 Threads,    500 MiB Core
         ---------------------------------------------------------

  ==> Geometry <==

    Molecular point group: c1
    Full point group: C1

    Geometry (in Angstrom), charge = 0, multiplicity = 1:

       Center              X                  Y                   Z               Mass
    ------------   -----------------  -----------------  -----------------  -----------------
         C            0.656121307837     1.048208280414     0.167239381067    12.000000000000
         C            2.092121307837     1.585208280414     0.128239381067    12.000000000000
         C           -0.071878692163     1.581208280414     1.402239381067    12.000000000000
         C           -0.139878692163     1.398208280414    -1.094760618933    12.000000000000
         H            0.698121307837    -0.033791719586     0.254239381067     1.007825032230
         H            2.603121307837     1.249208280414     1.030239381067     1.007825032230
         H            2.056121307837     2.676208280414     0.151239381067     1.007825032230
         H           -0.169878692163     2.665208280414     1.338239381067     1.007825032230
         H           -1.064878692163     1.135208280414     1.462239381067     1.007825032230
         H            0.483121307837     1.325208280414     2.304239381067     1.007825032230
         H            0.283121307837     0.887208280414    -1.957760618933     1.007825032230
         H           -1.172878692163     1.070208280414    -0.978760618933     1.007825032230
         H           -0.121878692163     2.475208280414    -1.253760618933     1.007825032230
         H            2.685009307837     1.271114680414    -0.743440618933     1.007825032230
         C           -1.067878692163    -2.286791719586     0.293239381067    12.000000000000
         C           -1.372878692163    -3.186791719586    -0.884760618933    12.000000000000
         H            0.007121307837    -2.230791719586     0.459239381067     1.007825032230
         H           -1.450878692163    -1.286791719586     0.092239381067     1.007825032230
         H           -1.554878692163    -2.666791719586     1.192239381067     1.007825032230
         H           -2.450878692163    -3.148791719586    -1.041760618933     1.007825032230
         H           -1.082240692163    -4.219377719586    -0.641250618933     1.007825032230
         H           -0.887160692163    -2.826466719586    -1.803590618933     1.007825032230

  Running in c1 symmetry.

  Rotational constants: A =      0.14689  B =      0.03405  C =      0.03286 [cm^-1]
  Rotational constants: A =   4403.58538  B =   1020.76144  C =    985.05776 [MHz]
  Nuclear repulsion =  246.611772219912950

  Charge       = 0
  Multiplicity = 1
  Electrons    = 52
  Nalpha       = 26
  Nbeta        = 26

  ==> Algorithm <==

  SCF Algorithm Type is PK.
  DIIS enabled.
  MOM disabled.
  Fractional occupation disabled.
  Guess Type is SAD.
  Energy threshold   = 1.00e-06
  Density threshold  = 1.00e-10
  Integral threshold = 0.00e+00

  ==> Primary Basis <==

  Basis Set: CC-PVDZ
    Blend: CC-PVDZ
    Number of shells: 84
    Number of basis function: 164
    Number of Cartesian functions: 170
    Spherical Harmonics?: true
    Max angular momentum: 2

  ==> Pre-Iterations <==

   -------------------------------------------------------
    Irrep   Nso     Nmo     Nalpha   Nbeta   Ndocc  Nsocc
   -------------------------------------------------------
     A        164     164       0       0       0       0
   -------------------------------------------------------
    Total     164     164      26      26      26       0
   -------------------------------------------------------

  ==> Integral Setup <==

  Using integral reordering PK algorithm.
  Sizing the integral batches needed.
  Building batch lookup table.
   Calculation information:
      Number of atoms:                  22
      Number of AO shells:              84
      Number of primitives:            212
      Number of atomic orbitals:       170
      Number of basis functions:       164

      Integral cutoff                 1.00e-12
      Number of threads:                 1

	Batch   1 pq = [       0,    9405] index = [             0,44231715] size =     44231715
	Batch   2 pq = [    9405,   13530] index = [      44231715,91537215] size =     47305500
  Task number: 9
  Buffer size: 11059200
  Buffer per thread: 2
  We computed 5784875 shell quartets total.
  Whereas there are 6374235 unique shell quartets.

  ==> DiskJK: Disk-Based J/K Matrices <==

    J tasked:                  Yes
    K tasked:                  Yes
    wK tasked:                  No
    Memory [MiB]:              375
    Schwarz Cutoff:          1E-12

    OpenMP threads:              1

  Minimum eigenvalue in the overlap matrix is 4.6247211168E-03.
  Using Symmetric Orthogonalization.

  SCF Guess: Superposition of Atomic Densities via on-the-fly atomic UHF.

  ==> Iterations <==

                        Total Energy        Delta E     RMS |[F,P]|

   @RHF iter SAD:  -235.44918676997290   -2.35449e+02   0.00000e+00
   @RHF iter   1:  -236.31129826739266   -8.62111e-01   3.54392e-03 DIIS
   @RHF iter   2:  -236.50295990896007   -1.91662e-01   1.53417e-03 DIIS
   @RHF iter   3:  -236.53691923106260   -3.39593e-02   3.13540e-04 DIIS
   @RHF iter   4:  -236.53954455088927   -2.62532e-03   6.90996e-05 DIIS
   @RHF iter   5:  -236.53962893387273   -8.43830e-05   1.57126e-05 DIIS
   @RHF iter   6:  -236.53963444726162   -5.51339e-06   2.65275e-06 DIIS
   @RHF iter   7:  -236.53963462393898   -1.76677e-07   6.55460e-07 DIIS
   @RHF iter   8:  -236.53963463597981   -1.20408e-08   1.61955e-07 DIIS
   @RHF iter   9:  -236.53963463675558   -7.75771e-10   4.63271e-08 DIIS
   @RHF iter  10:  -236.53963463682743   -7.18501e-11   1.04375e-08 DIIS
   @RHF iter  11:  -236.53963463683161   -4.17799e-12   2.08002e-09 DIIS
   @RHF iter  12:  -236.53963463683201   -3.97904e-13   4.30083e-10 DIIS
   @RHF iter  13:  -236.53963463683192    8.52651e-14   1.08247e-10 DIIS
   @RHF iter  14:  -236.53963463683226   -3.41061e-13   2.60391e-11 DIIS
  Energy and wave function converged.

  ==> Post-Iterations <==

    Orbital Energies [Eh]
    ---------------------

    Doubly Occupied:

       1A    -11.221446     2A    -11.219002     3A    -11.216282
       4A    -11.214451     5A    -11.212925     6A    -11.212609
       7A     -1.080185     8A     -1.023715     9A     -0.927778
      10A     -0.923505    11A     -0.835802    12A     -0.763674
      13A     -0.632034    14A     -0.603200    15A     -0.600455
      16A     -0.590430    17A     -0.583522    18A     -0.536250
      19A     -0.531711    20A     -0.508524    21A     -0.503493
      22A     -0.487622    23A     -0.484813    24A     -0.459040
      25A     -0.454794    26A     -0.454049

    Virtual:

      27A      0.166169    28A      0.195544    29A      0.214470
      30A      0.220054    31A      0.231304    32A      0.246612
      33A      0.248304    34A      0.261614    35A      0.264058
      36A      0.269724    37A      0.288552    38A      0.304939
      39A      0.309357    40A      0.325407    41A      0.333074
      42A      0.345048    43A      0.376000    44A      0.398110
      45A      0.409322    46A      0.415845    47A      0.552252
      48A      0.563526    49A      0.600314    50A      0.600989
      51A      0.605976    52A      0.614635    53A      0.636577
      54A      0.651875    55A      0.674957    56A      0.743516
      57A      0.772534    58A      0.780999    59A      0.802028
      60A      0.830025    61A      0.852234    62A      0.863284
      63A      0.875037    64A      0.888313    65A      0.891412
      66A      0.894717    67A      0.902337    68A      0.903760
      69A      0.907512    70A      0.915373    71A      0.920098
      72A      0.926598    73A      0.931814    74A      0.945759
      75A      0.950291    76A      0.962736    77A      0.977184
      78A      0.994599    79A      0.996056    80A      1.042807
      81A      1.123506    82A      1.132088    83A      1.135138
      84A      1.151026    85A      1.230525    86A      1.252292
      87A      1.370547    88A      1.405817    89A      1.416503
      90A      1.476765    91A      1.487481    92A      1.536605
      93A      1.566854    94A      1.573911    95A      1.656431
      96A      1.669501    97A      1.678324    98A      1.684789
      99A      1.689482   100A      1.699332   101A      1.709644
     102A      1.717245   103A      1.740454   104A      1.836483
     105A      1.839219   106A      1.853339   107A      1.863268
     108A      1.882466   109A      1.909687   110A      1.925429
     111A      1.929024   112A      1.948005   113A      1.950788
     114A      1.952322   115A      1.962807   116A      1.972328
     117A      1.976663   118A      1.984287   119A      1.990244
     120A      1.994836   121A      2.006163   122A      2.023590
     123A      2.052006   124A      2.078943   125A      2.089141
     126A      2.123880   127A      2.128334   128A      2.135380
     129A      2.152826   130A      2.250527   131A      2.263432
     132A      2.295510   133A      2.301750   134A      2.313025
     135A      2.321722   136A      2.334588   137A      2.368046
     138A      2.383389   139A      2.451434   140A      2.484102
     141A      2.491526   142A      2.561606   143A      2.577178
     144A      2.590867   145A      2.617243   146A      2.622381
     147A      2.713282   148A      2.727624   149A      2.756542
     150A      2.763114   151A      2.789037   152A      2.793582
     153A      2.799436   154A      2.803904   155A      2.835626
     156A      2.844570   157A      2.850784   158A      2.855707
     159A      2.862570   160A      2.963321   161A      2.981089
     162A      3.016107   163A      3.030476   164A      3.148422

    Final Occupation by Irrep:
              A
    DOCC [    26 ]

  @RHF Final Energy:  -236.53963463683226

   => Energetics <=

    Nuclear Repulsion Energy =            246.6117722199129503
    One-Electron Energy =                -805.7401909006810001
    Two-Electron Energy =                 322.5887840439357888
    Total Energy =                       -236.5396346368322611

Computation Completed

Properties will be evaluated at   0.000000,   0.000000,   0.000000 [a0]

Properties computed using the SCF density matrix

  Nuclear Dipole Moment: [e a0]
     X:    -1.0685      Y:    -1.5543      Z:    -0.1277

  Electronic Dipole Moment: [e a0]
     X:     1.0521      Y:     1.4889      Z:     0.1453

  Dipole Moment: [e a0]
     X:    -0.0164      Y:    -0.0654      Z:     0.0176     Total:     0.0697

  Dipole Moment: [D]
     X:    -0.0418      Y:    -0.1663      Z:     0.0448     Total:     0.1773

*** tstop() called on ds3 at Tue Apr 28 10:17:20 2020
Module time:
	user time   =      30.03 seconds =       0.50 minutes
	system time =      11.28 seconds =       0.19 minutes
	total time  =         66 seconds =       1.10 minutes
Total time:
	user time   =      30.03 seconds =       0.50 minutes
	system time =      11.28 seconds =       0.19 minutes
	total time  =         66 seconds =       1.10 minutes
                                     G D M A

                                 by Anthony Stone

                           version 2.2.06, 22 June 2011

               Distributed Multipoles from Gaussian wavefunctions

Starting at 10:17:20 on 28 Apr 2020

Using SCF density matrix from file ./SSI/SSI-042LEU-048VAL-1-dimer.test.7352.fchk

                         Distributed Multipole Analysis

Standard DMA

Positions and radii in angstrom
Multipole moments in atomic units, ea_0^k for rank k

C          x =  0.656121  y =  1.048208  z =  0.167239 angstrom
           Maximum rank =  0   Radius =  0.650 angstrom
                   Q00  =   0.019467

C          x =  2.092121  y =  1.585208  z =  0.128239 angstrom
           Maximum rank =  0   Radius =  0.650 angstrom
                   Q00  =  -0.259069

C          x = -0.071879  y =  1.581208  z =  1.402239 angstrom
           Maximum rank =  0   Radius =  0.650 angstrom
                   Q00  =  -0.242691

C          x = -0.139879  y =  1.398208  z = -1.094761 angstrom
           Maximum rank =  0   Radius =  0.650 angstrom
                   Q00  =  -0.245874

H          x =  0.698121  y = -0.033792  z =  0.254239 angstrom
           Maximum rank =  0   Radius =  0.325 angstrom
                   Q00  =   0.017469

H          x =  2.603121  y =  1.249208  z =  1.030239 angstrom
           Maximum rank =  0   Radius =  0.325 angstrom
                   Q00  =   0.079771

H          x =  2.056121  y =  2.676208  z =  0.151239 angstrom
           Maximum rank =  0   Radius =  0.325 angstrom
                   Q00  =   0.073333

H          x = -0.169879  y =  2.665208  z =  1.338239 angstrom
           Maximum rank =  0   Radius =  0.325 angstrom
                   Q00  =   0.075252

H          x = -1.064879  y =  1.135208  z =  1.462239 angstrom
           Maximum rank =  0   Radius =  0.325 angstrom
                   Q00  =   0.081227

H          x =  0.483121  y =  1.325208  z =  2.304239 angstrom
           Maximum rank =  0   Radius =  0.325 angstrom
                   Q00  =   0.080014

H          x =  0.283121  y =  0.887208  z = -1.957761 angstrom
           Maximum rank =  0   Radius =  0.325 angstrom
                   Q00  =   0.081505

H          x = -1.172879  y =  1.070208  z = -0.978761 angstrom
           Maximum rank =  0   Radius =  0.325 angstrom
                   Q00  =   0.078031

H          x = -0.121879  y =  2.475208  z = -1.253761 angstrom
           Maximum rank =  0   Radius =  0.325 angstrom
                   Q00  =   0.077163

H          x =  2.685009  y =  1.271115  z = -0.743441 angstrom
           Maximum rank =  0   Radius =  0.325 angstrom
                   Q00  =   0.083235

C          x = -1.067879  y = -2.286792  z =  0.293239 angstrom
           Maximum rank =  0   Radius =  0.650 angstrom
                   Q00  =  -0.221640

C          x = -1.372879  y = -3.186792  z = -0.884761 angstrom
           Maximum rank =  0   Radius =  0.650 angstrom
                   Q00  =  -0.241207

H          x =  0.007121  y = -2.230792  z =  0.459239 angstrom
           Maximum rank =  0   Radius =  0.325 angstrom
                   Q00  =   0.076598

H          x = -1.450879  y = -1.286792  z =  0.092239 angstrom
           Maximum rank =  0   Radius =  0.325 angstrom
                   Q00  =   0.076531

H          x = -1.554879  y = -2.666792  z =  1.192239 angstrom
           Maximum rank =  0   Radius =  0.325 angstrom
                   Q00  =   0.078671

H          x = -2.450879  y = -3.148792  z = -1.041761 angstrom
           Maximum rank =  0   Radius =  0.325 angstrom
                   Q00  =   0.074455

H          x = -1.082241  y = -4.219378  z = -0.641251 angstrom
           Maximum rank =  0   Radius =  0.325 angstrom
                   Q00  =   0.078217

H          x = -0.887161  y = -2.826467  z = -1.803591 angstrom
           Maximum rank =  0   Radius =  0.325 angstrom
                   Q00  =   0.079543

Total multipoles referred to origin at
           x =   0.000000,  y =    0.000000,  z =    0.000000 angstrom
                   Q00  =  -0.000000

Finished at 10:17:20 on 28 Apr 2020

  DMA results are available in the Python driver through the
	  variable('DMA DISTRIBUTED MULTIPOLES')
  and
	  variable('DMA TOTAL MULTIPOLES')
  commands.

    Psi4 stopped on: Tuesday, 28 April 2020 10:17AM
    Psi4 wall time for execution: 0:01:06.39

*** Psi4 exiting successfully. Buy a developer a beer!
