                               Psi4 1.3.2 release

  ==> Input File <==

--------------------------------------------------------------------------
import numpy as np
set {scf_type pk
basis cc-pvdz
d_convergence 10
gdma_switch   0
gdma_limit    0
gdma_origin   [ 0.0,  0.0,  0.0 ]
}
molecule test {
    units Angstrom
    0 1
    --
    0 1
    C               -0.044414811883537    -3.961700253350869    -0.868024139289964
    C                1.466585188116463    -4.098700253350868    -1.146024139289964
    H               -0.527414811883537    -4.926700253350869    -1.018024139289964
    H               -0.196414811883537    -3.647700253350869     0.163975860710036
    H               -0.496414811883537    -3.219700253350869    -1.526024139289964
    H                1.920585188116463    -3.134700253350869    -0.924024139289964
    H                1.674435188116463    -4.340605253350869    -2.198774139289965
    H                1.896255188116463    -4.809395253350869    -0.424714139289964
    C                0.853585188116463    -0.437700253350869    -0.450024139289964
    C                2.269585188116463     0.018299746649131    -0.882024139289964
    C               -0.010414811883537     0.655299746649131     0.069975860710036
    C               -1.125414811883537     1.116299746649131    -0.648024139289964
    C                0.205585188116463     1.139299746649131     1.371975860710036
    C               -1.966414811883537     2.133299746649131    -0.086024139289964
    C               -0.589414811883537     2.138299746649131     1.906975860710036
    C               -1.693414811883537     2.640299746649131     1.206975860710036
    H                0.358585188116463    -0.894700253350869    -1.308024139289964
    H                0.940585188116463    -1.210700253350869     0.313975860710036
    H                2.756585188116463    -0.815700253350869    -1.389024139289964
    H               -1.348414811883537     0.719299746649131    -1.629024139289964
    H                1.014585188116463     0.743299746649131     1.959975860710036
    H               -2.827414811883537     2.492299746649131    -0.631024139289964
    H               -0.375414811883537     2.509299746649131     2.900975860710035
    H               -2.324414811883537     3.397299746649131     1.650975860710036
    H                2.868225188116464     0.299967746649131    -0.003224139289964
    H                2.216755188116463     0.847595046649131    -1.602774139289964

}
e, wfn = energy('scf', return_wfn=True)
gdma(wfn)
dmavals = variable('DMA DISTRIBUTED MULTIPOLES')
charges = np.array(dmavals)
print(charges)
np.save('SSI-003VAL-036PHE-1-dimer.npy', np.array(charges))--------------------------------------------------------------------------

*** tstart() called on ds3
*** at Mon Apr 27 23:01:20 2020

   => Loading Basis Set <=

    Name: CC-PVDZ
    Role: ORBITAL
    Keyword: BASIS
    atoms 1-2, 9-16  entry C          line   138 file /theoryfs2/ds/metcalf/miniconda2/envs/tf2gpu/share/psi4/basis/cc-pvdz.gbs
    atoms 3-8, 17-26 entry H          line    22 file /theoryfs2/ds/metcalf/miniconda2/envs/tf2gpu/share/psi4/basis/cc-pvdz.gbs

         ---------------------------------------------------------
                                   SCF
               by Justin Turney, Rob Parrish, Andy Simmonett
                          and Daniel G. A. Smith
                              RHF Reference
                        1 Threads,    500 MiB Core
         ---------------------------------------------------------

  ==> Geometry <==

    Molecular point group: c1
    Full point group: C1

    Geometry (in Angstrom), charge = 0, multiplicity = 1:

       Center              X                  Y                   Z               Mass
    ------------   -----------------  -----------------  -----------------  -----------------
         C           -0.044414811884    -3.961700253351    -0.868024139290    12.000000000000
         C            1.466585188116    -4.098700253351    -1.146024139290    12.000000000000
         H           -0.527414811884    -4.926700253351    -1.018024139290     1.007825032230
         H           -0.196414811884    -3.647700253351     0.163975860710     1.007825032230
         H           -0.496414811884    -3.219700253351    -1.526024139290     1.007825032230
         H            1.920585188116    -3.134700253351    -0.924024139290     1.007825032230
         H            1.674435188116    -4.340605253351    -2.198774139290     1.007825032230
         H            1.896255188116    -4.809395253351    -0.424714139290     1.007825032230
         C            0.853585188116    -0.437700253351    -0.450024139290    12.000000000000
         C            2.269585188116     0.018299746649    -0.882024139290    12.000000000000
         C           -0.010414811884     0.655299746649     0.069975860710    12.000000000000
         C           -1.125414811884     1.116299746649    -0.648024139290    12.000000000000
         C            0.205585188116     1.139299746649     1.371975860710    12.000000000000
         C           -1.966414811884     2.133299746649    -0.086024139290    12.000000000000
         C           -0.589414811884     2.138299746649     1.906975860710    12.000000000000
         C           -1.693414811884     2.640299746649     1.206975860710    12.000000000000
         H            0.358585188116    -0.894700253351    -1.308024139290     1.007825032230
         H            0.940585188116    -1.210700253351     0.313975860710     1.007825032230
         H            2.756585188116    -0.815700253351    -1.389024139290     1.007825032230
         H           -1.348414811884     0.719299746649    -1.629024139290     1.007825032230
         H            1.014585188116     0.743299746649     1.959975860710     1.007825032230
         H           -2.827414811884     2.492299746649    -0.631024139290     1.007825032230
         H           -0.375414811884     2.509299746649     2.900975860710     1.007825032230
         H           -2.324414811884     3.397299746649     1.650975860710     1.007825032230
         H            2.868225188116     0.299967746649    -0.003224139290     1.007825032230
         H            2.216755188116     0.847595046649    -1.602774139290     1.007825032230

  Running in c1 symmetry.

  Rotational constants: A =      0.07319  B =      0.01677  C =      0.01565 [cm^-1]
  Rotational constants: A =   2194.11193  B =    502.72494  C =    469.30521 [MHz]
  Nuclear repulsion =  484.336135929881152

  Charge       = 0
  Multiplicity = 1
  Electrons    = 76
  Nalpha       = 38
  Nbeta        = 38

  ==> Algorithm <==

  SCF Algorithm Type is PK.
  DIIS enabled.
  MOM disabled.
  Fractional occupation disabled.
  Guess Type is SAD.
  Energy threshold   = 1.00e-06
  Density threshold  = 1.00e-10
  Integral threshold = 0.00e+00

  ==> Primary Basis <==

  Basis Set: CC-PVDZ
    Blend: CC-PVDZ
    Number of shells: 108
    Number of basis function: 220
    Number of Cartesian functions: 230
    Spherical Harmonics?: true
    Max angular momentum: 2

  ==> Pre-Iterations <==

   -------------------------------------------------------
    Irrep   Nso     Nmo     Nalpha   Nbeta   Ndocc  Nsocc
   -------------------------------------------------------
     A        220     220       0       0       0       0
   -------------------------------------------------------
    Total     220     220      38      38      38       0
   -------------------------------------------------------

  ==> Integral Setup <==

  Using integral reordering PK algorithm.
  Sizing the integral batches needed.
  Building batch lookup table.
   Calculation information:
      Number of atoms:                  26
      Number of AO shells:             108
      Number of primitives:            300
      Number of atomic orbitals:       230
      Number of basis functions:       220

      Integral cutoff                 1.00e-12
      Number of threads:                 1

	Batch   1 pq = [       0,    9405] index = [             0,44231715] size =     44231715
	Batch   2 pq = [    9405,   13301] index = [      44231715,88464951] size =     44233236
	Batch   3 pq = [   13301,   16290] index = [      88464951,132690195] size =     44225244
	Batch   4 pq = [   16290,   18810] index = [     132690195,176917455] size =     44227260
	Batch   5 pq = [   18810,   21030] index = [     176917455,221140965] size =     44223510
	Batch   6 pq = [   21030,   23037] index = [     221140965,265363203] size =     44222238
	Batch   7 pq = [   23037,   24310] index = [     265363203,295500205] size =     30137002
  Task number: 27
  Buffer size: 11059200
  Buffer per thread: 2
  We computed 14788163 shell quartets total.
  Whereas there are 17325441 unique shell quartets.

  ==> DiskJK: Disk-Based J/K Matrices <==

    J tasked:                  Yes
    K tasked:                  Yes
    wK tasked:                  No
    Memory [MiB]:              375
    Schwarz Cutoff:          1E-12

    OpenMP threads:              1

  Minimum eigenvalue in the overlap matrix is 3.5357761387E-04.
  Using Symmetric Orthogonalization.

  SCF Guess: Superposition of Atomic Densities via on-the-fly atomic UHF.

  ==> Iterations <==

                        Total Energy        Delta E     RMS |[F,P]|

   @RHF iter SAD:  -386.71626685180217   -3.86716e+02   0.00000e+00
   @RHF iter   1:  -387.77792691671391   -1.06166e+00   2.67616e-03 DIIS
   @RHF iter   2:  -387.98812272365899   -2.10196e-01   1.10060e-03 DIIS
   @RHF iter   3:  -388.02047011220884   -3.23474e-02   2.49300e-04 DIIS
   @RHF iter   4:  -388.02327863757841   -2.80853e-03   6.81639e-05 DIIS
   @RHF iter   5:  -388.02341602385502   -1.37386e-04   2.08973e-05 DIIS
   @RHF iter   6:  -388.02343099817557   -1.49743e-05   3.89256e-06 DIIS
   @RHF iter   7:  -388.02343179415112   -7.95976e-07   1.41434e-06 DIIS
   @RHF iter   8:  -388.02343192576541   -1.31614e-07   5.94833e-07 DIIS
   @RHF iter   9:  -388.02343197521640   -4.94510e-08   3.14090e-07 DIIS
   @RHF iter  10:  -388.02343198995447   -1.47381e-08   1.43489e-07 DIIS
   @RHF iter  11:  -388.02343199265658   -2.70211e-09   3.57262e-08 DIIS
   @RHF iter  12:  -388.02343199278141   -1.24828e-10   1.53521e-08 DIIS
   @RHF iter  13:  -388.02343199279665   -1.52340e-11   5.75007e-09 DIIS
   @RHF iter  14:  -388.02343199279790   -1.25056e-12   1.99573e-09 DIIS
   @RHF iter  15:  -388.02343199279943   -1.53477e-12   9.59966e-10 DIIS
   @RHF iter  16:  -388.02343199279971   -2.84217e-13   4.20506e-10 DIIS
   @RHF iter  17:  -388.02343199279903    6.82121e-13   1.31843e-10 DIIS
   @RHF iter  18:  -388.02343199279949   -4.54747e-13   4.34126e-11 DIIS
  Energy and wave function converged.

  ==> Post-Iterations <==

    Orbital Energies [Eh]
    ---------------------

    Doubly Occupied:

       1A    -11.243136     2A    -11.239733     3A    -11.237148
       4A    -11.236076     5A    -11.234933     6A    -11.229625
       7A    -11.229446     8A    -11.225653     9A    -11.221581
      10A    -11.218758    11A     -1.146366    12A     -1.060683
      13A     -1.017058    14A     -1.005136    15A     -0.977727
      16A     -0.864278    17A     -0.838837    18A     -0.822647
      19A     -0.782907    20A     -0.687764    21A     -0.638352
      22A     -0.636387    23A     -0.601966    24A     -0.600539
      25A     -0.585809    26A     -0.581896    27A     -0.574671
      28A     -0.540807    29A     -0.518203    30A     -0.502215
      31A     -0.497620    32A     -0.492636    33A     -0.483778
      34A     -0.475925    35A     -0.473926    36A     -0.469947
      37A     -0.327957    38A     -0.318406

    Virtual:

      39A      0.131614    40A      0.137615    41A      0.173654
      42A      0.190413    43A      0.201985    44A      0.209698
      45A      0.219480    46A      0.235664    47A      0.246297
      48A      0.252794    49A      0.257638    50A      0.265205
      51A      0.268172    52A      0.284039    53A      0.299687
      54A      0.310516    55A      0.326577    56A      0.338783
      57A      0.372635    58A      0.388466    59A      0.396355
      60A      0.428100    61A      0.445535    62A      0.469505
      63A      0.491514    64A      0.503209    65A      0.571595
      66A      0.574411    67A      0.592858    68A      0.599748
      69A      0.606044    70A      0.626097    71A      0.636991
      72A      0.670129    73A      0.679746    74A      0.697066
      75A      0.699195    76A      0.718344    77A      0.729003
      78A      0.734095    79A      0.740496    80A      0.742618
      81A      0.751223    82A      0.767003    83A      0.785167
      84A      0.794945    85A      0.825760    86A      0.835231
      87A      0.857032    88A      0.862030    89A      0.866690
      90A      0.875691    91A      0.879416    92A      0.891122
      93A      0.893191    94A      0.902490    95A      0.905613
      96A      0.908665    97A      0.917122    98A      0.928788
      99A      0.934705   100A      0.944505   101A      0.961055
     102A      0.967368   103A      0.976367   104A      0.992085
     105A      1.006777   106A      1.011554   107A      1.036449
     108A      1.088627   109A      1.099901   110A      1.123220
     111A      1.128361   112A      1.136570   113A      1.144015
     114A      1.162274   115A      1.183788   116A      1.217745
     117A      1.231289   118A      1.242912   119A      1.253614
     120A      1.260325   121A      1.289475   122A      1.299413
     123A      1.308223   124A      1.317957   125A      1.394530
     126A      1.433770   127A      1.441762   128A      1.460745
     129A      1.486057   130A      1.512686   131A      1.527766
     132A      1.579191   133A      1.593243   134A      1.630739
     135A      1.678001   136A      1.686496   137A      1.699622
     138A      1.710023   139A      1.717907   140A      1.736812
     141A      1.749306   142A      1.764996   143A      1.827323
     144A      1.844508   145A      1.854173   146A      1.864256
     147A      1.871484   148A      1.878006   149A      1.883342
     150A      1.893304   151A      1.905926   152A      1.913456
     153A      1.919284   154A      1.930340   155A      1.937236
     156A      1.938118   157A      1.942938   158A      1.948818
     159A      1.954874   160A      1.959716   161A      1.961072
     162A      1.966813   163A      1.969462   164A      1.990357
     165A      2.006503   166A      2.022383   167A      2.046916
     168A      2.050326   169A      2.073410   170A      2.099194
     171A      2.110102   172A      2.118068   173A      2.132122
     174A      2.137397   175A      2.150495   176A      2.153429
     177A      2.176630   178A      2.201575   179A      2.235015
     180A      2.260227   181A      2.269513   182A      2.294470
     183A      2.304838   184A      2.310990   185A      2.321618
     186A      2.327392   187A      2.375269   188A      2.438206
     189A      2.446023   190A      2.455817   191A      2.471707
     192A      2.487251   193A      2.528252   194A      2.543241
     195A      2.563526   196A      2.570492   197A      2.581638
     198A      2.644989   199A      2.733103   200A      2.748353
     201A      2.761429   202A      2.767161   203A      2.771483
     204A      2.795504   205A      2.796816   206A      2.842288
     207A      2.844302   208A      2.860634   209A      2.887439
     210A      2.921958   211A      2.933200   212A      2.944050
     213A      2.968376   214A      2.982465   215A      3.005172
     216A      3.035571   217A      3.169584   218A      3.184922
     219A      3.281236   220A      3.921308

    Final Occupation by Irrep:
              A
    DOCC [    38 ]

  @RHF Final Energy:  -388.02343199279949

   => Energetics <=

    Nuclear Repulsion Energy =            484.3361359298811522
    One-Electron Energy =               -1483.0380816190436235
    Two-Electron Energy =                 610.6785136963629839
    Total Energy =                       -388.0234319927994875

Computation Completed

Properties will be evaluated at   0.000000,   0.000000,   0.000000 [a0]

Properties computed using the SCF density matrix

  Nuclear Dipole Moment: [e a0]
     X:     7.0785      Y:   -14.9909      Z:    -5.3106

  Electronic Dipole Moment: [e a0]
     X:    -7.0184      Y:    14.8826      Z:     5.2929

  Dipole Moment: [e a0]
     X:     0.0602      Y:    -0.1083      Z:    -0.0177     Total:     0.1251

  Dipole Moment: [D]
     X:     0.1530      Y:    -0.2752      Z:    -0.0450     Total:     0.3181

*** tstop() called on ds3 at Mon Apr 27 23:04:05 2020
Module time:
	user time   =     108.78 seconds =       1.81 minutes
	system time =      64.31 seconds =       1.07 minutes
	total time  =        165 seconds =       2.75 minutes
Total time:
	user time   =     108.78 seconds =       1.81 minutes
	system time =      64.31 seconds =       1.07 minutes
	total time  =        165 seconds =       2.75 minutes
                                     G D M A

                                 by Anthony Stone

                           version 2.2.06, 22 June 2011

               Distributed Multipoles from Gaussian wavefunctions

Starting at 23:4:5 on 27 Apr 2020

Using SCF density matrix from file ./SSI/SSI-003VAL-036PHE-1-dimer.test.23368.fchk

                         Distributed Multipole Analysis

Standard DMA

Positions and radii in angstrom
Multipole moments in atomic units, ea_0^k for rank k

C          x = -0.044415  y = -3.961700  z = -0.868024 angstrom
           Maximum rank =  0   Radius =  0.650 angstrom
                   Q00  =  -0.240705

C          x =  1.466585  y = -4.098700  z = -1.146024 angstrom
           Maximum rank =  0   Radius =  0.650 angstrom
                   Q00  =  -0.217729

H          x = -0.527415  y = -4.926700  z = -1.018024 angstrom
           Maximum rank =  0   Radius =  0.325 angstrom
                   Q00  =   0.080124

H          x = -0.196415  y = -3.647700  z =  0.163976 angstrom
           Maximum rank =  0   Radius =  0.325 angstrom
                   Q00  =   0.081376

H          x = -0.496415  y = -3.219700  z = -1.526024 angstrom
           Maximum rank =  0   Radius =  0.325 angstrom
                   Q00  =   0.079851

H          x =  1.920585  y = -3.134700  z = -0.924024 angstrom
           Maximum rank =  0   Radius =  0.325 angstrom
                   Q00  =   0.075882

H          x =  1.674435  y = -4.340605  z = -2.198774 angstrom
           Maximum rank =  0   Radius =  0.325 angstrom
                   Q00  =   0.072119

H          x =  1.896255  y = -4.809395  z = -0.424714 angstrom
           Maximum rank =  0   Radius =  0.325 angstrom
                   Q00  =   0.068182

C          x =  0.853585  y = -0.437700  z = -0.450024 angstrom
           Maximum rank =  0   Radius =  0.650 angstrom
                   Q00  =  -0.032037

C          x =  2.269585  y =  0.018300  z = -0.882024 angstrom
           Maximum rank =  0   Radius =  0.650 angstrom
                   Q00  =  -0.258643

C          x = -0.010415  y =  0.655300  z =  0.069976 angstrom
           Maximum rank =  0   Radius =  0.650 angstrom
                   Q00  =  -0.084538

C          x = -1.125415  y =  1.116300  z = -0.648024 angstrom
           Maximum rank =  0   Radius =  0.650 angstrom
                   Q00  =  -0.097104

C          x =  0.205585  y =  1.139300  z =  1.371976 angstrom
           Maximum rank =  0   Radius =  0.650 angstrom
                   Q00  =  -0.028792

C          x = -1.966415  y =  2.133300  z = -0.086024 angstrom
           Maximum rank =  0   Radius =  0.650 angstrom
                   Q00  =  -0.087251

C          x = -0.589415  y =  2.138300  z =  1.906976 angstrom
           Maximum rank =  0   Radius =  0.650 angstrom
                   Q00  =  -0.028578

C          x = -1.693415  y =  2.640300  z =  1.206976 angstrom
           Maximum rank =  0   Radius =  0.650 angstrom
                   Q00  =  -0.095245

H          x =  0.358585  y = -0.894700  z = -1.308024 angstrom
           Maximum rank =  0   Radius =  0.325 angstrom
                   Q00  =   0.064296

H          x =  0.940585  y = -1.210700  z =  0.313976 angstrom
           Maximum rank =  0   Radius =  0.325 angstrom
                   Q00  =   0.068772

H          x =  2.756585  y = -0.815700  z = -1.389024 angstrom
           Maximum rank =  0   Radius =  0.325 angstrom
                   Q00  =   0.084435

H          x = -1.348415  y =  0.719300  z = -1.629024 angstrom
           Maximum rank =  0   Radius =  0.325 angstrom
                   Q00  =   0.064679

H          x =  1.014585  y =  0.743300  z =  1.959976 angstrom
           Maximum rank =  0   Radius =  0.325 angstrom
                   Q00  =   0.055506

H          x = -2.827415  y =  2.492300  z = -0.631024 angstrom
           Maximum rank =  0   Radius =  0.325 angstrom
                   Q00  =   0.071585

H          x = -0.375415  y =  2.509300  z =  2.900976 angstrom
           Maximum rank =  0   Radius =  0.325 angstrom
                   Q00  =   0.063613

H          x = -2.324415  y =  3.397300  z =  1.650976 angstrom
           Maximum rank =  0   Radius =  0.325 angstrom
                   Q00  =   0.067339

H          x =  2.868225  y =  0.299968  z = -0.003224 angstrom
           Maximum rank =  0   Radius =  0.325 angstrom
                   Q00  =   0.084514

H          x =  2.216755  y =  0.847595  z = -1.602774 angstrom
           Maximum rank =  0   Radius =  0.325 angstrom
                   Q00  =   0.088350

Total multipoles referred to origin at
           x =   0.000000,  y =    0.000000,  z =    0.000000 angstrom
                   Q00  =  -0.000000

Finished at 23:4:5 on 27 Apr 2020

  DMA results are available in the Python driver through the
	  variable('DMA DISTRIBUTED MULTIPOLES')
  and
	  variable('DMA TOTAL MULTIPOLES')
  commands.

    Psi4 stopped on: Monday, 27 April 2020 11:04PM
    Psi4 wall time for execution: 0:02:45.25

*** Psi4 exiting successfully. Buy a developer a beer!
