                               Psi4 1.3.2 release

  ==> Input File <==

--------------------------------------------------------------------------
import numpy as np
set {scf_type pk
basis cc-pvdz
d_convergence 10
gdma_switch   0
gdma_limit    0
gdma_origin   [ 0.0,  0.0,  0.0 ]
}
molecule test {
    units Angstrom
    0 1
    --
    0 1
    C               -2.042007304799832    -2.330852829698380     2.782295806031121
    C               -2.283007304799832    -1.066852829698380     2.033295806031122
    O               -2.734007304799833    -1.103852829698380     0.878295806031122
    N               -1.962007304799832     0.052147170301620     2.651295806031121
    H               -2.753007304799833    -3.067852829698380     2.418295806031121
    H               -2.239007304799832    -2.193852829698380     3.838295806031122
    H               -2.140007304799832     0.930147170301620     2.191295806031121
    H               -1.604007304799832     0.021147170301620     3.607295806031122
    H               -0.998207304799833    -2.658674829698380     2.668175806031122
    C                0.687992695200167    -1.695852829698380    -2.971704193968878
    C                0.523992695200168     0.700147170301620     0.040295806031122
    C                1.494992695200168     1.660147170301620    -0.269704193968878
    C                0.247992695200168    -0.358852829698380    -0.837704193968878
    C                0.921992695200167    -0.482852829698380    -2.060704193968878
    C                2.203992695200168     1.543147170301620    -1.484704193968878
    C                1.915992695200168     0.456147170301620    -2.365704193968879
    O                1.729992695200167     2.700147170301620     0.600295806031122
    H               -0.006007304799832     0.780147170301620     0.975295806031122
    H               -0.495007304799833    -1.094852829698380    -0.563704193968878
    H                2.963992695200168     2.268147170301620    -1.742704193968878
    H                2.403992695200167     3.301147170301620     0.260295806031122
    H                0.704992695200167    -1.399852829698380    -4.021704193968879
    H               -0.297007304799833    -2.105852829698380    -2.745704193968878
    H                2.467992695200167     0.368147170301620    -3.292704193968878
    H                1.465452695200167    -2.445546829698380    -2.763104193968879

}
e, wfn = energy('scf', return_wfn=True)
gdma(wfn)
dmavals = variable('DMA DISTRIBUTED MULTIPOLES')
charges = np.array(dmavals)
print(charges)
np.save('SSI-051GLN-098TYR-1-dimer.npy', np.array(charges))--------------------------------------------------------------------------

*** tstart() called on ds3
*** at Sun Apr 26 23:04:26 2020

   => Loading Basis Set <=

    Name: CC-PVDZ
    Role: ORBITAL
    Keyword: BASIS
    atoms 1-2, 10-16 entry C          line   138 file /theoryfs2/ds/metcalf/miniconda2/envs/tf2gpu/share/psi4/basis/cc-pvdz.gbs
    atoms 3, 17      entry O          line   198 file /theoryfs2/ds/metcalf/miniconda2/envs/tf2gpu/share/psi4/basis/cc-pvdz.gbs
    atoms 4          entry N          line   168 file /theoryfs2/ds/metcalf/miniconda2/envs/tf2gpu/share/psi4/basis/cc-pvdz.gbs
    atoms 5-9, 18-25 entry H          line    22 file /theoryfs2/ds/metcalf/miniconda2/envs/tf2gpu/share/psi4/basis/cc-pvdz.gbs

         ---------------------------------------------------------
                                   SCF
               by Justin Turney, Rob Parrish, Andy Simmonett
                          and Daniel G. A. Smith
                              RHF Reference
                        1 Threads,    500 MiB Core
         ---------------------------------------------------------

  ==> Geometry <==

    Molecular point group: c1
    Full point group: C1

    Geometry (in Angstrom), charge = 0, multiplicity = 1:

       Center              X                  Y                   Z               Mass
    ------------   -----------------  -----------------  -----------------  -----------------
         C           -2.042007304800    -2.330852829698     2.782295806031    12.000000000000
         C           -2.283007304800    -1.066852829698     2.033295806031    12.000000000000
         O           -2.734007304800    -1.103852829698     0.878295806031    15.994914619570
         N           -1.962007304800     0.052147170302     2.651295806031    14.003074004430
         H           -2.753007304800    -3.067852829698     2.418295806031     1.007825032230
         H           -2.239007304800    -2.193852829698     3.838295806031     1.007825032230
         H           -2.140007304800     0.930147170302     2.191295806031     1.007825032230
         H           -1.604007304800     0.021147170302     3.607295806031     1.007825032230
         H           -0.998207304800    -2.658674829698     2.668175806031     1.007825032230
         C            0.687992695200    -1.695852829698    -2.971704193969    12.000000000000
         C            0.523992695200     0.700147170302     0.040295806031    12.000000000000
         C            1.494992695200     1.660147170302    -0.269704193969    12.000000000000
         C            0.247992695200    -0.358852829698    -0.837704193969    12.000000000000
         C            0.921992695200    -0.482852829698    -2.060704193969    12.000000000000
         C            2.203992695200     1.543147170302    -1.484704193969    12.000000000000
         C            1.915992695200     0.456147170302    -2.365704193969    12.000000000000
         O            1.729992695200     2.700147170302     0.600295806031    15.994914619570
         H           -0.006007304800     0.780147170302     0.975295806031     1.007825032230
         H           -0.495007304800    -1.094852829698    -0.563704193969     1.007825032230
         H            2.963992695200     2.268147170302    -1.742704193969     1.007825032230
         H            2.403992695200     3.301147170302     0.260295806031     1.007825032230
         H            0.704992695200    -1.399852829698    -4.021704193969     1.007825032230
         H           -0.297007304800    -2.105852829698    -2.745704193969     1.007825032230
         H            2.467992695200     0.368147170302    -3.292704193969     1.007825032230
         H            1.465452695200    -2.445546829698    -2.763104193969     1.007825032230

  Running in c1 symmetry.

  Rotational constants: A =      0.03858  B =      0.01509  C =      0.01141 [cm^-1]
  Rotational constants: A =   1156.45675  B =    452.25991  C =    341.94033 [MHz]
  Nuclear repulsion =  648.090476578418929

  Charge       = 0
  Multiplicity = 1
  Electrons    = 90
  Nalpha       = 45
  Nbeta        = 45

  ==> Algorithm <==

  SCF Algorithm Type is PK.
  DIIS enabled.
  MOM disabled.
  Fractional occupation disabled.
  Guess Type is SAD.
  Energy threshold   = 1.00e-06
  Density threshold  = 1.00e-10
  Integral threshold = 0.00e+00

  ==> Primary Basis <==

  Basis Set: CC-PVDZ
    Blend: CC-PVDZ
    Number of shells: 111
    Number of basis function: 233
    Number of Cartesian functions: 245
    Spherical Harmonics?: true
    Max angular momentum: 2

  ==> Pre-Iterations <==

   -------------------------------------------------------
    Irrep   Nso     Nmo     Nalpha   Nbeta   Ndocc  Nsocc
   -------------------------------------------------------
     A        233     233       0       0       0       0
   -------------------------------------------------------
    Total     233     233      45      45      45       0
   -------------------------------------------------------

  ==> Integral Setup <==

  Using integral reordering PK algorithm.
  Sizing the integral batches needed.
  Building batch lookup table.
   Calculation information:
      Number of atoms:                  25
      Number of AO shells:             111
      Number of primitives:            329
      Number of atomic orbitals:       245
      Number of basis functions:       233

      Integral cutoff                 1.00e-12
      Number of threads:                 1

	Batch   1 pq = [       0,    9405] index = [             0,44231715] size =     44231715
	Batch   2 pq = [    9405,   13301] index = [      44231715,88464951] size =     44233236
	Batch   3 pq = [   13301,   16290] index = [      88464951,132690195] size =     44225244
	Batch   4 pq = [   16290,   18810] index = [     132690195,176917455] size =     44227260
	Batch   5 pq = [   18810,   21030] index = [     176917455,221140965] size =     44223510
	Batch   6 pq = [   21030,   23037] index = [     221140965,265363203] size =     44222238
	Batch   7 pq = [   23037,   24883] index = [     265363203,309594286] size =     44231083
	Batch   8 pq = [   24883,   26601] index = [     309594286,353819901] size =     44225615
	Batch   9 pq = [   26601,   27261] index = [     353819901,371594691] size =     17774790
  Task number: 34
  Buffer size: 11059200
  Buffer per thread: 2
  We computed 16275254 shell quartets total.
  Whereas there are 19322436 unique shell quartets.

  ==> DiskJK: Disk-Based J/K Matrices <==

    J tasked:                  Yes
    K tasked:                  Yes
    wK tasked:                  No
    Memory [MiB]:              375
    Schwarz Cutoff:          1E-12

    OpenMP threads:              1

  Minimum eigenvalue in the overlap matrix is 3.4890044588E-04.
  Using Symmetric Orthogonalization.

  SCF Guess: Superposition of Atomic Densities via on-the-fly atomic UHF.

  ==> Iterations <==

                        Total Energy        Delta E     RMS |[F,P]|

   @RHF iter SAD:  -551.07644797269847   -5.51076e+02   0.00000e+00
   @RHF iter   1:  -552.29249829229377   -1.21605e+00   3.20377e-03 DIIS
   @RHF iter   2:  -552.54592176216477   -2.53423e-01   1.70646e-03 DIIS
   @RHF iter   3:  -552.60795276854276   -6.20310e-02   4.02266e-04 DIIS
   @RHF iter   4:  -552.61295892286250   -5.00615e-03   1.56085e-04 DIIS
   @RHF iter   5:  -552.61376677683324   -8.07854e-04   2.42351e-05 DIIS
   @RHF iter   6:  -552.61380463234286   -3.78555e-05   1.13211e-05 DIIS
   @RHF iter   7:  -552.61381118448105   -6.55214e-06   4.16603e-06 DIIS
   @RHF iter   8:  -552.61381256306663   -1.37859e-06   1.60179e-06 DIIS
   @RHF iter   9:  -552.61381275908104   -1.96014e-07   6.45338e-07 DIIS
   @RHF iter  10:  -552.61381278979343   -3.07124e-08   2.34816e-07 DIIS
   @RHF iter  11:  -552.61381279512875   -5.33532e-09   7.97178e-08 DIIS
   @RHF iter  12:  -552.61381279582156   -6.92808e-10   4.24635e-08 DIIS
   @RHF iter  13:  -552.61381279601426   -1.92699e-10   1.87358e-08 DIIS
   @RHF iter  14:  -552.61381279606792   -5.36602e-11   7.76679e-09 DIIS
   @RHF iter  15:  -552.61381279607326   -5.34328e-12   2.86503e-09 DIIS
   @RHF iter  16:  -552.61381279607531   -2.04636e-12   9.56254e-10 DIIS
   @RHF iter  17:  -552.61381279607849   -3.18323e-12   3.99603e-10 DIIS
   @RHF iter  18:  -552.61381279607849    0.00000e+00   1.16056e-10 DIIS
   @RHF iter  19:  -552.61381279607531    3.18323e-12   5.33729e-11 DIIS
  Energy and wave function converged.

  ==> Post-Iterations <==

    Orbital Energies [Eh]
    ---------------------

    Doubly Occupied:

       1A    -20.581644     2A    -20.506314     3A    -15.596328
       4A    -11.349541     5A    -11.297298     6A    -11.240636
       7A    -11.236490     8A    -11.233125     9A    -11.228995
      10A    -11.227862    11A    -11.223499    12A    -11.222956
      13A     -1.390698    14A     -1.365669    15A     -1.224183
      16A     -1.133004    17A     -1.024242    18A     -1.008834
      19A     -1.000414    20A     -0.916766    21A     -0.833677
      22A     -0.804747    23A     -0.790611    24A     -0.732305
      25A     -0.720124    26A     -0.661006    27A     -0.654249
      28A     -0.632012    29A     -0.620319    30A     -0.598541
      31A     -0.577677    32A     -0.574300    33A     -0.569234
      34A     -0.564290    35A     -0.559160    36A     -0.556513
      37A     -0.523403    38A     -0.520604    39A     -0.483522
      40A     -0.475951    41A     -0.456245    42A     -0.413846
      43A     -0.406050    44A     -0.324104    45A     -0.295689

    Virtual:

      46A      0.134335    47A      0.158748    48A      0.162138
      49A      0.183075    50A      0.184843    51A      0.200761
      52A      0.213717    53A      0.228077    54A      0.230317
      55A      0.259177    56A      0.265804    57A      0.269163
      58A      0.279098    59A      0.286120    60A      0.305767
      61A      0.326343    62A      0.370030    63A      0.376355
      64A      0.387447    65A      0.420205    66A      0.449227
      67A      0.467462    68A      0.491083    69A      0.509935
      70A      0.519485    71A      0.564430    72A      0.608671
      73A      0.628979    74A      0.643372    75A      0.645432
      76A      0.652842    77A      0.671547    78A      0.681663
      79A      0.698602    80A      0.700459    81A      0.714568
      82A      0.719227    83A      0.730430    84A      0.733703
      85A      0.747905    86A      0.754248    87A      0.774244
      88A      0.780785    89A      0.791115    90A      0.794985
      91A      0.827596    92A      0.838648    93A      0.847283
      94A      0.851081    95A      0.864145    96A      0.869634
      97A      0.884532    98A      0.888417    99A      0.888803
     100A      0.907639   101A      0.911857   102A      0.920529
     103A      0.932441   104A      0.935752   105A      0.952247
     106A      0.954349   107A      0.964303   108A      0.998948
     109A      1.014291   110A      1.038444   111A      1.048450
     112A      1.059655   113A      1.111153   114A      1.117140
     115A      1.130591   116A      1.138858   117A      1.150491
     118A      1.176548   119A      1.187229   120A      1.217932
     121A      1.249474   122A      1.251626   123A      1.279937
     124A      1.285008   125A      1.288681   126A      1.305911
     127A      1.321983   128A      1.331334   129A      1.358089
     130A      1.363422   131A      1.380040   132A      1.394353
     133A      1.403783   134A      1.452461   135A      1.464179
     136A      1.472109   137A      1.496885   138A      1.506367
     139A      1.522790   140A      1.538200   141A      1.577455
     142A      1.617195   143A      1.629762   144A      1.644163
     145A      1.650870   146A      1.669384   147A      1.707326
     148A      1.727892   149A      1.743109   150A      1.758432
     151A      1.786824   152A      1.799351   153A      1.807565
     154A      1.816910   155A      1.855222   156A      1.867654
     157A      1.873534   158A      1.876612   159A      1.890858
     160A      1.901015   161A      1.907799   162A      1.915468
     163A      1.926641   164A      1.929202   165A      1.945653
     166A      1.960220   167A      1.965692   168A      1.976088
     169A      1.982388   170A      1.993314   171A      2.037274
     172A      2.041874   173A      2.052430   174A      2.056631
     175A      2.065803   176A      2.069842   177A      2.087902
     178A      2.141385   179A      2.149859   180A      2.164338
     181A      2.187289   182A      2.205750   183A      2.215865
     184A      2.231336   185A      2.260238   186A      2.263451
     187A      2.275999   188A      2.304565   189A      2.334538
     190A      2.372164   191A      2.407820   192A      2.436462
     193A      2.454527   194A      2.463990   195A      2.474860
     196A      2.492291   197A      2.498672   198A      2.520943
     199A      2.534571   200A      2.563245   201A      2.567821
     202A      2.611026   203A      2.611914   204A      2.616558
     205A      2.735779   206A      2.751301   207A      2.759196
     208A      2.779068   209A      2.781833   210A      2.804998
     211A      2.826425   212A      2.836611   213A      2.862576
     214A      2.898970   215A      2.943848   216A      2.990843
     217A      3.001300   218A      3.063544   219A      3.081549
     220A      3.100788   221A      3.139192   222A      3.245004
     223A      3.268312   224A      3.273870   225A      3.339485
     226A      3.492028   227A      3.547945   228A      3.555888
     229A      3.649287   230A      3.854754   231A      3.902827
     232A      3.921854   233A      4.178715

    Final Occupation by Irrep:
              A
    DOCC [    45 ]

  @RHF Final Energy:  -552.61381279607531

   => Energetics <=

    Nuclear Repulsion Energy =            648.0904765784189294
    One-Electron Energy =               -2038.6952285119482440
    Two-Electron Energy =                 837.9909391374540064
    Total Energy =                       -552.6138127960753081

Computation Completed

Properties will be evaluated at   0.000000,   0.000000,   0.000000 [a0]

Properties computed using the SCF density matrix

  Nuclear Dipole Moment: [e a0]
     X:    -0.4921      Y:    -6.8338      Z:     0.7769

  Electronic Dipole Moment: [e a0]
     X:     1.2570      Y:     7.0973      Z:     0.4445

  Dipole Moment: [e a0]
     X:     0.7649      Y:     0.2635      Z:     1.2213     Total:     1.4650

  Dipole Moment: [D]
     X:     1.9442      Y:     0.6699      Z:     3.1043     Total:     3.7236

*** tstop() called on ds3 at Sun Apr 26 23:08:02 2020
Module time:
	user time   =     128.42 seconds =       2.14 minutes
	system time =      59.65 seconds =       0.99 minutes
	total time  =        216 seconds =       3.60 minutes
Total time:
	user time   =     128.42 seconds =       2.14 minutes
	system time =      59.65 seconds =       0.99 minutes
	total time  =        216 seconds =       3.60 minutes
                                     G D M A

                                 by Anthony Stone

                           version 2.2.06, 22 June 2011

               Distributed Multipoles from Gaussian wavefunctions

Starting at 23:8:2 on 26 Apr 2020

Using SCF density matrix from file ./SSI/SSI-051GLN-098TYR-1-dimer.test.23438.fchk

                         Distributed Multipole Analysis

Standard DMA

Positions and radii in angstrom
Multipole moments in atomic units, ea_0^k for rank k

C          x = -2.042007  y = -2.330853  z =  2.782296 angstrom
           Maximum rank =  0   Radius =  0.650 angstrom
                   Q00  =  -0.258975

C          x = -2.283007  y = -1.066853  z =  2.033296 angstrom
           Maximum rank =  0   Radius =  0.650 angstrom
                   Q00  =   0.825454

O          x = -2.734007  y = -1.103853  z =  0.878296 angstrom
           Maximum rank =  0   Radius =  0.650 angstrom
                   Q00  =  -0.806558

N          x = -1.962007  y =  0.052147  z =  2.651296 angstrom
           Maximum rank =  0   Radius =  0.650 angstrom
                   Q00  =  -0.528725

H          x = -2.753007  y = -3.067853  z =  2.418296 angstrom
           Maximum rank =  0   Radius =  0.325 angstrom
                   Q00  =   0.129125

H          x = -2.239007  y = -2.193853  z =  3.838296 angstrom
           Maximum rank =  0   Radius =  0.325 angstrom
                   Q00  =   0.082216

H          x = -2.140007  y =  0.930147  z =  2.191296 angstrom
           Maximum rank =  0   Radius =  0.325 angstrom
                   Q00  =   0.227711

H          x = -1.604007  y =  0.021147  z =  3.607296 angstrom
           Maximum rank =  0   Radius =  0.325 angstrom
                   Q00  =   0.213655

H          x = -0.998207  y = -2.658675  z =  2.668176 angstrom
           Maximum rank =  0   Radius =  0.325 angstrom
                   Q00  =   0.127266

C          x =  0.687993  y = -1.695853  z = -2.971704 angstrom
           Maximum rank =  0   Radius =  0.650 angstrom
                   Q00  =  -0.199726

C          x =  0.523993  y =  0.700147  z =  0.040296 angstrom
           Maximum rank =  0   Radius =  0.650 angstrom
                   Q00  =  -0.080360

C          x =  1.494993  y =  1.660147  z = -0.269704 angstrom
           Maximum rank =  0   Radius =  0.650 angstrom
                   Q00  =   0.295897

C          x =  0.247993  y = -0.358853  z = -0.837704 angstrom
           Maximum rank =  0   Radius =  0.650 angstrom
                   Q00  =   0.050135

C          x =  0.921993  y = -0.482853  z = -2.060704 angstrom
           Maximum rank =  0   Radius =  0.650 angstrom
                   Q00  =  -0.148087

C          x =  2.203993  y =  1.543147  z = -1.484704 angstrom
           Maximum rank =  0   Radius =  0.650 angstrom
                   Q00  =  -0.198681

C          x =  1.915993  y =  0.456147  z = -2.365704 angstrom
           Maximum rank =  0   Radius =  0.650 angstrom
                   Q00  =  -0.022857

O          x =  1.729993  y =  2.700147  z =  0.600296 angstrom
           Maximum rank =  0   Radius =  0.650 angstrom
                   Q00  =  -0.685846

H          x = -0.006007  y =  0.780147  z =  0.975296 angstrom
           Maximum rank =  0   Radius =  0.325 angstrom
                   Q00  =   0.055217

H          x = -0.495007  y = -1.094853  z = -0.563704 angstrom
           Maximum rank =  0   Radius =  0.325 angstrom
                   Q00  =   0.074191

H          x =  2.963993  y =  2.268147  z = -1.742704 angstrom
           Maximum rank =  0   Radius =  0.325 angstrom
                   Q00  =   0.072546

H          x =  2.403993  y =  3.301147  z =  0.260296 angstrom
           Maximum rank =  0   Radius =  0.325 angstrom
                   Q00  =   0.405834

H          x =  0.704993  y = -1.399853  z = -4.021704 angstrom
           Maximum rank =  0   Radius =  0.325 angstrom
                   Q00  =   0.099120

H          x = -0.297007  y = -2.105853  z = -2.745704 angstrom
           Maximum rank =  0   Radius =  0.325 angstrom
                   Q00  =   0.105585

H          x =  2.467993  y =  0.368147  z = -3.292704 angstrom
           Maximum rank =  0   Radius =  0.325 angstrom
                   Q00  =   0.068202

H          x =  1.465453  y = -2.445547  z = -2.763104 angstrom
           Maximum rank =  0   Radius =  0.325 angstrom
                   Q00  =   0.097661

Total multipoles referred to origin at
           x =   0.000000,  y =    0.000000,  z =    0.000000 angstrom
                   Q00  =  -0.000000

Finished at 23:8:2 on 26 Apr 2020

  DMA results are available in the Python driver through the
	  variable('DMA DISTRIBUTED MULTIPOLES')
  and
	  variable('DMA TOTAL MULTIPOLES')
  commands.

    Psi4 stopped on: Sunday, 26 April 2020 11:08PM
    Psi4 wall time for execution: 0:03:35.84

*** Psi4 exiting successfully. Buy a developer a beer!
