                               Psi4 1.3.2 release

  ==> Input File <==

--------------------------------------------------------------------------
import numpy as np
set {scf_type pk
basis cc-pvdz
d_convergence 10
gdma_switch   0
gdma_limit    0
gdma_origin   [ 0.0,  0.0,  0.0 ]
}
molecule test {
    units Angstrom
    0 1
    --
    0 1
    C                1.255499559458689     4.813866919623504     2.240503722061709
    C                0.290499559458689     2.582866919623505    -1.332496277938292
    C               -0.719500440541311     3.270866919623505    -0.641496277938292
    C                1.611499559458689     2.616866919623504    -0.850496277938292
    C               -0.420500440541311     3.986866919623504     0.523503722061708
    C                1.903499559458689     3.341866919623504     0.317503722061708
    C                0.901499559458689     4.028866919623504     1.004503722061708
    H                0.052499559458689     2.031866919623504    -2.227496277938291
    H               -1.732500440541311     3.259866919623505    -1.018496277938292
    H                2.397499559458689     2.091866919623504    -1.377496277938292
    H               -1.201500440541311     4.525866919623504     1.041503722061708
    H                2.922499559458689     3.370866919623504     0.678503722061708
    H                0.741499559458689     5.757866919623504     2.220503722061708
    H                2.314499559458689     5.069866919623505     2.178503722061708
    H                1.096139559458689     4.278356919623504     3.188047022061709
    C               -2.874500440541311    -0.847133080376495     0.592503722061708
    C               -0.348500440541311    -0.447133080376495     0.523503722061708
    C               -1.440500440541311    -1.244133080376495     0.350503722061708
    C                0.461499559458689    -2.421133080376495    -0.188496277938292
    C               -0.956500440541311    -2.520133080376496    -0.115496277938292
    C                1.272499559458689    -3.468133080376495    -0.609496277938292
    C               -1.571500440541311    -3.727133080376495    -0.492496277938292
    C                0.645499559458689    -4.645133080376495    -0.980496277938292
    C               -0.763500440541311    -4.779133080376496    -0.934496277938292
    N                0.789499559458689    -1.151133080376495     0.208503722061708
    H               -0.380500440541311     0.586866919623505     0.855503722061708
    H                1.725499559458689    -0.764133080376495     0.249503722061708
    H               -2.910500440541311     0.105866919623505     1.119503722061708
    H               -3.339500440541311    -1.606133080376495     1.222503722061708
    H                2.348499559458689    -3.366133080376495    -0.640496277938292
    H               -2.642500440541311    -3.835133080376496    -0.433496277938292
    H                1.243499559458689    -5.484133080376496    -1.311496277938292
    H               -1.214500440541311    -5.717133080376496    -1.224496277938292
    H               -3.424290440541311    -0.775983080376495    -0.357586277938292

}
e, wfn = energy('scf', return_wfn=True)
gdma(wfn)
dmavals = variable('DMA DISTRIBUTED MULTIPOLES')
charges = np.array(dmavals)
print(charges)
np.save('SSI-005PHE-050TRP-1-dimer.npy', np.array(charges))--------------------------------------------------------------------------

*** tstart() called on ds3
*** at Tue Apr 28 00:45:24 2020

   => Loading Basis Set <=

    Name: CC-PVDZ
    Role: ORBITAL
    Keyword: BASIS
    atoms 1-7, 16-24  entry C          line   138 file /theoryfs2/ds/metcalf/miniconda2/envs/tf2gpu/share/psi4/basis/cc-pvdz.gbs
    atoms 8-15, 26-34 entry H          line    22 file /theoryfs2/ds/metcalf/miniconda2/envs/tf2gpu/share/psi4/basis/cc-pvdz.gbs
    atoms 25          entry N          line   168 file /theoryfs2/ds/metcalf/miniconda2/envs/tf2gpu/share/psi4/basis/cc-pvdz.gbs

         ---------------------------------------------------------
                                   SCF
               by Justin Turney, Rob Parrish, Andy Simmonett
                          and Daniel G. A. Smith
                              RHF Reference
                        1 Threads,    500 MiB Core
         ---------------------------------------------------------

  ==> Geometry <==

    Molecular point group: c1
    Full point group: C1

    Geometry (in Angstrom), charge = 0, multiplicity = 1:

       Center              X                  Y                   Z               Mass
    ------------   -----------------  -----------------  -----------------  -----------------
         C            1.255499559459     4.813866919624     2.240503722062    12.000000000000
         C            0.290499559459     2.582866919624    -1.332496277938    12.000000000000
         C           -0.719500440541     3.270866919624    -0.641496277938    12.000000000000
         C            1.611499559459     2.616866919624    -0.850496277938    12.000000000000
         C           -0.420500440541     3.986866919624     0.523503722062    12.000000000000
         C            1.903499559459     3.341866919624     0.317503722062    12.000000000000
         C            0.901499559459     4.028866919624     1.004503722062    12.000000000000
         H            0.052499559459     2.031866919624    -2.227496277938     1.007825032230
         H           -1.732500440541     3.259866919624    -1.018496277938     1.007825032230
         H            2.397499559459     2.091866919624    -1.377496277938     1.007825032230
         H           -1.201500440541     4.525866919624     1.041503722062     1.007825032230
         H            2.922499559459     3.370866919624     0.678503722062     1.007825032230
         H            0.741499559459     5.757866919624     2.220503722062     1.007825032230
         H            2.314499559459     5.069866919624     2.178503722062     1.007825032230
         H            1.096139559459     4.278356919624     3.188047022062     1.007825032230
         C           -2.874500440541    -0.847133080376     0.592503722062    12.000000000000
         C           -0.348500440541    -0.447133080376     0.523503722062    12.000000000000
         C           -1.440500440541    -1.244133080376     0.350503722062    12.000000000000
         C            0.461499559459    -2.421133080376    -0.188496277938    12.000000000000
         C           -0.956500440541    -2.520133080376    -0.115496277938    12.000000000000
         C            1.272499559459    -3.468133080376    -0.609496277938    12.000000000000
         C           -1.571500440541    -3.727133080376    -0.492496277938    12.000000000000
         C            0.645499559459    -4.645133080376    -0.980496277938    12.000000000000
         C           -0.763500440541    -4.779133080376    -0.934496277938    12.000000000000
         N            0.789499559459    -1.151133080376     0.208503722062    14.003074004430
         H           -0.380500440541     0.586866919624     0.855503722062     1.007825032230
         H            1.725499559459    -0.764133080376     0.249503722062     1.007825032230
         H           -2.910500440541     0.105866919624     1.119503722062     1.007825032230
         H           -3.339500440541    -1.606133080376     1.222503722062     1.007825032230
         H            2.348499559459    -3.366133080376    -0.640496277938     1.007825032230
         H           -2.642500440541    -3.835133080376    -0.433496277938     1.007825032230
         H            1.243499559459    -5.484133080376    -1.311496277938     1.007825032230
         H           -1.214500440541    -5.717133080376    -1.224496277938     1.007825032230
         H           -3.424290440541    -0.775983080376    -0.357586277938     1.007825032230

  Running in c1 symmetry.

  Rotational constants: A =      0.03434  B =      0.00653  C =      0.00602 [cm^-1]
  Rotational constants: A =   1029.34046  B =    195.77404  C =    180.51087 [MHz]
  Nuclear repulsion = 1053.270813717084366

  Charge       = 0
  Multiplicity = 1
  Electrons    = 120
  Nalpha       = 60
  Nbeta        = 60

  ==> Algorithm <==

  SCF Algorithm Type is PK.
  DIIS enabled.
  MOM disabled.
  Fractional occupation disabled.
  Guess Type is SAD.
  Energy threshold   = 1.00e-06
  Density threshold  = 1.00e-10
  Integral threshold = 0.00e+00

  ==> Primary Basis <==

  Basis Set: CC-PVDZ
    Blend: CC-PVDZ
    Number of shells: 153
    Number of basis function: 323
    Number of Cartesian functions: 340
    Spherical Harmonics?: true
    Max angular momentum: 2

  ==> Pre-Iterations <==

   -------------------------------------------------------
    Irrep   Nso     Nmo     Nalpha   Nbeta   Ndocc  Nsocc
   -------------------------------------------------------
     A        323     323       0       0       0       0
   -------------------------------------------------------
    Total     323     323      60      60      60       0
   -------------------------------------------------------

  ==> Integral Setup <==

  Using integral reordering PK algorithm.
  Sizing the integral batches needed.
  Building batch lookup table.
   Calculation information:
      Number of atoms:                  34
      Number of AO shells:             153
      Number of primitives:            459
      Number of atomic orbitals:       340
      Number of basis functions:       323

      Integral cutoff                 1.00e-12
      Number of threads:                 1

	Batch   1 pq = [       0,    9405] index = [             0,44231715] size =     44231715
	Batch   2 pq = [    9405,   13301] index = [      44231715,88464951] size =     44233236
	Batch   3 pq = [   13301,   16290] index = [      88464951,132690195] size =     44225244
	Batch   4 pq = [   16290,   18810] index = [     132690195,176917455] size =     44227260
	Batch   5 pq = [   18810,   21030] index = [     176917455,221140965] size =     44223510
	Batch   6 pq = [   21030,   23037] index = [     221140965,265363203] size =     44222238
	Batch   7 pq = [   23037,   24883] index = [     265363203,309594286] size =     44231083
	Batch   8 pq = [   24883,   26601] index = [     309594286,353819901] size =     44225615
	Batch   9 pq = [   26601,   28214] index = [     353819901,398029005] size =     44209104
	Batch  10 pq = [   28214,   29740] index = [     398029005,442248670] size =     44219665
	Batch  11 pq = [   29740,   31191] index = [     442248670,486454836] size =     44206166
	Batch  12 pq = [   31191,   32578] index = [     486454836,530679331] size =     44224495
	Batch  13 pq = [   32578,   33908] index = [     530679331,574893186] size =     44213855
	Batch  14 pq = [   33908,   35188] index = [     574893186,619115266] size =     44222080
	Batch  15 pq = [   35188,   36423] index = [     619115266,663335676] size =     44220410
	Batch  16 pq = [   36423,   37617] index = [     663335676,707538153] size =     44202477
	Batch  17 pq = [   37617,   38775] index = [     707538153,751769700] size =     44231547
	Batch  18 pq = [   38775,   39899] index = [     751769700,795985050] size =     44215350
	Batch  19 pq = [   39899,   40992] index = [     795985050,840192528] size =     44207478
	Batch  20 pq = [   40992,   42057] index = [     840192528,884416653] size =     44224125
	Batch  21 pq = [   42057,   43095] index = [     884416653,928611060] size =     44194407
	Batch  22 pq = [   43095,   44109] index = [     928611060,972823995] size =     44212935
	Batch  23 pq = [   44109,   45100] index = [     972823995,1017027550] size =     44203555
	Batch  24 pq = [   45100,   46070] index = [    1017027550,1061245485] size =     44217935
	Batch  25 pq = [   46070,   47020] index = [    1061245485,1105463710] size =     44218225
	Batch  26 pq = [   47020,   47951] index = [    1105463710,1149673176] size =     44209466
	Batch  27 pq = [   47951,   48864] index = [    1149673176,1193869680] size =     44196504
	Batch  28 pq = [   48864,   49761] index = [    1193869680,1238103441] size =     44233761
	Batch  29 pq = [   49761,   50642] index = [    1238103441,1282331403] size =     44227962
	Batch  30 pq = [   50642,   51508] index = [    1282331403,1326562786] size =     44231383
	Batch  31 pq = [   51508,   52326] index = [    1326562786,1369031301] size =     42468515
  Task number: 124
  Buffer size: 11059200
  Buffer per thread: 2
  We computed 65876574 shell quartets total.
  Whereas there are 69401871 unique shell quartets.

  ==> DiskJK: Disk-Based J/K Matrices <==

    J tasked:                  Yes
    K tasked:                  Yes
    wK tasked:                  No
    Memory [MiB]:              375
    Schwarz Cutoff:          1E-12

    OpenMP threads:              1

  Minimum eigenvalue in the overlap matrix is 2.4670709424E-04.
  Using Symmetric Orthogonalization.

  SCF Guess: Superposition of Atomic Densities via on-the-fly atomic UHF.

  ==> Iterations <==

                        Total Energy        Delta E     RMS |[F,P]|

   @RHF iter SAD:  -669.35383924238351   -6.69354e+02   0.00000e+00
   @RHF iter   1:  -669.96022132689006   -6.06382e-01   2.11624e-03 DIIS
   @RHF iter   2:  -670.24638788893083   -2.86167e-01   8.90252e-04 DIIS
   @RHF iter   3:  -670.29077470912796   -4.43868e-02   2.43665e-04 DIIS
   @RHF iter   4:  -670.29508767174684   -4.31296e-03   1.08872e-04 DIIS
   @RHF iter   5:  -670.29577761132316   -6.89940e-04   1.64782e-05 DIIS
   @RHF iter   6:  -670.29580899830103   -3.13870e-05   7.04290e-06 DIIS
   @RHF iter   7:  -670.29581519770693   -6.19941e-06   2.77727e-06 DIIS
   @RHF iter   8:  -670.29581679120611   -1.59350e-06   1.14235e-06 DIIS
   @RHF iter   9:  -670.29581711310789   -3.21902e-07   5.14538e-07 DIIS
   @RHF iter  10:  -670.29581717872065   -6.56128e-08   2.25887e-07 DIIS
   @RHF iter  11:  -670.29581719595126   -1.72306e-08   9.06654e-08 DIIS
   @RHF iter  12:  -670.29581719831504   -2.36378e-09   3.38053e-08 DIIS
   @RHF iter  13:  -670.29581719853320   -2.18165e-10   1.03267e-08 DIIS
   @RHF iter  14:  -670.29581719855071   -1.75078e-11   4.36649e-09 DIIS
   @RHF iter  15:  -670.29581719855230   -1.59162e-12   1.82784e-09 DIIS
   @RHF iter  16:  -670.29581719854946    2.84217e-12   8.84467e-10 DIIS
   @RHF iter  17:  -670.29581719854195    7.50333e-12   4.04852e-10 DIIS
   @RHF iter  18:  -670.29581719854514   -3.18323e-12   1.48712e-10 DIIS
   @RHF iter  19:  -670.29581719855219   -7.04858e-12   5.84520e-11 DIIS
  Energy and wave function converged.

  ==> Post-Iterations <==

    Orbital Energies [Eh]
    ---------------------

    Doubly Occupied:

       1A    -15.594005     2A    -11.259292     3A    -11.255233
       4A    -11.250528     5A    -11.247191     6A    -11.245197
       7A    -11.241886     8A    -11.241586     9A    -11.241101
      10A    -11.233755    11A    -11.228423    12A    -11.227520
      13A    -11.226277    14A    -11.222655    15A    -11.219575
      16A    -11.217088    17A    -11.210725    18A     -1.287641
      19A     -1.154633    20A     -1.120682    21A     -1.065161
      22A     -1.048818    23A     -1.016387    24A     -0.992161
      25A     -0.980126    26A     -0.937271    27A     -0.924006
      28A     -0.832999    29A     -0.830641    30A     -0.801774
      31A     -0.797601    32A     -0.745321    33A     -0.712979
      34A     -0.695781    35A     -0.657302    36A     -0.639595
      37A     -0.635101    38A     -0.634283    39A     -0.598013
      40A     -0.589471    41A     -0.587172    42A     -0.585297
      43A     -0.585057    44A     -0.568987    45A     -0.561282
      46A     -0.546983    47A     -0.536953    48A     -0.527597
      49A     -0.523953    50A     -0.493600    51A     -0.491807
      52A     -0.489218    53A     -0.487243    54A     -0.466576
      55A     -0.454849    56A     -0.367078    57A     -0.339298
      58A     -0.328079    59A     -0.288619    60A     -0.269115

    Virtual:

      61A      0.122450    62A      0.127926    63A      0.134717
      64A      0.169207    65A      0.172257    66A      0.184494
      67A      0.191901    68A      0.201388    69A      0.215516
      70A      0.217749    71A      0.232366    72A      0.237040
      73A      0.240477    74A      0.244776    75A      0.255567
      76A      0.260005    77A      0.269339    78A      0.273750
      79A      0.282739    80A      0.284377    81A      0.291097
      82A      0.301119    83A      0.354005    84A      0.368948
      85A      0.378399    86A      0.385500    87A      0.411345
      88A      0.420642    89A      0.441141    90A      0.448180
      91A      0.452368    92A      0.465476    93A      0.474272
      94A      0.481971    95A      0.484561    96A      0.501490
      97A      0.513973    98A      0.554555    99A      0.580097
     100A      0.604168   101A      0.615436   102A      0.623660
     103A      0.637318   104A      0.641865   105A      0.660695
     106A      0.667588   107A      0.677071   108A      0.695028
     109A      0.697666   110A      0.702817   111A      0.711379
     112A      0.720376   113A      0.730401   114A      0.731389
     115A      0.734509   116A      0.737171   117A      0.738284
     118A      0.744748   119A      0.747000   120A      0.748357
     121A      0.755630   122A      0.761617   123A      0.765953
     124A      0.768451   125A      0.774090   126A      0.781042
     127A      0.797417   128A      0.816000   129A      0.832298
     130A      0.836858   131A      0.840364   132A      0.848755
     133A      0.855828   134A      0.862057   135A      0.872139
     136A      0.874206   137A      0.886192   138A      0.887439
     139A      0.890060   140A      0.892599   141A      0.900840
     142A      0.907557   143A      0.917012   144A      0.919416
     145A      0.925497   146A      0.934805   147A      0.937949
     148A      0.956675   149A      0.962303   150A      0.970577
     151A      0.982740   152A      0.990279   153A      0.999830
     154A      1.014341   155A      1.024282   156A      1.057623
     157A      1.069322   158A      1.079641   159A      1.096735
     160A      1.107210   161A      1.122920   162A      1.127913
     163A      1.135557   164A      1.142612   165A      1.144930
     166A      1.158636   167A      1.162181   168A      1.169890
     169A      1.183603   170A      1.212398   171A      1.216737
     172A      1.223420   173A      1.232666   174A      1.236719
     175A      1.241560   176A      1.243642   177A      1.255459
     178A      1.270762   179A      1.276890   180A      1.284671
     181A      1.298006   182A      1.303040   183A      1.305130
     184A      1.313282   185A      1.319127   186A      1.335589
     187A      1.341918   188A      1.365758   189A      1.379940
     190A      1.406010   191A      1.414248   192A      1.446119
     193A      1.502122   194A      1.505140   195A      1.526535
     196A      1.544444   197A      1.581476   198A      1.585888
     199A      1.588829   200A      1.601982   201A      1.636127
     202A      1.647950   203A      1.660733   204A      1.679847
     205A      1.685410   206A      1.694104   207A      1.695533
     208A      1.728518   209A      1.737927   210A      1.746071
     211A      1.756347   212A      1.763045   213A      1.772569
     214A      1.782104   215A      1.800697   216A      1.809309
     217A      1.816733   218A      1.828138   219A      1.837289
     220A      1.855182   221A      1.871572   222A      1.878478
     223A      1.884504   224A      1.891986   225A      1.899040
     226A      1.901501   227A      1.909550   228A      1.919317
     229A      1.919914   230A      1.926157   231A      1.929693
     232A      1.936320   233A      1.943893   234A      1.947167
     235A      1.955038   236A      1.963160   237A      1.974782
     238A      1.985185   239A      1.990402   240A      1.999586
     241A      2.012439   242A      2.025562   243A      2.034107
     244A      2.044118   245A      2.046342   246A      2.054844
     247A      2.076651   248A      2.089501   249A      2.095191
     250A      2.098215   251A      2.103130   252A      2.111996
     253A      2.123631   254A      2.139404   255A      2.143427
     256A      2.145359   257A      2.148416   258A      2.153815
     259A      2.158151   260A      2.165179   261A      2.169807
     262A      2.182157   263A      2.222964   264A      2.237776
     265A      2.244215   266A      2.261303   267A      2.278669
     268A      2.296434   269A      2.298576   270A      2.305818
     271A      2.308692   272A      2.322458   273A      2.326874
     274A      2.330244   275A      2.346402   276A      2.400465
     277A      2.434019   278A      2.452549   279A      2.457917
     280A      2.461716   281A      2.468187   282A      2.488428
     283A      2.524439   284A      2.539856   285A      2.593146
     286A      2.604780   287A      2.609545   288A      2.642918
     289A      2.661485   290A      2.678804   291A      2.705628
     292A      2.731187   293A      2.738329   294A      2.766562
     295A      2.771692   296A      2.773023   297A      2.782476
     298A      2.791040   299A      2.795598   300A      2.799314
     301A      2.829350   302A      2.851609   303A      2.869332
     304A      2.876709   305A      2.883711   306A      2.914363
     307A      2.954556   308A      2.967410   309A      2.989807
     310A      3.007386   311A      3.028774   312A      3.053346
     313A      3.071868   314A      3.117850   315A      3.131086
     316A      3.174702   317A      3.197522   318A      3.267447
     319A      3.301083   320A      3.387010   321A      3.752409
     322A      3.926187   323A      3.936309

    Final Occupation by Irrep:
              A
    DOCC [    60 ]

  @RHF Final Energy:  -670.29581719855219

   => Energetics <=

    Nuclear Repulsion Energy =           1053.2708137170843656
    One-Electron Energy =               -2998.0161643575775088
    Two-Electron Energy =                1274.4495334419409573
    Total Energy =                       -670.2958171985521858

Computation Completed

Properties will be evaluated at   0.000000,   0.000000,   0.000000 [a0]

Properties computed using the SCF density matrix

  Nuclear Dipole Moment: [e a0]
     X:    -1.8807      Y:     8.9378      Z:     3.9021

  Electronic Dipole Moment: [e a0]
     X:     2.3788      Y:    -8.0198      Z:    -3.6462

  Dipole Moment: [e a0]
     X:     0.4982      Y:     0.9180      Z:     0.2559     Total:     1.0753

  Dipole Moment: [D]
     X:     1.2662      Y:     2.3332      Z:     0.6505     Total:     2.7332

*** tstop() called on ds3 at Tue Apr 28 03:07:38 2020
Module time:
	user time   =     615.66 seconds =      10.26 minutes
	system time =     284.23 seconds =       4.74 minutes
	total time  =       8534 seconds =     142.23 minutes
Total time:
	user time   =     615.66 seconds =      10.26 minutes
	system time =     284.23 seconds =       4.74 minutes
	total time  =       8534 seconds =     142.23 minutes
                                     G D M A

                                 by Anthony Stone

                           version 2.2.06, 22 June 2011

               Distributed Multipoles from Gaussian wavefunctions

Starting at 3:7:38 on 28 Apr 2020

Using SCF density matrix from file ./SSI/SSI-005PHE-050TRP-1-dimer.test.25097.fchk

                         Distributed Multipole Analysis

Standard DMA

Positions and radii in angstrom
Multipole moments in atomic units, ea_0^k for rank k

C          x =  1.255500  y =  4.813867  z =  2.240504 angstrom
           Maximum rank =  0   Radius =  0.650 angstrom
                   Q00  =  -0.204170

C          x =  0.290500  y =  2.582867  z = -1.332496 angstrom
           Maximum rank =  0   Radius =  0.650 angstrom
                   Q00  =  -0.082372

C          x = -0.719500  y =  3.270867  z = -0.641496 angstrom
           Maximum rank =  0   Radius =  0.650 angstrom
                   Q00  =  -0.074727

C          x =  1.611500  y =  2.616867  z = -0.850496 angstrom
           Maximum rank =  0   Radius =  0.650 angstrom
                   Q00  =  -0.081872

C          x = -0.420500  y =  3.986867  z =  0.523504 angstrom
           Maximum rank =  0   Radius =  0.650 angstrom
                   Q00  =  -0.088077

C          x =  1.903500  y =  3.341867  z =  0.317504 angstrom
           Maximum rank =  0   Radius =  0.650 angstrom
                   Q00  =  -0.004039

C          x =  0.901500  y =  4.028867  z =  1.004504 angstrom
           Maximum rank =  0   Radius =  0.650 angstrom
                   Q00  =  -0.101636

H          x =  0.052500  y =  2.031867  z = -2.227496 angstrom
           Maximum rank =  0   Radius =  0.325 angstrom
                   Q00  =   0.073039

H          x = -1.732500  y =  3.259867  z = -1.018496 angstrom
           Maximum rank =  0   Radius =  0.325 angstrom
                   Q00  =   0.070561

H          x =  2.397500  y =  2.091867  z = -1.377496 angstrom
           Maximum rank =  0   Radius =  0.325 angstrom
                   Q00  =   0.067310

H          x = -1.201500  y =  4.525867  z =  1.041504 angstrom
           Maximum rank =  0   Radius =  0.325 angstrom
                   Q00  =   0.062909

H          x =  2.922500  y =  3.370867  z =  0.678504 angstrom
           Maximum rank =  0   Radius =  0.325 angstrom
                   Q00  =   0.060080

H          x =  0.741500  y =  5.757867  z =  2.220504 angstrom
           Maximum rank =  0   Radius =  0.325 angstrom
                   Q00  =   0.105286

H          x =  2.314500  y =  5.069867  z =  2.178504 angstrom
           Maximum rank =  0   Radius =  0.325 angstrom
                   Q00  =   0.094378

H          x =  1.096140  y =  4.278357  z =  3.188047 angstrom
           Maximum rank =  0   Radius =  0.325 angstrom
                   Q00  =   0.106790

C          x = -2.874500  y = -0.847133  z =  0.592504 angstrom
           Maximum rank =  0   Radius =  0.650 angstrom
                   Q00  =  -0.197413

C          x = -0.348500  y = -0.447133  z =  0.523504 angstrom
           Maximum rank =  0   Radius =  0.650 angstrom
                   Q00  =   0.085995

C          x = -1.440500  y = -1.244133  z =  0.350504 angstrom
           Maximum rank =  0   Radius =  0.650 angstrom
                   Q00  =  -0.146256

C          x =  0.461500  y = -2.421133  z = -0.188496 angstrom
           Maximum rank =  0   Radius =  0.650 angstrom
                   Q00  =   0.274726

C          x = -0.956500  y = -2.520133  z = -0.115496 angstrom
           Maximum rank =  0   Radius =  0.650 angstrom
                   Q00  =  -0.054489

C          x =  1.272500  y = -3.468133  z = -0.609496 angstrom
           Maximum rank =  0   Radius =  0.650 angstrom
                   Q00  =  -0.116598

C          x = -1.571500  y = -3.727133  z = -0.492496 angstrom
           Maximum rank =  0   Radius =  0.650 angstrom
                   Q00  =  -0.092646

C          x =  0.645500  y = -4.645133  z = -0.980496 angstrom
           Maximum rank =  0   Radius =  0.650 angstrom
                   Q00  =  -0.043253

C          x = -0.763500  y = -4.779133  z = -0.934496 angstrom
           Maximum rank =  0   Radius =  0.650 angstrom
                   Q00  =  -0.103721

N          x =  0.789500  y = -1.151133  z =  0.208504 angstrom
           Maximum rank =  0   Radius =  0.650 angstrom
                   Q00  =  -0.496151

H          x = -0.380500  y =  0.586867  z =  0.855504 angstrom
           Maximum rank =  0   Radius =  0.325 angstrom
                   Q00  =   0.111467

H          x =  1.725500  y = -0.764133  z =  0.249504 angstrom
           Maximum rank =  0   Radius =  0.325 angstrom
                   Q00  =   0.213949

H          x = -2.910500  y =  0.105867  z =  1.119504 angstrom
           Maximum rank =  0   Radius =  0.325 angstrom
                   Q00  =   0.104265

H          x = -3.339500  y = -1.606133  z =  1.222504 angstrom
           Maximum rank =  0   Radius =  0.325 angstrom
                   Q00  =   0.096075

H          x =  2.348500  y = -3.366133  z = -0.640496 angstrom
           Maximum rank =  0   Radius =  0.325 angstrom
                   Q00  =   0.072128

H          x = -2.642500  y = -3.835133  z = -0.433496 angstrom
           Maximum rank =  0   Radius =  0.325 angstrom
                   Q00  =   0.070758

H          x =  1.243500  y = -5.484133  z = -1.311496 angstrom
           Maximum rank =  0   Radius =  0.325 angstrom
                   Q00  =   0.063742

H          x = -1.214500  y = -5.717133  z = -1.224496 angstrom
           Maximum rank =  0   Radius =  0.325 angstrom
                   Q00  =   0.060858

H          x = -3.424290  y = -0.775983  z = -0.357586 angstrom
           Maximum rank =  0   Radius =  0.325 angstrom
                   Q00  =   0.093106

Total multipoles referred to origin at
           x =   0.000000,  y =    0.000000,  z =    0.000000 angstrom
                   Q00  =  -0.000000

Finished at 3:7:38 on 28 Apr 2020

  DMA results are available in the Python driver through the
	  variable('DMA DISTRIBUTED MULTIPOLES')
  and
	  variable('DMA TOTAL MULTIPOLES')
  commands.

    Psi4 stopped on: Tuesday, 28 April 2020 03:07AM
    Psi4 wall time for execution: 2:22:14.39

*** Psi4 exiting successfully. Buy a developer a beer!
