                               Psi4 1.3.2 release

  ==> Input File <==

--------------------------------------------------------------------------
import numpy as np
set {scf_type pk
basis cc-pvdz
d_convergence 10
gdma_switch   0
gdma_limit    0
gdma_origin   [ 0.0,  0.0,  0.0 ]
}
molecule test {
    units Angstrom
    0 1
    --
    0 1
    C                1.048999965760529    -0.192838200355490     0.936044401004894
    C                1.180999965760529    -0.870838200355490    -0.411955598995106
    O                2.077999965760529    -1.682838200355490    -0.642955598995106
    N                0.280999965760529    -0.533838200355490    -1.322955598995106
    H                0.298999965760529    -0.985838200355490    -2.223955598995106
    H               -0.440000034239471     0.139161799644510    -1.089955598995106
    H                0.309999965760529    -0.745838200355490     1.517044401004894
    H                0.667999965760529     0.814161799644510     0.774044401004894
    H                1.997595965760530    -0.152088200355490     1.491477401004894
    C               -2.209000034239470     1.916161799644510     1.277044401004894
    O               -1.943000034239471     1.153161799644510     0.107044401004894
    H               -2.347000034239470     0.286161799644510     0.245044401004894
    H               -1.460000034239471     1.664161799644510     2.022044401004894
    H               -2.118706134239471     2.985351799644510     1.034827401004894
    H               -3.205790634239471     1.668051799644510     1.670552401004894

}
e, wfn = energy('scf', return_wfn=True)
gdma(wfn)
dmavals = variable('DMA DISTRIBUTED MULTIPOLES')
charges = np.array(dmavals)
print(charges)
np.save('SSI-015ASN-019THR-1-dimer.npy', np.array(charges))--------------------------------------------------------------------------

*** tstart() called on ds3
*** at Mon Apr 27 23:19:51 2020

   => Loading Basis Set <=

    Name: CC-PVDZ
    Role: ORBITAL
    Keyword: BASIS
    atoms 1-2, 10    entry C          line   138 file /theoryfs2/ds/metcalf/miniconda2/envs/tf2gpu/share/psi4/basis/cc-pvdz.gbs
    atoms 3, 11      entry O          line   198 file /theoryfs2/ds/metcalf/miniconda2/envs/tf2gpu/share/psi4/basis/cc-pvdz.gbs
    atoms 4          entry N          line   168 file /theoryfs2/ds/metcalf/miniconda2/envs/tf2gpu/share/psi4/basis/cc-pvdz.gbs
    atoms 5-9, 12-15 entry H          line    22 file /theoryfs2/ds/metcalf/miniconda2/envs/tf2gpu/share/psi4/basis/cc-pvdz.gbs

         ---------------------------------------------------------
                                   SCF
               by Justin Turney, Rob Parrish, Andy Simmonett
                          and Daniel G. A. Smith
                              RHF Reference
                        1 Threads,    500 MiB Core
         ---------------------------------------------------------

  ==> Geometry <==

    Molecular point group: c1
    Full point group: C1

    Geometry (in Angstrom), charge = 0, multiplicity = 1:

       Center              X                  Y                   Z               Mass
    ------------   -----------------  -----------------  -----------------  -----------------
         C            1.048999965761    -0.192838200355     0.936044401005    12.000000000000
         C            1.180999965761    -0.870838200355    -0.411955598995    12.000000000000
         O            2.077999965761    -1.682838200355    -0.642955598995    15.994914619570
         N            0.280999965761    -0.533838200355    -1.322955598995    14.003074004430
         H            0.298999965761    -0.985838200355    -2.223955598995     1.007825032230
         H           -0.440000034239     0.139161799645    -1.089955598995     1.007825032230
         H            0.309999965761    -0.745838200355     1.517044401005     1.007825032230
         H            0.667999965761     0.814161799645     0.774044401005     1.007825032230
         H            1.997595965761    -0.152088200355     1.491477401005     1.007825032230
         C           -2.209000034239     1.916161799645     1.277044401005    12.000000000000
         O           -1.943000034239     1.153161799645     0.107044401005    15.994914619570
         H           -2.347000034239     0.286161799645     0.245044401005     1.007825032230
         H           -1.460000034239     1.664161799645     2.022044401005     1.007825032230
         H           -2.118706134239     2.985351799645     1.034827401005     1.007825032230
         H           -3.205790634239     1.668051799645     1.670552401005     1.007825032230

  Running in c1 symmetry.

  Rotational constants: A =      0.25503  B =      0.04119  C =      0.03622 [cm^-1]
  Rotational constants: A =   7645.70962  B =   1234.76089  C =   1085.83859 [MHz]
  Nuclear repulsion =  237.576601306815121

  Charge       = 0
  Multiplicity = 1
  Electrons    = 50
  Nalpha       = 25
  Nbeta        = 25

  ==> Algorithm <==

  SCF Algorithm Type is PK.
  DIIS enabled.
  MOM disabled.
  Fractional occupation disabled.
  Guess Type is SAD.
  Energy threshold   = 1.00e-06
  Density threshold  = 1.00e-10
  Integral threshold = 0.00e+00

  ==> Primary Basis <==

  Basis Set: CC-PVDZ
    Blend: CC-PVDZ
    Number of shells: 63
    Number of basis function: 129
    Number of Cartesian functions: 135
    Spherical Harmonics?: true
    Max angular momentum: 2

  ==> Pre-Iterations <==

   -------------------------------------------------------
    Irrep   Nso     Nmo     Nalpha   Nbeta   Ndocc  Nsocc
   -------------------------------------------------------
     A        129     129       0       0       0       0
   -------------------------------------------------------
    Total     129     129      25      25      25       0
   -------------------------------------------------------

  ==> Integral Setup <==

  Using integral reordering PK algorithm.
  Sizing the integral batches needed.
  Building batch lookup table.
   Calculation information:
      Number of atoms:                  15
      Number of AO shells:              63
      Number of primitives:            177
      Number of atomic orbitals:       135
      Number of basis functions:       129

      Integral cutoff                 1.00e-12
      Number of threads:                 1

	Batch   1 pq = [       0,    8385] index = [             0,35158305] size =     35158305
  Task number: 4
  Buffer size: 11059200
  Buffer per thread: 2
  We computed 1810939 shell quartets total.
  Whereas there are 2033136 unique shell quartets.

  ==> DiskJK: Disk-Based J/K Matrices <==

    J tasked:                  Yes
    K tasked:                  Yes
    wK tasked:                  No
    Memory [MiB]:              375
    Schwarz Cutoff:          1E-12

    OpenMP threads:              1

  Minimum eigenvalue in the overlap matrix is 4.5952709790E-03.
  Using Symmetric Orthogonalization.

  SCF Guess: Superposition of Atomic Densities via on-the-fly atomic UHF.

  ==> Iterations <==

                        Total Energy        Delta E     RMS |[F,P]|

   @RHF iter SAD:  -321.70322444775297   -3.21703e+02   0.00000e+00
   @RHF iter   1:  -322.83855814744885   -1.13533e+00   4.96168e-03 DIIS
   @RHF iter   2:  -322.99483299361327   -1.56275e-01   2.85930e-03 DIIS
   @RHF iter   3:  -323.04335189059583   -4.85189e-02   5.45411e-04 DIIS
   @RHF iter   4:  -323.04630835482067   -2.95646e-03   2.16195e-04 DIIS
   @RHF iter   5:  -323.04679464135768   -4.86287e-04   4.49968e-05 DIIS
   @RHF iter   6:  -323.04682769499527   -3.30536e-05   2.07324e-05 DIIS
   @RHF iter   7:  -323.04683478514340   -7.09015e-06   7.43023e-06 DIIS
   @RHF iter   8:  -323.04683611457472   -1.32943e-06   2.59605e-06 DIIS
   @RHF iter   9:  -323.04683627091345   -1.56339e-07   8.42959e-07 DIIS
   @RHF iter  10:  -323.04683628463494   -1.37215e-08   2.67001e-07 DIIS
   @RHF iter  11:  -323.04683628595308   -1.31814e-09   4.84748e-08 DIIS
   @RHF iter  12:  -323.04683628600452   -5.14433e-11   1.24279e-08 DIIS
   @RHF iter  13:  -323.04683628600702   -2.50111e-12   3.58886e-09 DIIS
   @RHF iter  14:  -323.04683628600566    1.36424e-12   1.49895e-09 DIIS
   @RHF iter  15:  -323.04683628600787   -2.21689e-12   5.55443e-10 DIIS
   @RHF iter  16:  -323.04683628600606    1.81899e-12   2.42659e-10 DIIS
   @RHF iter  17:  -323.04683628600719   -1.13687e-12   1.08219e-10 DIIS
   @RHF iter  18:  -323.04683628600742   -2.27374e-13   3.25869e-11 DIIS
  Energy and wave function converged.

  ==> Post-Iterations <==

    Orbital Energies [Eh]
    ---------------------

    Doubly Occupied:

       1A    -20.583263     2A    -20.490061     3A    -15.571400
       4A    -11.334830     5A    -11.298862     6A    -11.232367
       7A     -1.381775     8A     -1.352539     9A     -1.202115
      10A     -0.990203    11A     -0.943523    12A     -0.784954
      13A     -0.713498    14A     -0.710290    15A     -0.647788
      16A     -0.635267    17A     -0.615116    18A     -0.602589
      19A     -0.556915    20A     -0.548233    21A     -0.524949
      22A     -0.509879    23A     -0.469554    24A     -0.396704
      25A     -0.389233

    Virtual:

      26A      0.152496    27A      0.195059    28A      0.209436
      29A      0.210569    30A      0.230320    31A      0.246670
      32A      0.261216    33A      0.272864    34A      0.287273
      35A      0.330903    36A      0.347370    37A      0.401729
      38A      0.474435    39A      0.567657    40A      0.607278
      41A      0.630963    42A      0.645208    43A      0.655029
      44A      0.704493    45A      0.713777    46A      0.742065
      47A      0.758041    48A      0.772337    49A      0.819869
      50A      0.838140    51A      0.856787    52A      0.874391
      53A      0.890370    54A      0.899312    55A      0.904708
      56A      0.932210    57A      0.950621    58A      1.021638
      59A      1.040762    60A      1.075131    61A      1.112297
      62A      1.133096    63A      1.147715    64A      1.167613
      65A      1.178522    66A      1.292681    67A      1.318848
      68A      1.349249    69A      1.378617    70A      1.387104
      71A      1.411869    72A      1.433329    73A      1.457525
      74A      1.497754    75A      1.517928    76A      1.583634
      77A      1.645068    78A      1.645315    79A      1.672109
      80A      1.678459    81A      1.734286    82A      1.827304
      83A      1.835847    84A      1.875017    85A      1.880780
      86A      1.893592    87A      1.899061    88A      1.914928
      89A      1.948735    90A      1.955722    91A      1.998300
      92A      2.009502    93A      2.036133    94A      2.051714
      95A      2.108463    96A      2.147213    97A      2.196757
      98A      2.231297    99A      2.267379   100A      2.291400
     101A      2.338978   102A      2.371888   103A      2.421599
     104A      2.465487   105A      2.476380   106A      2.511235
     107A      2.571183   108A      2.608888   109A      2.648120
     110A      2.718002   111A      2.724862   112A      2.738762
     113A      2.760782   114A      2.781466   115A      2.822259
     116A      2.881589   117A      2.996432   118A      3.103550
     119A      3.147688   120A      3.276440   121A      3.322187
     122A      3.344234   123A      3.432798   124A      3.523130
     125A      3.541827   126A      3.556206   127A      3.870581
     128A      3.913864   129A      4.071980

    Final Occupation by Irrep:
              A
    DOCC [    25 ]

  @RHF Final Energy:  -323.04683628600742

   => Energetics <=

    Nuclear Repulsion Energy =            237.5766013068151210
    One-Electron Energy =                -912.2750567863841979
    Two-Electron Energy =                 351.6516191935616007
    Total Energy =                       -323.0468362860074194

Computation Completed

Properties will be evaluated at   0.000000,   0.000000,   0.000000 [a0]

Properties computed using the SCF density matrix

  Nuclear Dipole Moment: [e a0]
     X:    -5.9033      Y:     5.3175      Z:     5.1022

  Electronic Dipole Moment: [e a0]
     X:     3.9684      Y:    -4.3191      Z:    -4.4161

  Dipole Moment: [e a0]
     X:    -1.9349      Y:     0.9984      Z:     0.6861     Total:     2.2828

  Dipole Moment: [D]
     X:    -4.9180      Y:     2.5377      Z:     1.7438     Total:     5.8023

*** tstop() called on ds3 at Mon Apr 27 23:20:13 2020
Module time:
	user time   =      14.94 seconds =       0.25 minutes
	system time =       7.40 seconds =       0.12 minutes
	total time  =         22 seconds =       0.37 minutes
Total time:
	user time   =      14.94 seconds =       0.25 minutes
	system time =       7.40 seconds =       0.12 minutes
	total time  =         22 seconds =       0.37 minutes
                                     G D M A

                                 by Anthony Stone

                           version 2.2.06, 22 June 2011

               Distributed Multipoles from Gaussian wavefunctions

Starting at 23:20:13 on 27 Apr 2020

Using SCF density matrix from file ./SSI/SSI-015ASN-019THR-1-dimer.test.2421.fchk

                         Distributed Multipole Analysis

Standard DMA

Positions and radii in angstrom
Multipole moments in atomic units, ea_0^k for rank k

C          x =  1.049000  y = -0.192838  z =  0.936044 angstrom
           Maximum rank =  0   Radius =  0.650 angstrom
                   Q00  =  -0.262419

C          x =  1.181000  y = -0.870838  z = -0.411956 angstrom
           Maximum rank =  0   Radius =  0.650 angstrom
                   Q00  =   0.822980

O          x =  2.078000  y = -1.682838  z = -0.642956 angstrom
           Maximum rank =  0   Radius =  0.650 angstrom
                   Q00  =  -0.808619

N          x =  0.281000  y = -0.533838  z = -1.322956 angstrom
           Maximum rank =  0   Radius =  0.650 angstrom
                   Q00  =  -0.541312

H          x =  0.299000  y = -0.985838  z = -2.223956 angstrom
           Maximum rank =  0   Radius =  0.325 angstrom
                   Q00  =   0.215508

H          x = -0.440000  y =  0.139162  z = -1.089956 angstrom
           Maximum rank =  0   Radius =  0.325 angstrom
                   Q00  =   0.222267

H          x =  0.310000  y = -0.745838  z =  1.517044 angstrom
           Maximum rank =  0   Radius =  0.325 angstrom
                   Q00  =   0.112396

H          x =  0.668000  y =  0.814162  z =  0.774044 angstrom
           Maximum rank =  0   Radius =  0.325 angstrom
                   Q00  =   0.095533

H          x =  1.997596  y = -0.152088  z =  1.491477 angstrom
           Maximum rank =  0   Radius =  0.325 angstrom
                   Q00  =   0.123998

C          x = -2.209000  y =  1.916162  z =  1.277044 angstrom
           Maximum rank =  0   Radius =  0.650 angstrom
                   Q00  =  -0.048205

O          x = -1.943000  y =  1.153162  z =  0.107044 angstrom
           Maximum rank =  0   Radius =  0.650 angstrom
                   Q00  =  -0.602349

H          x = -2.347000  y =  0.286162  z =  0.245044 angstrom
           Maximum rank =  0   Radius =  0.325 angstrom
                   Q00  =   0.392464

H          x = -1.460000  y =  1.664162  z =  2.022044 angstrom
           Maximum rank =  0   Radius =  0.325 angstrom
                   Q00  =   0.073723

H          x = -2.118706  y =  2.985352  z =  1.034827 angstrom
           Maximum rank =  0   Radius =  0.325 angstrom
                   Q00  =   0.121110

H          x = -3.205791  y =  1.668052  z =  1.670552 angstrom
           Maximum rank =  0   Radius =  0.325 angstrom
                   Q00  =   0.082925

Total multipoles referred to origin at
           x =   0.000000,  y =    0.000000,  z =    0.000000 angstrom
                   Q00  =  -0.000000

Finished at 23:20:13 on 27 Apr 2020

  DMA results are available in the Python driver through the
	  variable('DMA DISTRIBUTED MULTIPOLES')
  and
	  variable('DMA TOTAL MULTIPOLES')
  commands.

    Psi4 stopped on: Monday, 27 April 2020 11:20PM
    Psi4 wall time for execution: 0:00:22.06

*** Psi4 exiting successfully. Buy a developer a beer!
