                               Psi4 1.3.2 release

  ==> Input File <==

--------------------------------------------------------------------------
import numpy as np
set {scf_type pk
basis cc-pvdz
d_convergence 10
gdma_switch   0
gdma_limit    0
gdma_origin   [ 0.0,  0.0,  0.0 ]
}
molecule test {
    units Angstrom
    0 1
    --
    0 1
    C               -2.642046433550152    -0.409858333189716     0.542915967675141
    C               -1.403046433550152    -0.138858333189716    -0.244084032324858
    C               -0.792046433550152    -0.984858333189715    -1.109084032324858
    C               -0.588046433550152     1.048141666810285    -0.238084032324858
    C                0.489953566449848     0.837141666810284    -1.135084032324858
    C               -0.665046433550152     2.273141666810284     0.428915967675142
    C                1.451953566449848     1.794141666810285    -1.380084032324858
    C                0.275953566449848     3.237141666810284     0.161915967675142
    C                1.323953566449848     3.009141666810284    -0.733084032324859
    N                0.332953566449848    -0.418858333189716    -1.636084032324858
    H               -2.483046433550152    -0.057858333189716     1.549915967675142
    H               -2.774046433550152    -1.491858333189716     0.608915967675142
    H               -1.154046433550152    -1.973858333189715    -1.362084032324858
    H                0.880953566449848    -0.856858333189716    -2.382084032324859
    H               -1.444046433550152     2.456141666810284     1.150915967675142
    H                2.263953566449848     1.601141666810284    -2.066084032324858
    H                0.225953566449848     4.171141666810285     0.693915967675142
    H                2.057953566449848     3.785141666810285    -0.905084032324858
    H               -3.567999433550152     0.019207666810284     0.132415967675142
    C                0.171953566449848    -3.113858333189716     1.660915967675142
    C                0.943953566449848    -2.245858333189716     2.653915967675141
    C                1.020953566449848    -3.496858333189716     0.458915967675142
    H               -0.181046433550152    -4.018858333189716     2.158915967675142
    H               -0.695046433550152    -2.554858333189716     1.313915967675142
    H                1.354953566449848    -1.388858333189716     2.117915967675142
    H                1.377953566449848    -2.589858333189716    -0.021084032324858
    H                1.878953566449848    -4.065858333189715     0.806915967675142
    H                1.766173566449847    -2.817411333189716     3.109195967675142
    H                0.265293566449848    -1.853486333189716     3.425585967675141
    H                0.501303566449848    -4.079268333189716    -0.316174032324858

}
e, wfn = energy('scf', return_wfn=True)
gdma(wfn)
dmavals = variable('DMA DISTRIBUTED MULTIPOLES')
charges = np.array(dmavals)
print(charges)
np.save('SSI-031TRP-168GLN-1-dimer.npy', np.array(charges))--------------------------------------------------------------------------

*** tstart() called on ds3
*** at Mon Apr 27 14:41:03 2020

   => Loading Basis Set <=

    Name: CC-PVDZ
    Role: ORBITAL
    Keyword: BASIS
    atoms 1-9, 20-22   entry C          line   138 file /theoryfs2/ds/metcalf/miniconda2/envs/tf2gpu/share/psi4/basis/cc-pvdz.gbs
    atoms 10           entry N          line   168 file /theoryfs2/ds/metcalf/miniconda2/envs/tf2gpu/share/psi4/basis/cc-pvdz.gbs
    atoms 11-19, 23-30 entry H          line    22 file /theoryfs2/ds/metcalf/miniconda2/envs/tf2gpu/share/psi4/basis/cc-pvdz.gbs

         ---------------------------------------------------------
                                   SCF
               by Justin Turney, Rob Parrish, Andy Simmonett
                          and Daniel G. A. Smith
                              RHF Reference
                        1 Threads,    500 MiB Core
         ---------------------------------------------------------

  ==> Geometry <==

    Molecular point group: c1
    Full point group: C1

    Geometry (in Angstrom), charge = 0, multiplicity = 1:

       Center              X                  Y                   Z               Mass
    ------------   -----------------  -----------------  -----------------  -----------------
         C           -2.642046433550    -0.409858333190     0.542915967675    12.000000000000
         C           -1.403046433550    -0.138858333190    -0.244084032325    12.000000000000
         C           -0.792046433550    -0.984858333190    -1.109084032325    12.000000000000
         C           -0.588046433550     1.048141666810    -0.238084032325    12.000000000000
         C            0.489953566450     0.837141666810    -1.135084032325    12.000000000000
         C           -0.665046433550     2.273141666810     0.428915967675    12.000000000000
         C            1.451953566450     1.794141666810    -1.380084032325    12.000000000000
         C            0.275953566450     3.237141666810     0.161915967675    12.000000000000
         C            1.323953566450     3.009141666810    -0.733084032325    12.000000000000
         N            0.332953566450    -0.418858333190    -1.636084032325    14.003074004430
         H           -2.483046433550    -0.057858333190     1.549915967675     1.007825032230
         H           -2.774046433550    -1.491858333190     0.608915967675     1.007825032230
         H           -1.154046433550    -1.973858333190    -1.362084032325     1.007825032230
         H            0.880953566450    -0.856858333190    -2.382084032325     1.007825032230
         H           -1.444046433550     2.456141666810     1.150915967675     1.007825032230
         H            2.263953566450     1.601141666810    -2.066084032325     1.007825032230
         H            0.225953566450     4.171141666810     0.693915967675     1.007825032230
         H            2.057953566450     3.785141666810    -0.905084032325     1.007825032230
         H           -3.567999433550     0.019207666810     0.132415967675     1.007825032230
         C            0.171953566450    -3.113858333190     1.660915967675    12.000000000000
         C            0.943953566450    -2.245858333190     2.653915967675    12.000000000000
         C            1.020953566450    -3.496858333190     0.458915967675    12.000000000000
         H           -0.181046433550    -4.018858333190     2.158915967675     1.007825032230
         H           -0.695046433550    -2.554858333190     1.313915967675     1.007825032230
         H            1.354953566450    -1.388858333190     2.117915967675     1.007825032230
         H            1.377953566450    -2.589858333190    -0.021084032325     1.007825032230
         H            1.878953566450    -4.065858333190     0.806915967675     1.007825032230
         H            1.766173566450    -2.817411333190     3.109195967675     1.007825032230
         H            0.265293566450    -1.853486333190     3.425585967675     1.007825032230
         H            0.501303566450    -4.079268333190    -0.316174032325     1.007825032230

  Running in c1 symmetry.

  Rotational constants: A =      0.03731  B =      0.01543  C =      0.01466 [cm^-1]
  Rotational constants: A =   1118.54459  B =    462.56294  C =    439.39673 [MHz]
  Nuclear repulsion =  765.822381501288987

  Charge       = 0
  Multiplicity = 1
  Electrons    = 96
  Nalpha       = 48
  Nbeta        = 48

  ==> Algorithm <==

  SCF Algorithm Type is PK.
  DIIS enabled.
  MOM disabled.
  Fractional occupation disabled.
  Guess Type is SAD.
  Energy threshold   = 1.00e-06
  Density threshold  = 1.00e-10
  Integral threshold = 0.00e+00

  ==> Primary Basis <==

  Basis Set: CC-PVDZ
    Blend: CC-PVDZ
    Number of shells: 129
    Number of basis function: 267
    Number of Cartesian functions: 280
    Spherical Harmonics?: true
    Max angular momentum: 2

  ==> Pre-Iterations <==

   -------------------------------------------------------
    Irrep   Nso     Nmo     Nalpha   Nbeta   Ndocc  Nsocc
   -------------------------------------------------------
     A        267     267       0       0       0       0
   -------------------------------------------------------
    Total     267     267      48      48      48       0
   -------------------------------------------------------

  ==> Integral Setup <==

  Using integral reordering PK algorithm.
  Sizing the integral batches needed.
  Building batch lookup table.
   Calculation information:
      Number of atoms:                  30
      Number of AO shells:             129
      Number of primitives:            371
      Number of atomic orbitals:       280
      Number of basis functions:       267

      Integral cutoff                 1.00e-12
      Number of threads:                 1

	Batch   1 pq = [       0,    9405] index = [             0,44231715] size =     44231715
	Batch   2 pq = [    9405,   13301] index = [      44231715,88464951] size =     44233236
	Batch   3 pq = [   13301,   16290] index = [      88464951,132690195] size =     44225244
	Batch   4 pq = [   16290,   18810] index = [     132690195,176917455] size =     44227260
	Batch   5 pq = [   18810,   21030] index = [     176917455,221140965] size =     44223510
	Batch   6 pq = [   21030,   23037] index = [     221140965,265363203] size =     44222238
	Batch   7 pq = [   23037,   24883] index = [     265363203,309594286] size =     44231083
	Batch   8 pq = [   24883,   26601] index = [     309594286,353819901] size =     44225615
	Batch   9 pq = [   26601,   28214] index = [     353819901,398029005] size =     44209104
	Batch  10 pq = [   28214,   29740] index = [     398029005,442248670] size =     44219665
	Batch  11 pq = [   29740,   31191] index = [     442248670,486454836] size =     44206166
	Batch  12 pq = [   31191,   32578] index = [     486454836,530679331] size =     44224495
	Batch  13 pq = [   32578,   33908] index = [     530679331,574893186] size =     44213855
	Batch  14 pq = [   33908,   35188] index = [     574893186,619115266] size =     44222080
	Batch  15 pq = [   35188,   35778] index = [     619115266,640050531] size =     20935265
  Task number: 58
  Buffer size: 11059200
  Buffer per thread: 2
  We computed 38363452 shell quartets total.
  Whereas there are 35158305 unique shell quartets.
     9.12 percent of shell quartets recomputed by reordering.

  ==> DiskJK: Disk-Based J/K Matrices <==

    J tasked:                  Yes
    K tasked:                  Yes
    wK tasked:                  No
    Memory [MiB]:              375
    Schwarz Cutoff:          1E-12

    OpenMP threads:              1

  Minimum eigenvalue in the overlap matrix is 2.2933192027E-04.
  Using Symmetric Orthogonalization.

  SCF Guess: Superposition of Atomic Densities via on-the-fly atomic UHF.

  ==> Iterations <==

                        Total Energy        Delta E     RMS |[F,P]|

   @RHF iter SAD:  -518.22174941535548   -5.18222e+02   0.00000e+00
   @RHF iter   1:  -518.48737242943935   -2.65623e-01   2.52793e-03 DIIS
   @RHF iter   2:  -518.74995721416371   -2.62585e-01   1.13736e-03 DIIS
   @RHF iter   3:  -518.79863209035011   -4.86749e-02   2.86423e-04 DIIS
   @RHF iter   4:  -518.80281386558045   -4.18178e-03   1.30208e-04 DIIS
   @RHF iter   5:  -518.80349060040362   -6.76735e-04   1.98699e-05 DIIS
   @RHF iter   6:  -518.80352159821553   -3.09978e-05   8.37238e-06 DIIS
   @RHF iter   7:  -518.80352744967661   -5.85146e-06   3.25049e-06 DIIS
   @RHF iter   8:  -518.80352884290153   -1.39322e-06   1.33582e-06 DIIS
   @RHF iter   9:  -518.80352913476440   -2.91863e-07   5.77978e-07 DIIS
   @RHF iter  10:  -518.80352919159850   -5.68341e-08   2.51057e-07 DIIS
   @RHF iter  11:  -518.80352920571875   -1.41202e-08   1.02283e-07 DIIS
   @RHF iter  12:  -518.80352920784480   -2.12606e-09   3.68776e-08 DIIS
   @RHF iter  13:  -518.80352920802352   -1.78716e-10   1.07472e-08 DIIS
   @RHF iter  14:  -518.80352920804273   -1.92131e-11   4.28119e-09 DIIS
   @RHF iter  15:  -518.80352920804182    9.09495e-13   1.93493e-09 DIIS
   @RHF iter  16:  -518.80352920804069    1.13687e-12   9.83874e-10 DIIS
   @RHF iter  17:  -518.80352920804421   -3.52429e-12   4.04708e-10 DIIS
   @RHF iter  18:  -518.80352920804148    2.72848e-12   1.57616e-10 DIIS
   @RHF iter  19:  -518.80352920804887   -7.38964e-12   5.60766e-11 DIIS
  Energy and wave function converged.

  ==> Post-Iterations <==

    Orbital Energies [Eh]
    ---------------------

    Doubly Occupied:

       1A    -15.602958     2A    -11.262168     3A    -11.262123
       4A    -11.229301     5A    -11.227742     6A    -11.226851
       7A    -11.226538     8A    -11.220244     9A    -11.217260
      10A    -11.216712    11A    -11.213965    12A    -11.212223
      13A    -11.211714    14A     -1.301723    15A     -1.132797
      16A     -1.075947    17A     -1.051019    18A     -1.002098
      19A     -0.989528    20A     -0.933634    21A     -0.919607
      22A     -0.841573    23A     -0.805567    24A     -0.793303
      25A     -0.756012    26A     -0.721164    27A     -0.664958
      28A     -0.643381    29A     -0.626437    30A     -0.604855
      31A     -0.594962    32A     -0.593074    33A     -0.590332
      34A     -0.568190    35A     -0.556490    36A     -0.541229
      37A     -0.539885    38A     -0.527916    39A     -0.526607
      40A     -0.493174    41A     -0.473557    42A     -0.471325
      43A     -0.466088    44A     -0.463516    45A     -0.461503
      46A     -0.374812    47A     -0.296825    48A     -0.276345

    Virtual:

      49A      0.127441    50A      0.169520    51A      0.171255
      52A      0.179605    53A      0.197728    54A      0.205812
      55A      0.213298    56A      0.226437    57A      0.229785
      58A      0.247581    59A      0.249505    60A      0.258828
      61A      0.262619    62A      0.267734    63A      0.277203
      64A      0.289888    65A      0.297361    66A      0.309072
      67A      0.331124    68A      0.334823    69A      0.375842
      70A      0.377671    71A      0.389113    72A      0.414276
      73A      0.421107    74A      0.434308    75A      0.449546
      76A      0.475217    77A      0.484667    78A      0.500223
      79A      0.512208    80A      0.580542    81A      0.595046
      82A      0.603285    83A      0.608149    84A      0.618125
      85A      0.630814    86A      0.634153    87A      0.645675
      88A      0.665596    89A      0.689103    90A      0.704240
      91A      0.720396    92A      0.725762    93A      0.733546
      94A      0.738301    95A      0.743327    96A      0.749045
      97A      0.762014    98A      0.764327    99A      0.770757
     100A      0.786737   101A      0.792605   102A      0.810871
     103A      0.815889   104A      0.832565   105A      0.837846
     106A      0.852265   107A      0.863036   108A      0.869450
     109A      0.877248   110A      0.878582   111A      0.885535
     112A      0.894945   113A      0.897832   114A      0.909293
     115A      0.913194   116A      0.925129   117A      0.933719
     118A      0.936118   119A      0.941890   120A      0.956713
     121A      0.965869   122A      0.967766   123A      0.988969
     124A      0.989430   125A      1.003273   126A      1.012085
     127A      1.023377   128A      1.053308   129A      1.078974
     130A      1.089335   131A      1.113624   132A      1.125147
     133A      1.139162   134A      1.142355   135A      1.147354
     136A      1.161037   137A      1.170582   138A      1.186803
     139A      1.210136   140A      1.226684   141A      1.232694
     142A      1.241849   143A      1.251189   144A      1.281944
     145A      1.283499   146A      1.298913   147A      1.308450
     148A      1.333024   149A      1.339944   150A      1.362926
     151A      1.371146   152A      1.378526   153A      1.410570
     154A      1.449666   155A      1.485647   156A      1.499792
     157A      1.520455   158A      1.546569   159A      1.566033
     160A      1.574503   161A      1.605739   162A      1.621283
     163A      1.630928   164A      1.647324   165A      1.662954
     166A      1.681908   167A      1.686661   168A      1.703337
     169A      1.711140   170A      1.724893   171A      1.750080
     172A      1.764679   173A      1.782531   174A      1.798909
     175A      1.815854   176A      1.835593   177A      1.848291
     178A      1.853484   179A      1.882655   180A      1.886096
     181A      1.890923   182A      1.896715   183A      1.914599
     184A      1.921104   185A      1.929914   186A      1.936285
     187A      1.941261   188A      1.944342   189A      1.950180
     190A      1.959581   191A      1.961524   192A      1.973137
     193A      1.983310   194A      1.990755   195A      1.994332
     196A      2.007272   197A      2.014079   198A      2.024872
     199A      2.031301   200A      2.038958   201A      2.058760
     202A      2.071086   203A      2.081440   204A      2.090684
     205A      2.105615   206A      2.118110   207A      2.123711
     208A      2.127302   209A      2.132726   210A      2.151810
     211A      2.160051   212A      2.169610   213A      2.179458
     214A      2.190391   215A      2.237294   216A      2.258386
     217A      2.294172   218A      2.298807   219A      2.316573
     220A      2.322753   221A      2.333182   222A      2.335650
     223A      2.339841   224A      2.344651   225A      2.359406
     226A      2.401312   227A      2.427880   228A      2.461172
     229A      2.466099   230A      2.499441   231A      2.545396
     232A      2.554981   233A      2.584654   234A      2.595188
     235A      2.607202   236A      2.620281   237A      2.639346
     238A      2.650936   239A      2.669010   240A      2.693804
     241A      2.719371   242A      2.760705   243A      2.778278
     244A      2.782514   245A      2.792067   246A      2.798015
     247A      2.809186   248A      2.813024   249A      2.820416
     250A      2.852450   251A      2.883835   252A      2.897994
     253A      2.930132   254A      2.945609   255A      2.972721
     256A      2.992248   257A      2.998396   258A      3.031910
     259A      3.080857   260A      3.084003   261A      3.109272
     262A      3.141611   263A      3.221208   264A      3.317862
     265A      3.393552   266A      3.748537   267A      3.977647

    Final Occupation by Irrep:
              A
    DOCC [    48 ]

  @RHF Final Energy:  -518.80352920804887

   => Energetics <=

    Nuclear Repulsion Energy =            765.8223815012889872
    One-Electron Energy =               -2221.2333566480228910
    Two-Electron Energy =                 936.6074459386851458
    Total Energy =                       -518.8035292080488716

Computation Completed

Properties will be evaluated at   0.000000,   0.000000,   0.000000 [a0]

Properties computed using the SCF density matrix

  Nuclear Dipole Moment: [e a0]
     X:     0.2561      Y:   -14.7322      Z:     9.3944

  Electronic Dipole Moment: [e a0]
     X:    -0.1603      Y:    14.1922      Z:    -9.8882

  Dipole Moment: [e a0]
     X:     0.0958      Y:    -0.5400      Z:    -0.4938     Total:     0.7380

  Dipole Moment: [D]
     X:     0.2435      Y:    -1.3725      Z:    -1.2551     Total:     1.8757

*** tstop() called on ds3 at Mon Apr 27 14:52:54 2020
Module time:
	user time   =     287.34 seconds =       4.79 minutes
	system time =     103.83 seconds =       1.73 minutes
	total time  =        711 seconds =      11.85 minutes
Total time:
	user time   =     287.34 seconds =       4.79 minutes
	system time =     103.83 seconds =       1.73 minutes
	total time  =        711 seconds =      11.85 minutes
                                     G D M A

                                 by Anthony Stone

                           version 2.2.06, 22 June 2011

               Distributed Multipoles from Gaussian wavefunctions

Starting at 14:52:54 on 27 Apr 2020

Using SCF density matrix from file ./SSI/SSI-031TRP-168GLN-1-dimer.test.12376.fchk

                         Distributed Multipole Analysis

Standard DMA

Positions and radii in angstrom
Multipole moments in atomic units, ea_0^k for rank k

C          x = -2.642046  y = -0.409858  z =  0.542916 angstrom
           Maximum rank =  0   Radius =  0.650 angstrom
                   Q00  =  -0.212318

C          x = -1.403046  y = -0.138858  z = -0.244084 angstrom
           Maximum rank =  0   Radius =  0.650 angstrom
                   Q00  =  -0.123685

C          x = -0.792046  y = -0.984858  z = -1.109084 angstrom
           Maximum rank =  0   Radius =  0.650 angstrom
                   Q00  =   0.074911

C          x = -0.588046  y =  1.048142  z = -0.238084 angstrom
           Maximum rank =  0   Radius =  0.650 angstrom
                   Q00  =  -0.059949

C          x =  0.489954  y =  0.837142  z = -1.135084 angstrom
           Maximum rank =  0   Radius =  0.650 angstrom
                   Q00  =   0.272964

C          x = -0.665046  y =  2.273142  z =  0.428916 angstrom
           Maximum rank =  0   Radius =  0.650 angstrom
                   Q00  =  -0.091293

C          x =  1.451954  y =  1.794142  z = -1.380084 angstrom
           Maximum rank =  0   Radius =  0.650 angstrom
                   Q00  =  -0.120725

C          x =  0.275954  y =  3.237142  z =  0.161916 angstrom
           Maximum rank =  0   Radius =  0.650 angstrom
                   Q00  =  -0.055790

C          x =  1.323954  y =  3.009142  z = -0.733084 angstrom
           Maximum rank =  0   Radius =  0.650 angstrom
                   Q00  =  -0.070580

N          x =  0.332954  y = -0.418858  z = -1.636084 angstrom
           Maximum rank =  0   Radius =  0.650 angstrom
                   Q00  =  -0.493388

H          x = -2.483046  y = -0.057858  z =  1.549916 angstrom
           Maximum rank =  0   Radius =  0.325 angstrom
                   Q00  =   0.103912

H          x = -2.774046  y = -1.491858  z =  0.608916 angstrom
           Maximum rank =  0   Radius =  0.325 angstrom
                   Q00  =   0.099985

H          x = -1.154046  y = -1.973858  z = -1.362084 angstrom
           Maximum rank =  0   Radius =  0.325 angstrom
                   Q00  =   0.096937

H          x =  0.880954  y = -0.856858  z = -2.382084 angstrom
           Maximum rank =  0   Radius =  0.325 angstrom
                   Q00  =   0.220460

H          x = -1.444046  y =  2.456142  z =  1.150916 angstrom
           Maximum rank =  0   Radius =  0.325 angstrom
                   Q00  =   0.066717

H          x =  2.263954  y =  1.601142  z = -2.066084 angstrom
           Maximum rank =  0   Radius =  0.325 angstrom
                   Q00  =   0.073655

H          x =  0.225954  y =  4.171142  z =  0.693916 angstrom
           Maximum rank =  0   Radius =  0.325 angstrom
                   Q00  =   0.057277

H          x =  2.057954  y =  3.785142  z = -0.905084 angstrom
           Maximum rank =  0   Radius =  0.325 angstrom
                   Q00  =   0.063996

H          x = -3.567999  y =  0.019208  z =  0.132416 angstrom
           Maximum rank =  0   Radius =  0.325 angstrom
                   Q00  =   0.103510

C          x =  0.171954  y = -3.113858  z =  1.660916 angstrom
           Maximum rank =  0   Radius =  0.650 angstrom
                   Q00  =  -0.087152

C          x =  0.943954  y = -2.245858  z =  2.653916 angstrom
           Maximum rank =  0   Radius =  0.650 angstrom
                   Q00  =  -0.232127

C          x =  1.020954  y = -3.496858  z =  0.458916 angstrom
           Maximum rank =  0   Radius =  0.650 angstrom
                   Q00  =  -0.241692

H          x = -0.181046  y = -4.018858  z =  2.158916 angstrom
           Maximum rank =  0   Radius =  0.325 angstrom
                   Q00  =   0.040690

H          x = -0.695046  y = -2.554858  z =  1.313916 angstrom
           Maximum rank =  0   Radius =  0.325 angstrom
                   Q00  =   0.050933

H          x =  1.354954  y = -1.388858  z =  2.117916 angstrom
           Maximum rank =  0   Radius =  0.325 angstrom
                   Q00  =   0.084548

H          x =  1.377954  y = -2.589858  z = -0.021084 angstrom
           Maximum rank =  0   Radius =  0.325 angstrom
                   Q00  =   0.072136

H          x =  1.878954  y = -4.065858  z =  0.806916 angstrom
           Maximum rank =  0   Radius =  0.325 angstrom
                   Q00  =   0.074913

H          x =  1.766174  y = -2.817411  z =  3.109196 angstrom
           Maximum rank =  0   Radius =  0.325 angstrom
                   Q00  =   0.074069

H          x =  0.265294  y = -1.853486  z =  3.425586 angstrom
           Maximum rank =  0   Radius =  0.325 angstrom
                   Q00  =   0.083097

H          x =  0.501304  y = -4.079268  z = -0.316174 angstrom
           Maximum rank =  0   Radius =  0.325 angstrom
                   Q00  =   0.073990

Total multipoles referred to origin at
           x =   0.000000,  y =    0.000000,  z =    0.000000 angstrom
                   Q00  =  -0.000000

Finished at 14:52:55 on 27 Apr 2020

  DMA results are available in the Python driver through the
	  variable('DMA DISTRIBUTED MULTIPOLES')
  and
	  variable('DMA TOTAL MULTIPOLES')
  commands.

    Psi4 stopped on: Monday, 27 April 2020 02:52PM
    Psi4 wall time for execution: 0:11:51.89

*** Psi4 exiting successfully. Buy a developer a beer!
