                               Psi4 1.3.2 release

  ==> Input File <==

--------------------------------------------------------------------------
import numpy as np
set {scf_type pk
basis cc-pvdz
d_convergence 10
gdma_switch   0
gdma_limit    0
gdma_origin   [ 0.0,  0.0,  0.0 ]
}
molecule test {
    units Angstrom
    0 1
    --
    0 1
    C                0.824897983932204     1.389383017194763     1.192925009434587
    C               -0.213102016067796     1.435383017194763     2.300925009434588
    H                1.046897983932204     0.368383017194763     0.894925009434588
    H                0.452897983932204     1.920383017194763     0.317925009434588
    H                1.743897983932204     1.871383017194763     1.531925009434588
    H               -1.143102016067796     0.996383017194763     1.935925009434587
    H               -0.402102016067796     2.486383017194763     2.522925009434588
    H                0.103993983932204     0.913103017194763     3.215626009434588
    C               -0.333102016067796    -1.512616982805237    -0.985074990565412
    C               -0.267102016067796    -1.320616982805237    -2.506074990565412
    H                0.610897983932204    -1.901616982805237    -0.597074990565412
    H               -0.564102016067796    -0.561616982805237    -0.505074990565412
    H               -1.143102016067796    -2.202616982805237    -0.769074990565412
    H               -1.264102016067796    -1.030616982805237    -2.846074990565412
    H                0.009683983932204    -2.270566982805237    -2.986689990565412
    H                0.410216983932204    -0.488156982805237    -2.747409990565412

}
e, wfn = energy('scf', return_wfn=True)
gdma(wfn)
dmavals = variable('DMA DISTRIBUTED MULTIPOLES')
charges = np.array(dmavals)
print(charges)
np.save('SSI-025ILE-090ALA-1-dimer.npy', np.array(charges))--------------------------------------------------------------------------

*** tstart() called on ds3
*** at Mon Apr 27 19:50:16 2020

   => Loading Basis Set <=

    Name: CC-PVDZ
    Role: ORBITAL
    Keyword: BASIS
    atoms 1-2, 9-10  entry C          line   138 file /theoryfs2/ds/metcalf/miniconda2/envs/tf2gpu/share/psi4/basis/cc-pvdz.gbs
    atoms 3-8, 11-16 entry H          line    22 file /theoryfs2/ds/metcalf/miniconda2/envs/tf2gpu/share/psi4/basis/cc-pvdz.gbs

         ---------------------------------------------------------
                                   SCF
               by Justin Turney, Rob Parrish, Andy Simmonett
                          and Daniel G. A. Smith
                              RHF Reference
                        1 Threads,    500 MiB Core
         ---------------------------------------------------------

  ==> Geometry <==

    Molecular point group: c1
    Full point group: C1

    Geometry (in Angstrom), charge = 0, multiplicity = 1:

       Center              X                  Y                   Z               Mass
    ------------   -----------------  -----------------  -----------------  -----------------
         C            0.824897983932     1.389383017195     1.192925009435    12.000000000000
         C           -0.213102016068     1.435383017195     2.300925009435    12.000000000000
         H            1.046897983932     0.368383017195     0.894925009435     1.007825032230
         H            0.452897983932     1.920383017195     0.317925009435     1.007825032230
         H            1.743897983932     1.871383017195     1.531925009435     1.007825032230
         H           -1.143102016068     0.996383017195     1.935925009435     1.007825032230
         H           -0.402102016068     2.486383017195     2.522925009435     1.007825032230
         H            0.103993983932     0.913103017195     3.215626009435     1.007825032230
         C           -0.333102016068    -1.512616982805    -0.985074990565    12.000000000000
         C           -0.267102016068    -1.320616982805    -2.506074990565    12.000000000000
         H            0.610897983932    -1.901616982805    -0.597074990565     1.007825032230
         H           -0.564102016068    -0.561616982805    -0.505074990565     1.007825032230
         H           -1.143102016068    -2.202616982805    -0.769074990565     1.007825032230
         H           -1.264102016068    -1.030616982805    -2.846074990565     1.007825032230
         H            0.009683983932    -2.270566982805    -2.986689990565     1.007825032230
         H            0.410216983932    -0.488156982805    -2.747409990565     1.007825032230

  Running in c1 symmetry.

  Rotational constants: A =      0.46765  B =      0.04965  C =      0.04753 [cm^-1]
  Rotational constants: A =  14019.90023  B =   1488.45338  C =   1424.94687 [MHz]
  Nuclear repulsion =  122.468112748370345

  Charge       = 0
  Multiplicity = 1
  Electrons    = 36
  Nalpha       = 18
  Nbeta        = 18

  ==> Algorithm <==

  SCF Algorithm Type is PK.
  DIIS enabled.
  MOM disabled.
  Fractional occupation disabled.
  Guess Type is SAD.
  Energy threshold   = 1.00e-06
  Density threshold  = 1.00e-10
  Integral threshold = 0.00e+00

  ==> Primary Basis <==

  Basis Set: CC-PVDZ
    Blend: CC-PVDZ
    Number of shells: 60
    Number of basis function: 116
    Number of Cartesian functions: 120
    Spherical Harmonics?: true
    Max angular momentum: 2

  ==> Pre-Iterations <==

   -------------------------------------------------------
    Irrep   Nso     Nmo     Nalpha   Nbeta   Ndocc  Nsocc
   -------------------------------------------------------
     A        116     116       0       0       0       0
   -------------------------------------------------------
    Total     116     116      18      18      18       0
   -------------------------------------------------------

  ==> Integral Setup <==

  Using integral reordering PK algorithm.
  Sizing the integral batches needed.
  Building batch lookup table.
   Calculation information:
      Number of atoms:                  16
      Number of AO shells:              60
      Number of primitives:            148
      Number of atomic orbitals:       120
      Number of basis functions:       116

      Integral cutoff                 1.00e-12
      Number of threads:                 1

	Batch   1 pq = [       0,    6786] index = [             0,23028291] size =     23028291
  Task number: 3
  Buffer size: 11059200
  Buffer per thread: 2
  We computed 1451942 shell quartets total.
  Whereas there are 1675365 unique shell quartets.

  ==> DiskJK: Disk-Based J/K Matrices <==

    J tasked:                  Yes
    K tasked:                  Yes
    wK tasked:                  No
    Memory [MiB]:              375
    Schwarz Cutoff:          1E-12

    OpenMP threads:              1

  Minimum eigenvalue in the overlap matrix is 7.4274498593E-03.
  Using Symmetric Orthogonalization.

  SCF Guess: Superposition of Atomic Densities via on-the-fly atomic UHF.

  ==> Iterations <==

                        Total Energy        Delta E     RMS |[F,P]|

   @RHF iter SAD:  -157.36688140261199   -1.57367e+02   0.00000e+00
   @RHF iter   1:  -158.30588832356025   -9.39007e-01   4.21945e-03 DIIS
   @RHF iter   2:  -158.43971944386766   -1.33831e-01   1.79362e-03 DIIS
   @RHF iter   3:  -158.46307237747436   -2.33529e-02   3.49770e-04 DIIS
   @RHF iter   4:  -158.46490863880925   -1.83626e-03   3.87813e-05 DIIS
   @RHF iter   5:  -158.46493245040034   -2.38116e-05   6.41007e-06 DIIS
   @RHF iter   6:  -158.46493306743278   -6.17032e-07   1.04760e-06 DIIS
   @RHF iter   7:  -158.46493307851324   -1.10805e-08   3.20253e-07 DIIS
   @RHF iter   8:  -158.46493307942404   -9.10802e-10   4.25642e-08 DIIS
   @RHF iter   9:  -158.46493307945249   -2.84501e-11   9.22336e-09 DIIS
   @RHF iter  10:  -158.46493307945448   -1.98952e-12   2.67844e-09 DIIS
   @RHF iter  11:  -158.46493307945406    4.26326e-13   7.43873e-10 DIIS
   @RHF iter  12:  -158.46493307945434   -2.84217e-13   1.59611e-10 DIIS
   @RHF iter  13:  -158.46493307945451   -1.70530e-13   2.55747e-11 DIIS
  Energy and wave function converged.

  ==> Post-Iterations <==

    Orbital Energies [Eh]
    ---------------------

    Doubly Occupied:

       1A    -11.220037     2A    -11.217813     3A    -11.216541
       4A    -11.215207     5A     -1.021479     6A     -1.017347
       7A     -0.838347     8A     -0.834170     9A     -0.606983
      10A     -0.599313    11A     -0.596603    12A     -0.594457
      13A     -0.504320    14A     -0.496626    15A     -0.490837
      16A     -0.485491    17A     -0.484316    18A     -0.479521

    Virtual:

      19A      0.171246    20A      0.198065    21A      0.228038
      22A      0.231593    23A      0.242138    24A      0.255333
      25A      0.263220    26A      0.271743    27A      0.281842
      28A      0.289496    29A      0.317185    30A      0.343883
      31A      0.391223    32A      0.400658    33A      0.583513
      34A      0.595522    35A      0.599958    36A      0.604779
      37A      0.614662    38A      0.636673    39A      0.659810
      40A      0.685134    41A      0.692092    42A      0.808329
      43A      0.842185    44A      0.850099    45A      0.881573
      46A      0.884130    47A      0.894057    48A      0.895714
      49A      0.899742    50A      0.903625    51A      0.906456
      52A      0.923463    53A      0.942258    54A      0.953358
      55A      0.975113    56A      1.032682    57A      1.123043
      58A      1.124394    59A      1.129856    60A      1.159752
      61A      1.245645    62A      1.260488    63A      1.463616
      64A      1.473456    65A      1.481175    66A      1.495162
      67A      1.560515    68A      1.587912    69A      1.671191
      70A      1.681758    71A      1.691877    72A      1.708150
      73A      1.853474    74A      1.857652    75A      1.866990
      76A      1.885285    77A      1.896847    78A      1.905441
      79A      1.931956    80A      1.939725    81A      1.947081
      82A      1.956393    83A      1.958311    84A      1.959996
      85A      1.966640    86A      1.976959    87A      1.985560
      88A      2.003045    89A      2.092636    90A      2.106363
      91A      2.130203    92A      2.133127    93A      2.283909
      94A      2.298870    95A      2.305582    96A      2.325219
      97A      2.451119    98A      2.452955    99A      2.468765
     100A      2.476355   101A      2.559155   102A      2.570310
     103A      2.577762   104A      2.582697   105A      2.760279
     106A      2.767001   107A      2.793198   108A      2.797620
     109A      2.832249   110A      2.846114   111A      2.858908
     112A      2.872155   113A      2.929630   114A      2.950690
     115A      2.980015   116A      2.998054

    Final Occupation by Irrep:
              A
    DOCC [    18 ]

  @RHF Final Energy:  -158.46493307945451

   => Energetics <=

    Nuclear Repulsion Energy =            122.4681127483703449
    One-Electron Energy =                -454.0272710467286288
    Two-Electron Energy =                 173.0942252189037731
    Total Energy =                       -158.4649330794545108

Computation Completed

Properties will be evaluated at   0.000000,   0.000000,   0.000000 [a0]

Properties computed using the SCF density matrix

  Nuclear Dipole Moment: [e a0]
     X:    -0.1294      Y:     0.0945      Z:    -0.0301

  Electronic Dipole Moment: [e a0]
     X:     0.1120      Y:    -0.0907      Z:     0.0270

  Dipole Moment: [e a0]
     X:    -0.0174      Y:     0.0038      Z:    -0.0031     Total:     0.0181

  Dipole Moment: [D]
     X:    -0.0442      Y:     0.0098      Z:    -0.0080     Total:     0.0459

*** tstop() called on ds3 at Mon Apr 27 19:50:26 2020
Module time:
	user time   =       7.18 seconds =       0.12 minutes
	system time =       2.79 seconds =       0.05 minutes
	total time  =         10 seconds =       0.17 minutes
Total time:
	user time   =       7.18 seconds =       0.12 minutes
	system time =       2.79 seconds =       0.05 minutes
	total time  =         10 seconds =       0.17 minutes
                                     G D M A

                                 by Anthony Stone

                           version 2.2.06, 22 June 2011

               Distributed Multipoles from Gaussian wavefunctions

Starting at 19:50:26 on 27 Apr 2020

Using SCF density matrix from file ./SSI/SSI-025ILE-090ALA-1-dimer.test.9810.fchk

                         Distributed Multipole Analysis

Standard DMA

Positions and radii in angstrom
Multipole moments in atomic units, ea_0^k for rank k

C          x =  0.824898  y =  1.389383  z =  1.192925 angstrom
           Maximum rank =  0   Radius =  0.650 angstrom
                   Q00  =  -0.234979

C          x = -0.213102  y =  1.435383  z =  2.300925 angstrom
           Maximum rank =  0   Radius =  0.650 angstrom
                   Q00  =  -0.234766

H          x =  1.046898  y =  0.368383  z =  0.894925 angstrom
           Maximum rank =  0   Radius =  0.325 angstrom
                   Q00  =   0.083194

H          x =  0.452898  y =  1.920383  z =  0.317925 angstrom
           Maximum rank =  0   Radius =  0.325 angstrom
                   Q00  =   0.076711

H          x =  1.743898  y =  1.871383  z =  1.531925 angstrom
           Maximum rank =  0   Radius =  0.325 angstrom
                   Q00  =   0.077025

H          x = -1.143102  y =  0.996383  z =  1.935925 angstrom
           Maximum rank =  0   Radius =  0.325 angstrom
                   Q00  =   0.076087

H          x = -0.402102  y =  2.486383  z =  2.522925 angstrom
           Maximum rank =  0   Radius =  0.325 angstrom
                   Q00  =   0.076119

H          x =  0.103994  y =  0.913103  z =  3.215626 angstrom
           Maximum rank =  0   Radius =  0.325 angstrom
                   Q00  =   0.081617

C          x = -0.333102  y = -1.512617  z = -0.985075 angstrom
           Maximum rank =  0   Radius =  0.650 angstrom
                   Q00  =  -0.230004

C          x = -0.267102  y = -1.320617  z = -2.506075 angstrom
           Maximum rank =  0   Radius =  0.650 angstrom
                   Q00  =  -0.245797

H          x =  0.610898  y = -1.901617  z = -0.597075 angstrom
           Maximum rank =  0   Radius =  0.325 angstrom
                   Q00  =   0.079375

H          x = -0.564102  y = -0.561617  z = -0.505075 angstrom
           Maximum rank =  0   Radius =  0.325 angstrom
                   Q00  =   0.081890

H          x = -1.143102  y = -2.202617  z = -0.769075 angstrom
           Maximum rank =  0   Radius =  0.325 angstrom
                   Q00  =   0.077394

H          x = -1.264102  y = -1.030617  z = -2.846075 angstrom
           Maximum rank =  0   Radius =  0.325 angstrom
                   Q00  =   0.075805

H          x =  0.009684  y = -2.270567  z = -2.986690 angstrom
           Maximum rank =  0   Radius =  0.325 angstrom
                   Q00  =   0.081182

H          x =  0.410217  y = -0.488157  z = -2.747410 angstrom
           Maximum rank =  0   Radius =  0.325 angstrom
                   Q00  =   0.079147

Total multipoles referred to origin at
           x =   0.000000,  y =    0.000000,  z =    0.000000 angstrom
                   Q00  =  -0.000000

Finished at 19:50:26 on 27 Apr 2020

  DMA results are available in the Python driver through the
	  variable('DMA DISTRIBUTED MULTIPOLES')
  and
	  variable('DMA TOTAL MULTIPOLES')
  commands.

    Psi4 stopped on: Monday, 27 April 2020 07:50PM
    Psi4 wall time for execution: 0:00:09.82

*** Psi4 exiting successfully. Buy a developer a beer!
