                               Psi4 1.3.2 release

  ==> Input File <==

--------------------------------------------------------------------------
import numpy as np
set {scf_type pk
basis cc-pvdz
d_convergence 10
gdma_switch   0
gdma_limit    0
gdma_origin   [ 0.0,  0.0,  0.0 ]
}
molecule test {
    units Angstrom
    0 1
    --
    0 1
    C               -0.867690478124001    -1.610541098084744     2.739121190230022
    C                0.596309521875999     0.732458901915256     0.213121190230023
    C               -0.528690478124001     0.205458901915256     0.894121190230023
    C               -0.046690478124001    -0.784541098084744     1.814121190230022
    C                1.303309521875999    -0.825541098084744     1.663121190230023
    C                0.487309521875999     1.724458901915256    -0.748878809769978
    C               -0.776690478124001     2.199458901915256    -1.044878809769977
    C               -1.797690478124001     0.703458901915256     0.578121190230023
    C               -1.909690478124001     1.695458901915256    -0.390878809769977
    N                1.693309521875999     0.082458901915256     0.709121190230023
    H                2.654309521875998     0.308458901915256     0.457121190230023
    H                1.371309521875999     2.128458901915256    -1.212878809769977
    H                1.971309521875999    -1.481541098084744     2.212121190230022
    H               -0.898690478124001     2.980458901915256    -1.781878809769977
    H               -2.665690478124001     0.331458901915256     1.095121190230022
    H               -0.401690478124001    -2.576541098084744     2.827121190230022
    H               -1.852690478124001    -1.765541098084744     2.298121190230022
    H               -2.883690478124001     2.082458901915256    -0.651878809769977
    H               -0.972956478124001    -1.196691098084744     3.752851190230022
    C                0.600309521875999    -1.966541098084744    -2.223878809769978
    C                0.900309521875999    -1.396541098084744    -3.608878809769978
    H                1.244309521875999    -1.518541098084744    -1.472878809769977
    H               -0.428690478124001    -1.729541098084744    -1.950878809769978
    H                0.728309521875999    -3.048541098084744    -2.223878809769978
    H                0.856309521875999    -0.309541098084744    -3.536878809769978
    H                1.901012421875999    -1.691881098084744    -3.957258809769978
    H                0.134905521875999    -1.720141098084744    -4.329598809769977

}
e, wfn = energy('scf', return_wfn=True)
gdma(wfn)
dmavals = variable('DMA DISTRIBUTED MULTIPOLES')
charges = np.array(dmavals)
print(charges)
np.save('SSI-010TRP-022LEU-1-dimer.npy', np.array(charges))--------------------------------------------------------------------------

*** tstart() called on ds3
*** at Tue Apr 28 13:24:59 2020

   => Loading Basis Set <=

    Name: CC-PVDZ
    Role: ORBITAL
    Keyword: BASIS
    atoms 1-9, 20-21   entry C          line   138 file /theoryfs2/ds/metcalf/miniconda2/envs/tf2gpu/share/psi4/basis/cc-pvdz.gbs
    atoms 10           entry N          line   168 file /theoryfs2/ds/metcalf/miniconda2/envs/tf2gpu/share/psi4/basis/cc-pvdz.gbs
    atoms 11-19, 22-27 entry H          line    22 file /theoryfs2/ds/metcalf/miniconda2/envs/tf2gpu/share/psi4/basis/cc-pvdz.gbs

         ---------------------------------------------------------
                                   SCF
               by Justin Turney, Rob Parrish, Andy Simmonett
                          and Daniel G. A. Smith
                              RHF Reference
                        1 Threads,    500 MiB Core
         ---------------------------------------------------------

  ==> Geometry <==

    Molecular point group: c1
    Full point group: C1

    Geometry (in Angstrom), charge = 0, multiplicity = 1:

       Center              X                  Y                   Z               Mass
    ------------   -----------------  -----------------  -----------------  -----------------
         C           -0.867690478124    -1.610541098085     2.739121190230    12.000000000000
         C            0.596309521876     0.732458901915     0.213121190230    12.000000000000
         C           -0.528690478124     0.205458901915     0.894121190230    12.000000000000
         C           -0.046690478124    -0.784541098085     1.814121190230    12.000000000000
         C            1.303309521876    -0.825541098085     1.663121190230    12.000000000000
         C            0.487309521876     1.724458901915    -0.748878809770    12.000000000000
         C           -0.776690478124     2.199458901915    -1.044878809770    12.000000000000
         C           -1.797690478124     0.703458901915     0.578121190230    12.000000000000
         C           -1.909690478124     1.695458901915    -0.390878809770    12.000000000000
         N            1.693309521876     0.082458901915     0.709121190230    14.003074004430
         H            2.654309521876     0.308458901915     0.457121190230     1.007825032230
         H            1.371309521876     2.128458901915    -1.212878809770     1.007825032230
         H            1.971309521876    -1.481541098085     2.212121190230     1.007825032230
         H           -0.898690478124     2.980458901915    -1.781878809770     1.007825032230
         H           -2.665690478124     0.331458901915     1.095121190230     1.007825032230
         H           -0.401690478124    -2.576541098085     2.827121190230     1.007825032230
         H           -1.852690478124    -1.765541098085     2.298121190230     1.007825032230
         H           -2.883690478124     2.082458901915    -0.651878809770     1.007825032230
         H           -0.972956478124    -1.196691098085     3.752851190230     1.007825032230
         C            0.600309521876    -1.966541098085    -2.223878809770    12.000000000000
         C            0.900309521876    -1.396541098085    -3.608878809770    12.000000000000
         H            1.244309521876    -1.518541098085    -1.472878809770     1.007825032230
         H           -0.428690478124    -1.729541098085    -1.950878809770     1.007825032230
         H            0.728309521876    -3.048541098085    -2.223878809770     1.007825032230
         H            0.856309521876    -0.309541098085    -3.536878809770     1.007825032230
         H            1.901012421876    -1.691881098085    -3.957258809770     1.007825032230
         H            0.134905521876    -1.720141098085    -4.329598809770     1.007825032230

  Running in c1 symmetry.

  Rotational constants: A =      0.03232  B =      0.02460  C =      0.01875 [cm^-1]
  Rotational constants: A =    968.94797  B =    737.61185  C =    562.09251 [MHz]
  Nuclear repulsion =  670.975451957618020

  Charge       = 0
  Multiplicity = 1
  Electrons    = 88
  Nalpha       = 44
  Nbeta        = 44

  ==> Algorithm <==

  SCF Algorithm Type is PK.
  DIIS enabled.
  MOM disabled.
  Fractional occupation disabled.
  Guess Type is SAD.
  Energy threshold   = 1.00e-06
  Density threshold  = 1.00e-10
  Integral threshold = 0.00e+00

  ==> Primary Basis <==

  Basis Set: CC-PVDZ
    Blend: CC-PVDZ
    Number of shells: 117
    Number of basis function: 243
    Number of Cartesian functions: 255
    Spherical Harmonics?: true
    Max angular momentum: 2

  ==> Pre-Iterations <==

   -------------------------------------------------------
    Irrep   Nso     Nmo     Nalpha   Nbeta   Ndocc  Nsocc
   -------------------------------------------------------
     A        243     243       0       0       0       0
   -------------------------------------------------------
    Total     243     243      44      44      44       0
   -------------------------------------------------------

  ==> Integral Setup <==

  Using integral reordering PK algorithm.
  Sizing the integral batches needed.
  Building batch lookup table.
   Calculation information:
      Number of atoms:                  27
      Number of AO shells:             117
      Number of primitives:            339
      Number of atomic orbitals:       255
      Number of basis functions:       243

      Integral cutoff                 1.00e-12
      Number of threads:                 1

	Batch   1 pq = [       0,    9405] index = [             0,44231715] size =     44231715
	Batch   2 pq = [    9405,   13301] index = [      44231715,88464951] size =     44233236
	Batch   3 pq = [   13301,   16290] index = [      88464951,132690195] size =     44225244
	Batch   4 pq = [   16290,   18810] index = [     132690195,176917455] size =     44227260
	Batch   5 pq = [   18810,   21030] index = [     176917455,221140965] size =     44223510
	Batch   6 pq = [   21030,   23037] index = [     221140965,265363203] size =     44222238
	Batch   7 pq = [   23037,   24883] index = [     265363203,309594286] size =     44231083
	Batch   8 pq = [   24883,   26601] index = [     309594286,353819901] size =     44225615
	Batch   9 pq = [   26601,   28214] index = [     353819901,398029005] size =     44209104
	Batch  10 pq = [   28214,   29646] index = [     398029005,439457481] size =     41428476
  Task number: 40
  Buffer size: 11059200
  Buffer per thread: 2
  We computed 24856720 shell quartets total.
  Whereas there are 23829156 unique shell quartets.
     4.31 percent of shell quartets recomputed by reordering.

  ==> DiskJK: Disk-Based J/K Matrices <==

    J tasked:                  Yes
    K tasked:                  Yes
    wK tasked:                  No
    Memory [MiB]:              375
    Schwarz Cutoff:          1E-12

    OpenMP threads:              1

  Minimum eigenvalue in the overlap matrix is 2.3404195032E-04.
  Using Symmetric Orthogonalization.

  SCF Guess: Superposition of Atomic Densities via on-the-fly atomic UHF.

  ==> Iterations <==

                        Total Energy        Delta E     RMS |[F,P]|

   @RHF iter SAD:  -479.09925498006362   -4.79099e+02   0.00000e+00
   @RHF iter   1:  -479.48610878500813   -3.86854e-01   2.62551e-03 DIIS
   @RHF iter   2:  -479.72008843970440   -2.33980e-01   1.18131e-03 DIIS
   @RHF iter   3:  -479.76338864828540   -4.33002e-02   3.06786e-04 DIIS
   @RHF iter   4:  -479.76724558126199   -3.85693e-03   1.41539e-04 DIIS
   @RHF iter   5:  -479.76791297770291   -6.67396e-04   2.00998e-05 DIIS
   @RHF iter   6:  -479.76794216122818   -2.91835e-05   9.39226e-06 DIIS
   @RHF iter   7:  -479.76794815095229   -5.98972e-06   3.83276e-06 DIIS
   @RHF iter   8:  -479.76794982425315   -1.67330e-06   1.52667e-06 DIIS
   @RHF iter   9:  -479.76795016172537   -3.37472e-07   6.71918e-07 DIIS
   @RHF iter  10:  -479.76795022883010   -6.71047e-08   3.03098e-07 DIIS
   @RHF iter  11:  -479.76795024515241   -1.63223e-08   1.15578e-07 DIIS
   @RHF iter  12:  -479.76795024743632   -2.28391e-09   3.64910e-08 DIIS
   @RHF iter  13:  -479.76795024759087   -1.54557e-10   9.33517e-09 DIIS
   @RHF iter  14:  -479.76795024760708   -1.62004e-11   3.89695e-09 DIIS
   @RHF iter  15:  -479.76795024760372    3.35376e-12   1.86411e-09 DIIS
   @RHF iter  16:  -479.76795024760219    1.53477e-12   9.62121e-10 DIIS
   @RHF iter  17:  -479.76795024760401   -1.81899e-12   3.63748e-10 DIIS
   @RHF iter  18:  -479.76795024760349    5.11591e-13   1.56974e-10 DIIS
   @RHF iter  19:  -479.76795024760855   -5.05906e-12   5.18873e-11 DIIS
  Energy and wave function converged.

  ==> Post-Iterations <==

    Orbital Energies [Eh]
    ---------------------

    Doubly Occupied:

       1A    -15.602798     2A    -11.264395     3A    -11.262375
       4A    -11.230628     5A    -11.230542     6A    -11.229283
       7A    -11.224183     8A    -11.221532     9A    -11.219771
      10A    -11.216915    11A    -11.209704    12A    -11.202639
      13A     -1.297385    14A     -1.129785    15A     -1.076183
      16A     -1.007172    17A     -0.998733    18A     -0.989032
      19A     -0.933775    20A     -0.840877    21A     -0.825711
      22A     -0.804314    23A     -0.754944    24A     -0.720290
      25A     -0.663912    26A     -0.644028    27A     -0.605330
      28A     -0.598855    29A     -0.591163    30A     -0.586379
      31A     -0.583065    32A     -0.569831    33A     -0.552588
      34A     -0.540906    35A     -0.527611    36A     -0.495716
      37A     -0.489221    38A     -0.475224    39A     -0.474227
      40A     -0.472040    41A     -0.461018    42A     -0.373887
      43A     -0.296207    44A     -0.275830

    Virtual:

      45A      0.124439    46A      0.168570    47A      0.172915
      48A      0.188438    49A      0.197101    50A      0.207839
      51A      0.220186    52A      0.228786    53A      0.232038
      54A      0.253359    55A      0.261830    56A      0.265496
      57A      0.267153    58A      0.280789    59A      0.294263
      60A      0.300428    61A      0.304906    62A      0.313121
      63A      0.376614    64A      0.385063    65A      0.404212
      66A      0.409751    67A      0.422991    68A      0.444965
      69A      0.470512    70A      0.480198    71A      0.505691
      72A      0.516926    73A      0.583242    74A      0.590698
      75A      0.597187    76A      0.607860    77A      0.623013
      78A      0.642639    79A      0.654036    80A      0.665940
      81A      0.670940    82A      0.689297    83A      0.701072
      84A      0.715597    85A      0.724360    86A      0.732884
      87A      0.741456    88A      0.745442    89A      0.756911
      90A      0.765287    91A      0.768612    92A      0.776471
      93A      0.788088    94A      0.800973    95A      0.825342
      96A      0.842358    97A      0.861443    98A      0.869472
      99A      0.875727   100A      0.888243   101A      0.890099
     102A      0.892837   103A      0.903013   104A      0.907304
     105A      0.913995   106A      0.920332   107A      0.932892
     108A      0.946907   109A      0.952230   110A      0.953668
     111A      0.964055   112A      0.972172   113A      0.987598
     114A      0.997004   115A      1.004999   116A      1.017443
     117A      1.058963   118A      1.095730   119A      1.100614
     120A      1.130817   121A      1.135686   122A      1.137747
     123A      1.146975   124A      1.152857   125A      1.170028
     126A      1.180197   127A      1.213479   128A      1.226332
     129A      1.233606   130A      1.235879   131A      1.252746
     132A      1.273823   133A      1.283841   134A      1.294355
     135A      1.304564   136A      1.329048   137A      1.333526
     138A      1.365624   139A      1.369728   140A      1.425394
     141A      1.443515   142A      1.488710   143A      1.497312
     144A      1.520255   145A      1.546293   146A      1.570517
     147A      1.596510   148A      1.603931   149A      1.629220
     150A      1.641700   151A      1.649978   152A      1.689426
     153A      1.693312   154A      1.702704   155A      1.723711
     156A      1.756818   157A      1.761883   158A      1.774836
     159A      1.789821   160A      1.818203   161A      1.828432
     162A      1.833687   163A      1.872658   164A      1.876235
     165A      1.890099   166A      1.892197   167A      1.905020
     168A      1.907632   169A      1.919795   170A      1.925449
     171A      1.937374   172A      1.942724   173A      1.952419
     174A      1.959803   175A      1.963106   176A      1.963972
     177A      1.976801   178A      1.987860   179A      1.996719
     180A      2.007134   181A      2.013154   182A      2.031638
     183A      2.050155   184A      2.076204   185A      2.087094
     186A      2.091759   187A      2.103023   188A      2.111268
     189A      2.118395   190A      2.130055   191A      2.148255
     192A      2.152232   193A      2.170400   194A      2.179981
     195A      2.184980   196A      2.232400   197A      2.267506
     198A      2.289413   199A      2.303195   200A      2.310218
     201A      2.313554   202A      2.325652   203A      2.349840
     204A      2.369296   205A      2.407575   206A      2.411651
     207A      2.455474   208A      2.459324   209A      2.471388
     210A      2.490109   211A      2.554587   212A      2.571466
     213A      2.595403   214A      2.602971   215A      2.609666
     216A      2.641233   217A      2.668974   218A      2.690286
     219A      2.720692   220A      2.767883   221A      2.773297
     222A      2.775373   223A      2.783031   224A      2.807050
     225A      2.815958   226A      2.840903   227A      2.860493
     228A      2.869730   229A      2.873660   230A      2.895099
     231A      2.918268   232A      2.970313   233A      2.986245
     234A      2.988479   235A      3.034598   236A      3.063500
     237A      3.091097   238A      3.127372   239A      3.210564
     240A      3.312171   241A      3.385053   242A      3.742430
     243A      3.961525

    Final Occupation by Irrep:
              A
    DOCC [    44 ]

  @RHF Final Energy:  -479.76795024760855

   => Energetics <=

    Nuclear Repulsion Energy =            670.9754519576180201
    One-Electron Energy =               -1979.9467968048195416
    Two-Electron Energy =                 829.2033945995930253
    Total Energy =                       -479.7679502476086100

Computation Completed

Properties will be evaluated at   0.000000,   0.000000,   0.000000 [a0]

Properties computed using the SCF density matrix

  Nuclear Dipole Moment: [e a0]
     X:     0.7054      Y:    -8.6317      Z:    -7.9476

  Electronic Dipole Moment: [e a0]
     X:     0.0152      Y:     8.5248      Z:     8.1937

  Dipole Moment: [e a0]
     X:     0.7206      Y:    -0.1069      Z:     0.2461     Total:     0.7689

  Dipole Moment: [D]
     X:     1.8315      Y:    -0.2718      Z:     0.6254     Total:     1.9543

*** tstop() called on ds3 at Tue Apr 28 13:31:16 2020
Module time:
	user time   =     199.05 seconds =       3.32 minutes
	system time =      72.19 seconds =       1.20 minutes
	total time  =        377 seconds =       6.28 minutes
Total time:
	user time   =     199.05 seconds =       3.32 minutes
	system time =      72.19 seconds =       1.20 minutes
	total time  =        377 seconds =       6.28 minutes
                                     G D M A

                                 by Anthony Stone

                           version 2.2.06, 22 June 2011

               Distributed Multipoles from Gaussian wavefunctions

Starting at 13:31:16 on 28 Apr 2020

Using SCF density matrix from file ./SSI/SSI-010TRP-022LEU-1-dimer.test.16058.fchk

                         Distributed Multipole Analysis

Standard DMA

Positions and radii in angstrom
Multipole moments in atomic units, ea_0^k for rank k

C          x = -0.867690  y = -1.610541  z =  2.739121 angstrom
           Maximum rank =  0   Radius =  0.650 angstrom
                   Q00  =  -0.219294

C          x =  0.596310  y =  0.732459  z =  0.213121 angstrom
           Maximum rank =  0   Radius =  0.650 angstrom
                   Q00  =   0.300568

C          x = -0.528690  y =  0.205459  z =  0.894121 angstrom
           Maximum rank =  0   Radius =  0.650 angstrom
                   Q00  =  -0.048064

C          x = -0.046690  y = -0.784541  z =  1.814121 angstrom
           Maximum rank =  0   Radius =  0.650 angstrom
                   Q00  =  -0.121048

C          x =  1.303310  y = -0.825541  z =  1.663121 angstrom
           Maximum rank =  0   Radius =  0.650 angstrom
                   Q00  =   0.075148

C          x =  0.487310  y =  1.724459  z = -0.748879 angstrom
           Maximum rank =  0   Radius =  0.650 angstrom
                   Q00  =  -0.123376

C          x = -0.776690  y =  2.199459  z = -1.044879 angstrom
           Maximum rank =  0   Radius =  0.650 angstrom
                   Q00  =  -0.077475

C          x = -1.797690  y =  0.703459  z =  0.578121 angstrom
           Maximum rank =  0   Radius =  0.650 angstrom
                   Q00  =  -0.101734

C          x = -1.909690  y =  1.695459  z = -0.390879 angstrom
           Maximum rank =  0   Radius =  0.650 angstrom
                   Q00  =  -0.079038

N          x =  1.693310  y =  0.082459  z =  0.709121 angstrom
           Maximum rank =  0   Radius =  0.650 angstrom
                   Q00  =  -0.492489

H          x =  2.654310  y =  0.308459  z =  0.457121 angstrom
           Maximum rank =  0   Radius =  0.325 angstrom
                   Q00  =   0.217660

H          x =  1.371310  y =  2.128459  z = -1.212879 angstrom
           Maximum rank =  0   Radius =  0.325 angstrom
                   Q00  =   0.071652

H          x =  1.971310  y = -1.481541  z =  2.212121 angstrom
           Maximum rank =  0   Radius =  0.325 angstrom
                   Q00  =   0.099979

H          x = -0.898690  y =  2.980459  z = -1.781879 angstrom
           Maximum rank =  0   Radius =  0.325 angstrom
                   Q00  =   0.065153

H          x = -2.665690  y =  0.331459  z =  1.095121 angstrom
           Maximum rank =  0   Radius =  0.325 angstrom
                   Q00  =   0.071382

H          x = -0.401690  y = -2.576541  z =  2.827121 angstrom
           Maximum rank =  0   Radius =  0.325 angstrom
                   Q00  =   0.105961

H          x = -1.852690  y = -1.765541  z =  2.298121 angstrom
           Maximum rank =  0   Radius =  0.325 angstrom
                   Q00  =   0.104132

H          x = -2.883690  y =  2.082459  z = -0.651879 angstrom
           Maximum rank =  0   Radius =  0.325 angstrom
                   Q00  =   0.060373

H          x = -0.972956  y = -1.196691  z =  3.752851 angstrom
           Maximum rank =  0   Radius =  0.325 angstrom
                   Q00  =   0.100170

C          x =  0.600310  y = -1.966541  z = -2.223879 angstrom
           Maximum rank =  0   Radius =  0.650 angstrom
                   Q00  =  -0.236871

C          x =  0.900310  y = -1.396541  z = -3.608879 angstrom
           Maximum rank =  0   Radius =  0.650 angstrom
                   Q00  =  -0.228513

H          x =  1.244310  y = -1.518541  z = -1.472879 angstrom
           Maximum rank =  0   Radius =  0.325 angstrom
                   Q00  =   0.073490

H          x = -0.428690  y = -1.729541  z = -1.950879 angstrom
           Maximum rank =  0   Radius =  0.325 angstrom
                   Q00  =   0.087189

H          x =  0.728310  y = -3.048541  z = -2.223879 angstrom
           Maximum rank =  0   Radius =  0.325 angstrom
                   Q00  =   0.068729

H          x =  0.856310  y = -0.309541  z = -3.536879 angstrom
           Maximum rank =  0   Radius =  0.325 angstrom
                   Q00  =   0.078244

H          x =  1.901012  y = -1.691881  z = -3.957259 angstrom
           Maximum rank =  0   Radius =  0.325 angstrom
                   Q00  =   0.071013

H          x =  0.134906  y = -1.720141  z = -4.329599 angstrom
           Maximum rank =  0   Radius =  0.325 angstrom
                   Q00  =   0.077060

Total multipoles referred to origin at
           x =   0.000000,  y =    0.000000,  z =    0.000000 angstrom
                   Q00  =  -0.000000

Finished at 13:31:16 on 28 Apr 2020

  DMA results are available in the Python driver through the
	  variable('DMA DISTRIBUTED MULTIPOLES')
  and
	  variable('DMA TOTAL MULTIPOLES')
  commands.

    Psi4 stopped on: Tuesday, 28 April 2020 01:31PM
    Psi4 wall time for execution: 0:06:16.74

*** Psi4 exiting successfully. Buy a developer a beer!
