                               Psi4 1.3.2 release

  ==> Input File <==

--------------------------------------------------------------------------
import numpy as np
set {scf_type pk
basis cc-pvdz
d_convergence 10
gdma_switch   0
gdma_limit    0
gdma_origin   [ 0.0,  0.0,  0.0 ]
}
molecule test {
    units Angstrom
    0 1
    --
    0 1
    C                0.272039726788367    -1.788141343388761     1.320864719410026
    O               -0.426960273211633    -1.382141343388760     0.153864719410026
    H               -0.420960273211633    -2.118141343388761    -0.490135280589974
    H                0.110039726788367    -2.851141343388760     1.493864719410026
    H                1.343179726788368    -1.572047343388761     1.194514719410026
    H               -0.149880273211633    -1.213979343388760     2.158904719410027
    C                0.518039726788367     1.952858656611240    -1.183135280589974
    O               -0.343960273211633     1.325858656611240    -0.243135280589974
    H               -0.270960273211633     0.352858656611240    -0.296135280589974
    H                0.018039726788367     2.819858656611240    -1.617135280589974
    H                0.751039726788367     1.241858656611240    -1.978135280589974
    H                1.447229726788367     2.272719656611240    -0.688875280589974

}
e, wfn = energy('scf', return_wfn=True)
gdma(wfn)
dmavals = variable('DMA DISTRIBUTED MULTIPOLES')
charges = np.array(dmavals)
print(charges)
np.save('SSI-181THR-195SER-1-dimer.npy', np.array(charges))--------------------------------------------------------------------------

*** tstart() called on ds3
*** at Sun Apr 26 21:28:18 2020

   => Loading Basis Set <=

    Name: CC-PVDZ
    Role: ORBITAL
    Keyword: BASIS
    atoms 1, 7      entry C          line   138 file /theoryfs2/ds/metcalf/miniconda2/envs/tf2gpu/share/psi4/basis/cc-pvdz.gbs
    atoms 2, 8      entry O          line   198 file /theoryfs2/ds/metcalf/miniconda2/envs/tf2gpu/share/psi4/basis/cc-pvdz.gbs
    atoms 3-6, 9-12 entry H          line    22 file /theoryfs2/ds/metcalf/miniconda2/envs/tf2gpu/share/psi4/basis/cc-pvdz.gbs

         ---------------------------------------------------------
                                   SCF
               by Justin Turney, Rob Parrish, Andy Simmonett
                          and Daniel G. A. Smith
                              RHF Reference
                        1 Threads,    500 MiB Core
         ---------------------------------------------------------

  ==> Geometry <==

    Molecular point group: c1
    Full point group: C1

    Geometry (in Angstrom), charge = 0, multiplicity = 1:

       Center              X                  Y                   Z               Mass
    ------------   -----------------  -----------------  -----------------  -----------------
         C            0.272039726788    -1.788141343389     1.320864719410    12.000000000000
         O           -0.426960273212    -1.382141343389     0.153864719410    15.994914619570
         H           -0.420960273212    -2.118141343389    -0.490135280590     1.007825032230
         H            0.110039726788    -2.851141343389     1.493864719410     1.007825032230
         H            1.343179726788    -1.572047343389     1.194514719410     1.007825032230
         H           -0.149880273212    -1.213979343389     2.158904719410     1.007825032230
         C            0.518039726788     1.952858656611    -1.183135280590    12.000000000000
         O           -0.343960273212     1.325858656611    -0.243135280590    15.994914619570
         H           -0.270960273212     0.352858656611    -0.296135280590     1.007825032230
         H            0.018039726788     2.819858656611    -1.617135280590     1.007825032230
         H            0.751039726788     1.241858656611    -1.978135280590     1.007825032230
         H            1.447229726788     2.272719656611    -0.688875280590     1.007825032230

  Running in c1 symmetry.

  Rotational constants: A =      0.62811  B =      0.07409  C =      0.07283 [cm^-1]
  Rotational constants: A =  18830.15257  B =   2221.06310  C =   2183.27012 [MHz]
  Nuclear repulsion =  128.897288870681791

  Charge       = 0
  Multiplicity = 1
  Electrons    = 36
  Nalpha       = 18
  Nbeta        = 18

  ==> Algorithm <==

  SCF Algorithm Type is PK.
  DIIS enabled.
  MOM disabled.
  Fractional occupation disabled.
  Guess Type is SAD.
  Energy threshold   = 1.00e-06
  Density threshold  = 1.00e-10
  Integral threshold = 0.00e+00

  ==> Primary Basis <==

  Basis Set: CC-PVDZ
    Blend: CC-PVDZ
    Number of shells: 48
    Number of basis function: 96
    Number of Cartesian functions: 100
    Spherical Harmonics?: true
    Max angular momentum: 2

  ==> Pre-Iterations <==

   -------------------------------------------------------
    Irrep   Nso     Nmo     Nalpha   Nbeta   Ndocc  Nsocc
   -------------------------------------------------------
     A         96      96       0       0       0       0
   -------------------------------------------------------
    Total      96      96      18      18      18       0
   -------------------------------------------------------

  ==> Integral Setup <==

  Using in-core PK algorithm.
   Calculation information:
      Number of atoms:                  12
      Number of AO shells:              48
      Number of primitives:            128
      Number of atomic orbitals:       100
      Number of basis functions:        96

      Integral cutoff                 1.00e-12
      Number of threads:                 1

  Performing in-core PK
  Using 21682992 doubles for integral storage.
  We computed 601393 shell quartets total.
  Whereas there are 692076 unique shell quartets.

  ==> DiskJK: Disk-Based J/K Matrices <==

    J tasked:                  Yes
    K tasked:                  Yes
    wK tasked:                  No
    Memory [MiB]:              375
    Schwarz Cutoff:          1E-12

    OpenMP threads:              1

  Minimum eigenvalue in the overlap matrix is 1.5458487707E-02.
  Using Symmetric Orthogonalization.

  SCF Guess: Superposition of Atomic Densities via on-the-fly atomic UHF.

  ==> Iterations <==

                        Total Energy        Delta E     RMS |[F,P]|

   @RHF iter SAD:  -228.85290682973337   -2.28853e+02   0.00000e+00
   @RHF iter   1:  -229.97713037089400   -1.12422e+00   5.09348e-03 DIIS
   @RHF iter   2:  -230.07601864121716   -9.88883e-02   2.58439e-03 DIIS
   @RHF iter   3:  -230.09860320585193   -2.25846e-02   4.66097e-04 DIIS
   @RHF iter   4:  -230.10004423013999   -1.44102e-03   1.12654e-04 DIIS
   @RHF iter   5:  -230.10012663650400   -8.24064e-05   2.87076e-05 DIIS
   @RHF iter   6:  -230.10013270526383   -6.06876e-06   7.01405e-06 DIIS
   @RHF iter   7:  -230.10013327438077   -5.69117e-07   1.63994e-06 DIIS
   @RHF iter   8:  -230.10013330649755   -3.21168e-08   6.45796e-07 DIIS
   @RHF iter   9:  -230.10013330904567   -2.54812e-09   1.45825e-07 DIIS
   @RHF iter  10:  -230.10013330925389   -2.08217e-10   2.90551e-08 DIIS
   @RHF iter  11:  -230.10013330926287   -8.98126e-12   7.97447e-09 DIIS
   @RHF iter  12:  -230.10013330926412   -1.25056e-12   2.23170e-09 DIIS
   @RHF iter  13:  -230.10013330926284    1.27898e-12   5.47847e-10 DIIS
   @RHF iter  14:  -230.10013330926449   -1.64846e-12   1.72782e-10 DIIS
   @RHF iter  15:  -230.10013330926415    3.41061e-13   7.32338e-11 DIIS
  Energy and wave function converged.

  ==> Post-Iterations <==

    Orbital Energies [Eh]
    ---------------------

    Doubly Occupied:

       1A    -20.577588     2A    -20.505847     3A    -11.291192
       4A    -11.254326     5A     -1.374999     6A     -1.307180
       7A     -0.935352     8A     -0.896198     9A     -0.709055
      10A     -0.657181    11A     -0.632923    12A     -0.602423
      13A     -0.588341    14A     -0.562306    15A     -0.515281
      16A     -0.470314    17A     -0.452413    18A     -0.407987

    Virtual:

      19A      0.162707    20A      0.208596    21A      0.211136
      22A      0.251803    23A      0.261282    24A      0.279716
      25A      0.284379    26A      0.319953    27A      0.355422
      28A      0.451480    29A      0.619718    30A      0.634190
      31A      0.648399    32A      0.658997    33A      0.709525
      34A      0.758867    35A      0.796893    36A      0.838827
      37A      0.848398    38A      0.873331    39A      0.881066
      40A      0.882464    41A      0.908928    42A      0.925701
      43A      1.107965    44A      1.127320    45A      1.152959
      46A      1.162252    47A      1.178008    48A      1.209536
      49A      1.265473    50A      1.309558    51A      1.379717
      52A      1.434510    53A      1.481628    54A      1.559586
      55A      1.619209    56A      1.647764    57A      1.677553
      58A      1.688398    59A      1.708648    60A      1.780948
      61A      1.833106    62A      1.876037    63A      1.894321
      64A      1.901549    65A      1.926207    66A      1.942198
      67A      1.954483    68A      1.963959    69A      2.028120
      70A      2.101108    71A      2.115543    72A      2.145831
      73A      2.252922    74A      2.331587    75A      2.362177
      76A      2.376300    77A      2.420635    78A      2.428524
      79A      2.463187    80A      2.705174    81A      2.729553
      82A      2.746759    83A      2.766015    84A      2.767653
      85A      2.798484    86A      2.811555    87A      3.283968
      88A      3.331016    89A      3.359935    90A      3.410527
      91A      3.436471    92A      3.465158    93A      3.571403
      94A      3.651946    95A      4.062149    96A      4.153475

    Final Occupation by Irrep:
              A
    DOCC [    18 ]

  @RHF Final Energy:  -230.10013330926415

   => Energetics <=

    Nuclear Repulsion Energy =            128.8972888706817912
    One-Electron Energy =                -570.5130343909688690
    Two-Electron Energy =                 211.5156122110229262
    Total Energy =                       -230.1001333092641516

Computation Completed

Properties will be evaluated at   0.000000,   0.000000,   0.000000 [a0]

Properties computed using the SCF density matrix

  Nuclear Dipole Moment: [e a0]
     X:     2.6472      Y:    -1.0015      Z:    -0.2096

  Electronic Dipole Moment: [e a0]
     X:    -1.9825      Y:    -0.3446      Z:     0.0156

  Dipole Moment: [e a0]
     X:     0.6647      Y:    -1.3461      Z:    -0.1940     Total:     1.5138

  Dipole Moment: [D]
     X:     1.6896      Y:    -3.4216      Z:    -0.4930     Total:     3.8477

*** tstop() called on ds3 at Sun Apr 26 21:28:23 2020
Module time:
	user time   =       4.57 seconds =       0.08 minutes
	system time =       0.07 seconds =       0.00 minutes
	total time  =          5 seconds =       0.08 minutes
Total time:
	user time   =       4.57 seconds =       0.08 minutes
	system time =       0.07 seconds =       0.00 minutes
	total time  =          5 seconds =       0.08 minutes
                                     G D M A

                                 by Anthony Stone

                           version 2.2.06, 22 June 2011

               Distributed Multipoles from Gaussian wavefunctions

Starting at 21:28:23 on 26 Apr 2020

Using SCF density matrix from file ./SSI/SSI-181THR-195SER-1-dimer.test.17002.fchk

                         Distributed Multipole Analysis

Standard DMA

Positions and radii in angstrom
Multipole moments in atomic units, ea_0^k for rank k

C          x =  0.272040  y = -1.788141  z =  1.320865 angstrom
           Maximum rank =  0   Radius =  0.650 angstrom
                   Q00  =  -0.065303

O          x = -0.426960  y = -1.382141  z =  0.153865 angstrom
           Maximum rank =  0   Radius =  0.650 angstrom
                   Q00  =  -0.618333

H          x = -0.420960  y = -2.118141  z = -0.490135 angstrom
           Maximum rank =  0   Radius =  0.325 angstrom
                   Q00  =   0.396962

H          x =  0.110040  y = -2.851141  z =  1.493865 angstrom
           Maximum rank =  0   Radius =  0.325 angstrom
                   Q00  =   0.088418

H          x =  1.343180  y = -1.572047  z =  1.194515 angstrom
           Maximum rank =  0   Radius =  0.325 angstrom
                   Q00  =   0.082931

H          x = -0.149880  y = -1.213979  z =  2.158905 angstrom
           Maximum rank =  0   Radius =  0.325 angstrom
                   Q00  =   0.124520

C          x =  0.518040  y =  1.952859  z = -1.183135 angstrom
           Maximum rank =  0   Radius =  0.650 angstrom
                   Q00  =  -0.024414

O          x = -0.343960  y =  1.325859  z = -0.243135 angstrom
           Maximum rank =  0   Radius =  0.650 angstrom
                   Q00  =  -0.679538

H          x = -0.270960  y =  0.352859  z = -0.296135 angstrom
           Maximum rank =  0   Radius =  0.325 angstrom
                   Q00  =   0.487286

H          x =  0.018040  y =  2.819859  z = -1.617135 angstrom
           Maximum rank =  0   Radius =  0.325 angstrom
                   Q00  =   0.090453

H          x =  0.751040  y =  1.241859  z = -1.978135 angstrom
           Maximum rank =  0   Radius =  0.325 angstrom
                   Q00  =   0.053538

H          x =  1.447230  y =  2.272720  z = -0.688875 angstrom
           Maximum rank =  0   Radius =  0.325 angstrom
                   Q00  =   0.063479

Total multipoles referred to origin at
           x =   0.000000,  y =    0.000000,  z =    0.000000 angstrom
                   Q00  =  -0.000000

Finished at 21:28:23 on 26 Apr 2020

  DMA results are available in the Python driver through the
	  variable('DMA DISTRIBUTED MULTIPOLES')
  and
	  variable('DMA TOTAL MULTIPOLES')
  commands.

    Psi4 stopped on: Sunday, 26 April 2020 09:28PM
    Psi4 wall time for execution: 0:00:05.06

*** Psi4 exiting successfully. Buy a developer a beer!
