                               Psi4 1.3.2 release

  ==> Input File <==

--------------------------------------------------------------------------
import numpy as np
set {scf_type pk
basis cc-pvdz
d_convergence 10
gdma_switch   0
gdma_limit    0
gdma_origin   [ 0.0,  0.0,  0.0 ]
}
molecule test {
    units Angstrom
    0 1
    --
    0 1
    C                0.556039914593016    -1.723973090957359     0.211726574013299
    C                1.821039914593017    -2.036973090957359    -0.575273425986701
    H                0.739039914593017    -1.817973090957359     1.284726574013299
    H                0.235039914593017    -0.707973090957359    -0.002273425986701
    H               -0.244960085406983    -2.405973090957359    -0.083273425986701
    H                1.615039914593016    -1.890973090957359    -1.632273425986701
    H                2.110318914593016    -3.083989090957359    -0.401853425986701
    H                2.631125914593016    -1.356010090957359    -0.275183425986701
    C               -0.442960085406984     1.991026909042641     0.061726574013299
    C               -1.933960085406983     1.773026909042641     0.302726574013299
    H               -0.246960085406983     3.042026909042641    -0.151273425986701
    H                0.119039914593017     1.693026909042641     0.947726574013299
    H               -0.111960085406983     1.392026909042641    -0.785273425986701
    H               -2.071960085406984     0.729026909042641     0.570726574013299
    H               -2.495500085406984     1.972143909042641    -0.621953425986701
    H               -2.280165085406983     2.397637909042641     1.139386574013299

}
e, wfn = energy('scf', return_wfn=True)
gdma(wfn)
dmavals = variable('DMA DISTRIBUTED MULTIPOLES')
charges = np.array(dmavals)
print(charges)
np.save('SSI-001LEU-154LEU-1-dimer.npy', np.array(charges))--------------------------------------------------------------------------

*** tstart() called on ds3
*** at Mon Apr 27 22:14:23 2020

   => Loading Basis Set <=

    Name: CC-PVDZ
    Role: ORBITAL
    Keyword: BASIS
    atoms 1-2, 9-10  entry C          line   138 file /theoryfs2/ds/metcalf/miniconda2/envs/tf2gpu/share/psi4/basis/cc-pvdz.gbs
    atoms 3-8, 11-16 entry H          line    22 file /theoryfs2/ds/metcalf/miniconda2/envs/tf2gpu/share/psi4/basis/cc-pvdz.gbs

         ---------------------------------------------------------
                                   SCF
               by Justin Turney, Rob Parrish, Andy Simmonett
                          and Daniel G. A. Smith
                              RHF Reference
                        1 Threads,    500 MiB Core
         ---------------------------------------------------------

  ==> Geometry <==

    Molecular point group: c1
    Full point group: C1

    Geometry (in Angstrom), charge = 0, multiplicity = 1:

       Center              X                  Y                   Z               Mass
    ------------   -----------------  -----------------  -----------------  -----------------
         C            0.556039914593    -1.723973090957     0.211726574013    12.000000000000
         C            1.821039914593    -2.036973090957    -0.575273425987    12.000000000000
         H            0.739039914593    -1.817973090957     1.284726574013     1.007825032230
         H            0.235039914593    -0.707973090957    -0.002273425987     1.007825032230
         H           -0.244960085407    -2.405973090957    -0.083273425987     1.007825032230
         H            1.615039914593    -1.890973090957    -1.632273425987     1.007825032230
         H            2.110318914593    -3.083989090957    -0.401853425987     1.007825032230
         H            2.631125914593    -1.356010090957    -0.275183425987     1.007825032230
         C           -0.442960085407     1.991026909043     0.061726574013    12.000000000000
         C           -1.933960085407     1.773026909043     0.302726574013    12.000000000000
         H           -0.246960085407     3.042026909043    -0.151273425987     1.007825032230
         H            0.119039914593     1.693026909043     0.947726574013     1.007825032230
         H           -0.111960085407     1.392026909043    -0.785273425987     1.007825032230
         H           -2.071960085407     0.729026909043     0.570726574013     1.007825032230
         H           -2.495500085407     1.972143909043    -0.621953425987     1.007825032230
         H           -2.280165085407     2.397637909043     1.139386574013     1.007825032230

  Running in c1 symmetry.

  Rotational constants: A =      0.44573  B =      0.05180  C =      0.04858 [cm^-1]
  Rotational constants: A =  13362.59566  B =   1552.91797  C =   1456.35119 [MHz]
  Nuclear repulsion =  122.973606998305712

  Charge       = 0
  Multiplicity = 1
  Electrons    = 36
  Nalpha       = 18
  Nbeta        = 18

  ==> Algorithm <==

  SCF Algorithm Type is PK.
  DIIS enabled.
  MOM disabled.
  Fractional occupation disabled.
  Guess Type is SAD.
  Energy threshold   = 1.00e-06
  Density threshold  = 1.00e-10
  Integral threshold = 0.00e+00

  ==> Primary Basis <==

  Basis Set: CC-PVDZ
    Blend: CC-PVDZ
    Number of shells: 60
    Number of basis function: 116
    Number of Cartesian functions: 120
    Spherical Harmonics?: true
    Max angular momentum: 2

  ==> Pre-Iterations <==

   -------------------------------------------------------
    Irrep   Nso     Nmo     Nalpha   Nbeta   Ndocc  Nsocc
   -------------------------------------------------------
     A        116     116       0       0       0       0
   -------------------------------------------------------
    Total     116     116      18      18      18       0
   -------------------------------------------------------

  ==> Integral Setup <==

  Using integral reordering PK algorithm.
  Sizing the integral batches needed.
  Building batch lookup table.
   Calculation information:
      Number of atoms:                  16
      Number of AO shells:              60
      Number of primitives:            148
      Number of atomic orbitals:       120
      Number of basis functions:       116

      Integral cutoff                 1.00e-12
      Number of threads:                 1

	Batch   1 pq = [       0,    6786] index = [             0,23028291] size =     23028291
  Task number: 3
  Buffer size: 11059200
  Buffer per thread: 2
  We computed 1466980 shell quartets total.
  Whereas there are 1675365 unique shell quartets.

  ==> DiskJK: Disk-Based J/K Matrices <==

    J tasked:                  Yes
    K tasked:                  Yes
    wK tasked:                  No
    Memory [MiB]:              375
    Schwarz Cutoff:          1E-12

    OpenMP threads:              1

  Minimum eigenvalue in the overlap matrix is 6.9453014290E-03.
  Using Symmetric Orthogonalization.

  SCF Guess: Superposition of Atomic Densities via on-the-fly atomic UHF.

  ==> Iterations <==

                        Total Energy        Delta E     RMS |[F,P]|

   @RHF iter SAD:  -157.37520146302907   -1.57375e+02   0.00000e+00
   @RHF iter   1:  -158.30652845203235   -9.31327e-01   4.22307e-03 DIIS
   @RHF iter   2:  -158.44053998457088   -1.34012e-01   1.79519e-03 DIIS
   @RHF iter   3:  -158.46393798548664   -2.33980e-02   3.50144e-04 DIIS
   @RHF iter   4:  -158.46577650538654   -1.83852e-03   3.86700e-05 DIIS
   @RHF iter   5:  -158.46580026583530   -2.37604e-05   6.22954e-06 DIIS
   @RHF iter   6:  -158.46580086654677   -6.00711e-07   8.06427e-07 DIIS
   @RHF iter   7:  -158.46580087422143   -7.67466e-09   2.55847e-07 DIIS
   @RHF iter   8:  -158.46580087476380   -5.42371e-10   4.16334e-08 DIIS
   @RHF iter   9:  -158.46580087479219   -2.83933e-11   7.89482e-09 DIIS
   @RHF iter  10:  -158.46580087479350   -1.30740e-12   2.17195e-09 DIIS
   @RHF iter  11:  -158.46580087479367   -1.70530e-13   5.41959e-10 DIIS
   @RHF iter  12:  -158.46580087479347    1.98952e-13   1.33998e-10 DIIS
   @RHF iter  13:  -158.46580087479381   -3.41061e-13   2.46426e-11 DIIS
  Energy and wave function converged.

  ==> Post-Iterations <==

    Orbital Energies [Eh]
    ---------------------

    Doubly Occupied:

       1A    -11.219094     2A    -11.218398     3A    -11.217096
       4A    -11.215268     5A     -1.021562     6A     -1.018627
       7A     -0.837442     8A     -0.834189     9A     -0.607372
      10A     -0.601243    11A     -0.598517    12A     -0.592102
      13A     -0.501125    14A     -0.498656    15A     -0.490329
      16A     -0.487312    17A     -0.484989    18A     -0.479662

    Virtual:

      19A      0.171007    20A      0.198121    21A      0.227287
      22A      0.236423    23A      0.248662    24A      0.258079
      25A      0.262230    26A      0.277258    27A      0.279216
      28A      0.285618    29A      0.296762    30A      0.357782
      31A      0.389784    32A      0.404911    33A      0.588037
      34A      0.593852    35A      0.600498    36A      0.608620
      37A      0.609884    38A      0.637286    39A      0.671012
      40A      0.682384    41A      0.694280    42A      0.793227
      43A      0.839955    44A      0.850539    45A      0.879440
      46A      0.889825    47A      0.892147    48A      0.894332
      49A      0.898499    50A      0.900566    51A      0.913383
      52A      0.930505    53A      0.947426    54A      0.955525
      55A      0.977042    56A      1.049062    57A      1.125427
      58A      1.126626    59A      1.130384    60A      1.141733
      61A      1.232263    62A      1.319860    63A      1.472489
      64A      1.477500    65A      1.481548    66A      1.488037
      67A      1.553977    68A      1.612741    69A      1.679128
      70A      1.682054    71A      1.695745    72A      1.698775
      73A      1.844764    74A      1.860832    75A      1.863207
      76A      1.890562    77A      1.896219    78A      1.912240
      79A      1.930583    80A      1.939824    81A      1.945260
      82A      1.948356    83A      1.954304    84A      1.958006
      85A      1.962940    86A      1.976469    87A      1.988563
      88A      2.024420    89A      2.089666    90A      2.112399
      91A      2.121754    92A      2.134363    93A      2.287577
      94A      2.294404    95A      2.312304    96A      2.319298
      97A      2.450422    98A      2.458170    99A      2.464786
     100A      2.471539   101A      2.562777   102A      2.568050
     103A      2.576236   104A      2.586915   105A      2.761364
     106A      2.765976   107A      2.788854   108A      2.794880
     109A      2.847631   110A      2.848292   111A      2.853700
     112A      2.861989   113A      2.938348   114A      2.951104
     115A      2.982480   116A      2.999481

    Final Occupation by Irrep:
              A
    DOCC [    18 ]

  @RHF Final Energy:  -158.46580087479381

   => Energetics <=

    Nuclear Repulsion Energy =            122.9736069983057121
    One-Electron Energy =                -455.0328495715039026
    Two-Electron Energy =                 173.5934416984043480
    Total Energy =                       -158.4658008747938140

Computation Completed

Properties will be evaluated at   0.000000,   0.000000,   0.000000 [a0]

Properties computed using the SCF density matrix

  Nuclear Dipole Moment: [e a0]
     X:    -0.0018      Y:    -0.0347      Z:    -0.0101

  Electronic Dipole Moment: [e a0]
     X:    -0.0059      Y:     0.0499      Z:     0.0060

  Dipole Moment: [e a0]
     X:    -0.0077      Y:     0.0152      Z:    -0.0041     Total:     0.0175

  Dipole Moment: [D]
     X:    -0.0195      Y:     0.0387      Z:    -0.0104     Total:     0.0446

*** tstop() called on ds3 at Mon Apr 27 22:14:33 2020
Module time:
	user time   =       7.51 seconds =       0.13 minutes
	system time =       3.02 seconds =       0.05 minutes
	total time  =         10 seconds =       0.17 minutes
Total time:
	user time   =       7.51 seconds =       0.13 minutes
	system time =       3.02 seconds =       0.05 minutes
	total time  =         10 seconds =       0.17 minutes
                                     G D M A

                                 by Anthony Stone

                           version 2.2.06, 22 June 2011

               Distributed Multipoles from Gaussian wavefunctions

Starting at 22:14:33 on 27 Apr 2020

Using SCF density matrix from file ./SSI/SSI-001LEU-154LEU-1-dimer.test.3500.fchk

                         Distributed Multipole Analysis

Standard DMA

Positions and radii in angstrom
Multipole moments in atomic units, ea_0^k for rank k

C          x =  0.556040  y = -1.723973  z =  0.211727 angstrom
           Maximum rank =  0   Radius =  0.650 angstrom
                   Q00  =  -0.225068

C          x =  1.821040  y = -2.036973  z = -0.575273 angstrom
           Maximum rank =  0   Radius =  0.650 angstrom
                   Q00  =  -0.250156

H          x =  0.739040  y = -1.817973  z =  1.284727 angstrom
           Maximum rank =  0   Radius =  0.325 angstrom
                   Q00  =   0.077624

H          x =  0.235040  y = -0.707973  z = -0.002273 angstrom
           Maximum rank =  0   Radius =  0.325 angstrom
                   Q00  =   0.087392

H          x = -0.244960  y = -2.405973  z = -0.083273 angstrom
           Maximum rank =  0   Radius =  0.325 angstrom
                   Q00  =   0.076655

H          x =  1.615040  y = -1.890973  z = -1.632273 angstrom
           Maximum rank =  0   Radius =  0.325 angstrom
                   Q00  =   0.077698

H          x =  2.110319  y = -3.083989  z = -0.401853 angstrom
           Maximum rank =  0   Radius =  0.325 angstrom
                   Q00  =   0.078505

H          x =  2.631126  y = -1.356010  z = -0.275183 angstrom
           Maximum rank =  0   Radius =  0.325 angstrom
                   Q00  =   0.078319

C          x = -0.442960  y =  1.991027  z =  0.061727 angstrom
           Maximum rank =  0   Radius =  0.650 angstrom
                   Q00  =  -0.236383

C          x = -1.933960  y =  1.773027  z =  0.302727 angstrom
           Maximum rank =  0   Radius =  0.650 angstrom
                   Q00  =  -0.236872

H          x = -0.246960  y =  3.042027  z = -0.151273 angstrom
           Maximum rank =  0   Radius =  0.325 angstrom
                   Q00  =   0.078756

H          x =  0.119040  y =  1.693027  z =  0.947727 angstrom
           Maximum rank =  0   Radius =  0.325 angstrom
                   Q00  =   0.078323

H          x = -0.111960  y =  1.392027  z = -0.785273 angstrom
           Maximum rank =  0   Radius =  0.325 angstrom
                   Q00  =   0.077594

H          x = -2.071960  y =  0.729027  z =  0.570727 angstrom
           Maximum rank =  0   Radius =  0.325 angstrom
                   Q00  =   0.078247

H          x = -2.495500  y =  1.972144  z = -0.621953 angstrom
           Maximum rank =  0   Radius =  0.325 angstrom
                   Q00  =   0.079021

H          x = -2.280165  y =  2.397638  z =  1.139387 angstrom
           Maximum rank =  0   Radius =  0.325 angstrom
                   Q00  =   0.080344

Total multipoles referred to origin at
           x =   0.000000,  y =    0.000000,  z =    0.000000 angstrom
                   Q00  =  -0.000000

Finished at 22:14:33 on 27 Apr 2020

  DMA results are available in the Python driver through the
	  variable('DMA DISTRIBUTED MULTIPOLES')
  and
	  variable('DMA TOTAL MULTIPOLES')
  commands.

    Psi4 stopped on: Monday, 27 April 2020 10:14PM
    Psi4 wall time for execution: 0:00:10.54

*** Psi4 exiting successfully. Buy a developer a beer!
