                               Psi4 1.3.2 release

  ==> Input File <==

--------------------------------------------------------------------------
import numpy as np
set {scf_type pk
basis cc-pvdz
d_convergence 10
gdma_switch   0
gdma_limit    0
gdma_origin   [ 0.0,  0.0,  0.0 ]
}
molecule test {
    units Angstrom
    0 1
    --
    0 1
    C                1.735057719123665    -1.052535517177243    -0.895519330423221
    C                2.696057719123665    -0.073535517177243    -1.586519330423221
    H                2.063057719123665    -2.079535517177243    -1.065519330423222
    H                1.697057719123665    -0.866535517177243     0.177480669576779
    H                0.724057719123665    -0.931535517177243    -1.261519330423222
    H                2.269057719123665     0.912464482822757    -1.393519330423221
    H                2.658607719123665    -0.196994517177243    -2.678927330423222
    H                3.701157719123665    -0.003609517177243    -1.145065330423221
    C               -1.677942280876335    -0.158535517177243     0.559480669576779
    C               -1.276942280876335     0.050464482822757     2.035480669576779
    C               -1.584942280876335     1.203464482822757    -0.083519330423221
    H               -2.683942280876335    -0.572535517177243     0.479480669576779
    H               -0.957942280876335    -0.837535517177243     0.115480669576779
    H               -2.149942280876335     0.313464482822757     2.635480669576778
    H               -0.782942280876335    -0.841535517177243     2.425480669576778
    H               -2.508942280876335     1.746464482822757     0.100480669576779
    H               -1.394942280876335     1.131464482822757    -1.155519330423221
    H               -0.591802280876335     0.908569482822757     1.970340669576778
    H               -0.748132280876335     1.682662482822757     0.445744669576779

}
e, wfn = energy('scf', return_wfn=True)
gdma(wfn)
dmavals = variable('DMA DISTRIBUTED MULTIPOLES')
charges = np.array(dmavals)
print(charges)
np.save('SSI-016ILE-219PRO-1-dimer.npy', np.array(charges))--------------------------------------------------------------------------

*** tstart() called on ds3
*** at Mon Apr 27 23:39:29 2020

   => Loading Basis Set <=

    Name: CC-PVDZ
    Role: ORBITAL
    Keyword: BASIS
    atoms 1-2, 9-11  entry C          line   138 file /theoryfs2/ds/metcalf/miniconda2/envs/tf2gpu/share/psi4/basis/cc-pvdz.gbs
    atoms 3-8, 12-19 entry H          line    22 file /theoryfs2/ds/metcalf/miniconda2/envs/tf2gpu/share/psi4/basis/cc-pvdz.gbs

         ---------------------------------------------------------
                                   SCF
               by Justin Turney, Rob Parrish, Andy Simmonett
                          and Daniel G. A. Smith
                              RHF Reference
                        1 Threads,    500 MiB Core
         ---------------------------------------------------------

  ==> Geometry <==

    Molecular point group: c1
    Full point group: C1

    Geometry (in Angstrom), charge = 0, multiplicity = 1:

       Center              X                  Y                   Z               Mass
    ------------   -----------------  -----------------  -----------------  -----------------
         C            1.735057719124    -1.052535517177    -0.895519330423    12.000000000000
         C            2.696057719124    -0.073535517177    -1.586519330423    12.000000000000
         H            2.063057719124    -2.079535517177    -1.065519330423     1.007825032230
         H            1.697057719124    -0.866535517177     0.177480669577     1.007825032230
         H            0.724057719124    -0.931535517177    -1.261519330423     1.007825032230
         H            2.269057719124     0.912464482823    -1.393519330423     1.007825032230
         H            2.658607719124    -0.196994517177    -2.678927330423     1.007825032230
         H            3.701157719124    -0.003609517177    -1.145065330423     1.007825032230
         C           -1.677942280876    -0.158535517177     0.559480669577    12.000000000000
         C           -1.276942280876     0.050464482823     2.035480669577    12.000000000000
         C           -1.584942280876     1.203464482823    -0.083519330423    12.000000000000
         H           -2.683942280876    -0.572535517177     0.479480669577     1.007825032230
         H           -0.957942280876    -0.837535517177     0.115480669577     1.007825032230
         H           -2.149942280876     0.313464482823     2.635480669577     1.007825032230
         H           -0.782942280876    -0.841535517177     2.425480669577     1.007825032230
         H           -2.508942280876     1.746464482823     0.100480669577     1.007825032230
         H           -1.394942280876     1.131464482823    -1.155519330423     1.007825032230
         H           -0.591802280876     0.908569482823     1.970340669577     1.007825032230
         H           -0.748132280876     1.682662482823     0.445744669577     1.007825032230

  Running in c1 symmetry.

  Rotational constants: A =      0.21394  B =      0.04433  C =      0.04072 [cm^-1]
  Rotational constants: A =   6413.68603  B =   1328.87992  C =   1220.85792 [MHz]
  Nuclear repulsion =  181.162285582695262

  Charge       = 0
  Multiplicity = 1
  Electrons    = 44
  Nalpha       = 22
  Nbeta        = 22

  ==> Algorithm <==

  SCF Algorithm Type is PK.
  DIIS enabled.
  MOM disabled.
  Fractional occupation disabled.
  Guess Type is SAD.
  Energy threshold   = 1.00e-06
  Density threshold  = 1.00e-10
  Integral threshold = 0.00e+00

  ==> Primary Basis <==

  Basis Set: CC-PVDZ
    Blend: CC-PVDZ
    Number of shells: 72
    Number of basis function: 140
    Number of Cartesian functions: 145
    Spherical Harmonics?: true
    Max angular momentum: 2

  ==> Pre-Iterations <==

   -------------------------------------------------------
    Irrep   Nso     Nmo     Nalpha   Nbeta   Ndocc  Nsocc
   -------------------------------------------------------
     A        140     140       0       0       0       0
   -------------------------------------------------------
    Total     140     140      22      22      22       0
   -------------------------------------------------------

  ==> Integral Setup <==

  Using integral reordering PK algorithm.
  Sizing the integral batches needed.
  Building batch lookup table.
   Calculation information:
      Number of atoms:                  19
      Number of AO shells:              72
      Number of primitives:            180
      Number of atomic orbitals:       145
      Number of basis functions:       140

      Integral cutoff                 1.00e-12
      Number of threads:                 1

	Batch   1 pq = [       0,    9405] index = [             0,44231715] size =     44231715
	Batch   2 pq = [    9405,    9870] index = [      44231715,48713385] size =      4481670
  Task number: 5
  Buffer size: 11059200
  Buffer per thread: 2
  We computed 3041623 shell quartets total.
  Whereas there are 3454506 unique shell quartets.

  ==> DiskJK: Disk-Based J/K Matrices <==

    J tasked:                  Yes
    K tasked:                  Yes
    wK tasked:                  No
    Memory [MiB]:              375
    Schwarz Cutoff:          1E-12

    OpenMP threads:              1

  Minimum eigenvalue in the overlap matrix is 5.1387767125E-03.
  Using Symmetric Orthogonalization.

  SCF Guess: Superposition of Atomic Densities via on-the-fly atomic UHF.

  ==> Iterations <==

                        Total Energy        Delta E     RMS |[F,P]|

   @RHF iter SAD:  -196.46546181969936   -1.96465e+02   0.00000e+00
   @RHF iter   1:  -197.29158596175589   -8.26124e-01   3.82438e-03 DIIS
   @RHF iter   2:  -197.45171152563665   -1.60126e-01   1.65692e-03 DIIS
   @RHF iter   3:  -197.48059731984935   -2.88858e-02   3.27017e-04 DIIS
   @RHF iter   4:  -197.48279471662659   -2.19740e-03   4.91221e-05 DIIS
   @RHF iter   5:  -197.48283486398896   -4.01474e-05   1.52411e-05 DIIS
   @RHF iter   6:  -197.48283847228382   -3.60829e-06   2.64972e-06 DIIS
   @RHF iter   7:  -197.48283860431124   -1.32027e-07   5.22549e-07 DIIS
   @RHF iter   8:  -197.48283861039218   -6.08094e-09   1.27812e-07 DIIS
   @RHF iter   9:  -197.48283861075848   -3.66299e-10   4.24295e-08 DIIS
   @RHF iter  10:  -197.48283861079969   -4.12115e-11   9.18359e-09 DIIS
   @RHF iter  11:  -197.48283861080142   -1.73372e-12   1.70984e-09 DIIS
   @RHF iter  12:  -197.48283861080210   -6.82121e-13   3.37347e-10 DIIS
   @RHF iter  13:  -197.48283861080188    2.27374e-13   6.96097e-11 DIIS
  Energy and wave function converged.

  ==> Post-Iterations <==

    Orbital Energies [Eh]
    ---------------------

    Doubly Occupied:

       1A    -11.221125     2A    -11.218633     3A    -11.214837
       4A    -11.214294     5A    -11.213208     6A     -1.063042
       7A     -1.017846     8A     -0.915624     9A     -0.841539
      10A     -0.797735    11A     -0.636504    12A     -0.613301
      13A     -0.601060    14A     -0.591815    15A     -0.543730
      16A     -0.513572    17A     -0.508447    18A     -0.492238
      19A     -0.479177    20A     -0.477043    21A     -0.466683
      22A     -0.459446

    Virtual:

      23A      0.165403    24A      0.199423    25A      0.216171
      26A      0.219304    27A      0.228490    28A      0.250488
      29A      0.261595    30A      0.267577    31A      0.278402
      32A      0.284782    33A      0.289718    34A      0.313336
      35A      0.329741    36A      0.358442    37A      0.375780
      38A      0.409093    39A      0.440178    40A      0.555810
      41A      0.584231    42A      0.595961    43A      0.605534
      44A      0.615422    45A      0.634377    46A      0.656401
      47A      0.660959    48A      0.715293    49A      0.740669
      50A      0.778865    51A      0.807747    52A      0.834573
      53A      0.861098    54A      0.864669    55A      0.877441
      56A      0.882036    57A      0.893742    58A      0.895556
      59A      0.897529    60A      0.911249    61A      0.914864
      62A      0.920016    63A      0.923857    64A      0.946130
      65A      0.967669    66A      0.980010    67A      0.987213
      68A      1.015154    69A      1.085144    70A      1.110613
      71A      1.133211    72A      1.156232    73A      1.224248
      74A      1.250302    75A      1.397968    76A      1.446152
      77A      1.468019    78A      1.483338    79A      1.487761
      80A      1.575115    81A      1.615786    82A      1.620186
      83A      1.631272    84A      1.673293    85A      1.696999
      86A      1.726214    87A      1.732492    88A      1.793254
      89A      1.852432    90A      1.865557    91A      1.871708
      92A      1.877229    93A      1.889272    94A      1.916523
      95A      1.929240    96A      1.931134    97A      1.938427
      98A      1.950030    99A      1.952300   100A      1.963687
     101A      1.989115   102A      2.002771   103A      2.008090
     104A      2.013474   105A      2.017833   106A      2.035689
     107A      2.065614   108A      2.089252   109A      2.139108
     110A      2.148455   111A      2.207881   112A      2.247178
     113A      2.295865   114A      2.304730   115A      2.324496
     116A      2.354363   117A      2.432330   118A      2.442565
     119A      2.453456   120A      2.478898   121A      2.497929
     122A      2.532381   123A      2.552714   124A      2.589575
     125A      2.635357   126A      2.702175   127A      2.753929
     128A      2.760328   129A      2.780423   130A      2.797790
     131A      2.799488   132A      2.837809   133A      2.845102
     134A      2.849867   135A      2.900458   136A      2.918485
     137A      2.948316   138A      2.958665   139A      2.974395
     140A      3.055581

    Final Occupation by Irrep:
              A
    DOCC [    22 ]

  @RHF Final Energy:  -197.48283861080188

   => Energetics <=

    Nuclear Repulsion Energy =            181.1622855826952616
    One-Electron Energy =                -623.0884504948917311
    Two-Electron Energy =                 244.4433263013945634
    Total Energy =                       -197.4828386108018776

Computation Completed

Properties will be evaluated at   0.000000,   0.000000,   0.000000 [a0]

Properties computed using the SCF density matrix

  Nuclear Dipole Moment: [e a0]
     X:     1.2135      Y:     0.3424      Z:    -0.3282

  Electronic Dipole Moment: [e a0]
     X:    -1.2447      Y:    -0.3562      Z:     0.3118

  Dipole Moment: [e a0]
     X:    -0.0313      Y:    -0.0137      Z:    -0.0164     Total:     0.0379

  Dipole Moment: [D]
     X:    -0.0794      Y:    -0.0349      Z:    -0.0417     Total:     0.0963

*** tstop() called on ds3 at Mon Apr 27 23:39:54 2020
Module time:
	user time   =      18.03 seconds =       0.30 minutes
	system time =       8.25 seconds =       0.14 minutes
	total time  =         25 seconds =       0.42 minutes
Total time:
	user time   =      18.03 seconds =       0.30 minutes
	system time =       8.25 seconds =       0.14 minutes
	total time  =         25 seconds =       0.42 minutes
                                     G D M A

                                 by Anthony Stone

                           version 2.2.06, 22 June 2011

               Distributed Multipoles from Gaussian wavefunctions

Starting at 23:39:54 on 27 Apr 2020

Using SCF density matrix from file ./SSI/SSI-016ILE-219PRO-1-dimer.test.3572.fchk

                         Distributed Multipole Analysis

Standard DMA

Positions and radii in angstrom
Multipole moments in atomic units, ea_0^k for rank k

C          x =  1.735058  y = -1.052536  z = -0.895519 angstrom
           Maximum rank =  0   Radius =  0.650 angstrom
                   Q00  =  -0.235574

C          x =  2.696058  y = -0.073536  z = -1.586519 angstrom
           Maximum rank =  0   Radius =  0.650 angstrom
                   Q00  =  -0.219647

H          x =  2.063058  y = -2.079536  z = -1.065519 angstrom
           Maximum rank =  0   Radius =  0.325 angstrom
                   Q00  =   0.078549

H          x =  1.697058  y = -0.866536  z =  0.177481 angstrom
           Maximum rank =  0   Radius =  0.325 angstrom
                   Q00  =   0.078411

H          x =  0.724058  y = -0.931536  z = -1.261519 angstrom
           Maximum rank =  0   Radius =  0.325 angstrom
                   Q00  =   0.083562

H          x =  2.269058  y =  0.912464  z = -1.393519 angstrom
           Maximum rank =  0   Radius =  0.325 angstrom
                   Q00  =   0.068878

H          x =  2.658608  y = -0.196995  z = -2.678927 angstrom
           Maximum rank =  0   Radius =  0.325 angstrom
                   Q00  =   0.071609

H          x =  3.701158  y = -0.003610  z = -1.145065 angstrom
           Maximum rank =  0   Radius =  0.325 angstrom
                   Q00  =   0.075718

C          x = -1.677942  y = -0.158536  z =  0.559481 angstrom
           Maximum rank =  0   Radius =  0.650 angstrom
                   Q00  =  -0.101757

C          x = -1.276942  y =  0.050464  z =  2.035481 angstrom
           Maximum rank =  0   Radius =  0.650 angstrom
                   Q00  =  -0.251092

C          x = -1.584942  y =  1.203464  z = -0.083519 angstrom
           Maximum rank =  0   Radius =  0.650 angstrom
                   Q00  =  -0.204000

H          x = -2.683942  y = -0.572536  z =  0.479481 angstrom
           Maximum rank =  0   Radius =  0.325 angstrom
                   Q00  =   0.053050

H          x = -0.957942  y = -0.837536  z =  0.115481 angstrom
           Maximum rank =  0   Radius =  0.325 angstrom
                   Q00  =   0.058913

H          x = -2.149942  y =  0.313464  z =  2.635481 angstrom
           Maximum rank =  0   Radius =  0.325 angstrom
                   Q00  =   0.081759

H          x = -0.782942  y = -0.841536  z =  2.425481 angstrom
           Maximum rank =  0   Radius =  0.325 angstrom
                   Q00  =   0.089201

H          x = -2.508942  y =  1.746464  z =  0.100481 angstrom
           Maximum rank =  0   Radius =  0.325 angstrom
                   Q00  =   0.079045

H          x = -1.394942  y =  1.131464  z = -1.155519 angstrom
           Maximum rank =  0   Radius =  0.325 angstrom
                   Q00  =   0.080520

H          x = -0.591802  y =  0.908569  z =  1.970341 angstrom
           Maximum rank =  0   Radius =  0.325 angstrom
                   Q00  =   0.060996

H          x = -0.748132  y =  1.682662  z =  0.445745 angstrom
           Maximum rank =  0   Radius =  0.325 angstrom
                   Q00  =   0.051858

Total multipoles referred to origin at
           x =   0.000000,  y =    0.000000,  z =    0.000000 angstrom
                   Q00  =  -0.000000

Finished at 23:39:54 on 27 Apr 2020

  DMA results are available in the Python driver through the
	  variable('DMA DISTRIBUTED MULTIPOLES')
  and
	  variable('DMA TOTAL MULTIPOLES')
  commands.

    Psi4 stopped on: Monday, 27 April 2020 11:39PM
    Psi4 wall time for execution: 0:00:25.53

*** Psi4 exiting successfully. Buy a developer a beer!
