                               Psi4 1.3.2 release

  ==> Input File <==

--------------------------------------------------------------------------
import numpy as np
set {scf_type pk
basis cc-pvdz
d_convergence 10
gdma_switch   0
gdma_limit    0
gdma_origin   [ 0.0,  0.0,  0.0 ]
}
molecule test {
    units Angstrom
    0 1
    --
    0 1
    C               -1.563962065342829     3.822343610942570     1.137984199782768
    C                0.070037934657170     2.381343610942571    -0.159015800217232
    C               -0.269962065342830     0.331343610942571     0.641984199782768
    C               -0.886962065342830     2.542343610942571     0.789984199782768
    C               -1.129962065342830     1.234343610942571     1.333984199782767
    C               -0.247962065342830    -1.035656389057430     0.901984199782768
    C               -1.091962065342829    -1.507656389057429     1.893984199782768
    C               -1.988962065342829     0.733343610942571     2.314984199782768
    C               -1.958962065342829    -0.632656389057429     2.578984199782767
    N                0.459037934657170     1.066343610942571    -0.258015800217232
    H                1.030037934657170     0.670343610942570    -1.000015800217233
    H                0.430037934657170     3.184343610942571    -0.789015800217232
    H                0.405037934657170    -1.697656389057429     0.354984199782768
    H               -2.591962065342830     3.580343610942570     1.408984199782767
    H               -1.634962065342830     4.411343610942570     0.221984199782768
    H               -1.103962065342829    -2.561656389057429     2.116984199782767
    H               -2.696962065342829     1.383343610942571     2.794984199782767
    H               -2.621962065342830    -1.040656389057430     3.312984199782767
    H               -1.147532065342830     4.474772610942570     1.919604199782767
    C                2.830037934657171    -2.660656389057429    -1.519015800217233
    C                1.845037934657171    -1.994656389057430    -2.442015800217232
    O                1.475037934657170    -0.839656389057430    -2.259015800217233
    N                1.474037934657171    -2.722656389057429    -3.470015800217233
    H                2.701037934657170    -3.744656389057429    -1.535015800217232
    H                2.629037934657170    -2.303656389057430    -0.508015800217232
    H                0.885037934657170    -2.282656389057429    -4.158015800217232
    H                1.905037934657170    -3.610656389057429    -3.674015800217233
    H                3.856957934657170    -2.389474389057429    -1.805185800217233

}
e, wfn = energy('scf', return_wfn=True)
gdma(wfn)
dmavals = variable('DMA DISTRIBUTED MULTIPOLES')
charges = np.array(dmavals)
print(charges)
np.save('SSI-032TRP-083ASN-1-dimer.npy', np.array(charges))--------------------------------------------------------------------------

*** tstart() called on ds3
*** at Tue Apr 28 13:40:14 2020

   => Loading Basis Set <=

    Name: CC-PVDZ
    Role: ORBITAL
    Keyword: BASIS
    atoms 1-9, 20-21   entry C          line   138 file /theoryfs2/ds/metcalf/miniconda2/envs/tf2gpu/share/psi4/basis/cc-pvdz.gbs
    atoms 10, 23       entry N          line   168 file /theoryfs2/ds/metcalf/miniconda2/envs/tf2gpu/share/psi4/basis/cc-pvdz.gbs
    atoms 11-19, 24-28 entry H          line    22 file /theoryfs2/ds/metcalf/miniconda2/envs/tf2gpu/share/psi4/basis/cc-pvdz.gbs
    atoms 22           entry O          line   198 file /theoryfs2/ds/metcalf/miniconda2/envs/tf2gpu/share/psi4/basis/cc-pvdz.gbs

         ---------------------------------------------------------
                                   SCF
               by Justin Turney, Rob Parrish, Andy Simmonett
                          and Daniel G. A. Smith
                              RHF Reference
                        1 Threads,    500 MiB Core
         ---------------------------------------------------------

  ==> Geometry <==

    Molecular point group: c1
    Full point group: C1

    Geometry (in Angstrom), charge = 0, multiplicity = 1:

       Center              X                  Y                   Z               Mass
    ------------   -----------------  -----------------  -----------------  -----------------
         C           -1.563962065343     3.822343610943     1.137984199783    12.000000000000
         C            0.070037934657     2.381343610943    -0.159015800217    12.000000000000
         C           -0.269962065343     0.331343610943     0.641984199783    12.000000000000
         C           -0.886962065343     2.542343610943     0.789984199783    12.000000000000
         C           -1.129962065343     1.234343610943     1.333984199783    12.000000000000
         C           -0.247962065343    -1.035656389057     0.901984199783    12.000000000000
         C           -1.091962065343    -1.507656389057     1.893984199783    12.000000000000
         C           -1.988962065343     0.733343610943     2.314984199783    12.000000000000
         C           -1.958962065343    -0.632656389057     2.578984199783    12.000000000000
         N            0.459037934657     1.066343610943    -0.258015800217    14.003074004430
         H            1.030037934657     0.670343610943    -1.000015800217     1.007825032230
         H            0.430037934657     3.184343610943    -0.789015800217     1.007825032230
         H            0.405037934657    -1.697656389057     0.354984199783     1.007825032230
         H           -2.591962065343     3.580343610943     1.408984199783     1.007825032230
         H           -1.634962065343     4.411343610943     0.221984199783     1.007825032230
         H           -1.103962065343    -2.561656389057     2.116984199783     1.007825032230
         H           -2.696962065343     1.383343610943     2.794984199783     1.007825032230
         H           -2.621962065343    -1.040656389057     3.312984199783     1.007825032230
         H           -1.147532065343     4.474772610943     1.919604199783     1.007825032230
         C            2.830037934657    -2.660656389057    -1.519015800217    12.000000000000
         C            1.845037934657    -1.994656389057    -2.442015800217    12.000000000000
         O            1.475037934657    -0.839656389057    -2.259015800217    15.994914619570
         N            1.474037934657    -2.722656389057    -3.470015800217    14.003074004430
         H            2.701037934657    -3.744656389057    -1.535015800217     1.007825032230
         H            2.629037934657    -2.303656389057    -0.508015800217     1.007825032230
         H            0.885037934657    -2.282656389057    -4.158015800217     1.007825032230
         H            1.905037934657    -3.610656389057    -3.674015800217     1.007825032230
         H            3.856957934657    -2.389474389057    -1.805185800217     1.007825032230

  Running in c1 symmetry.

  Rotational constants: A =      0.03745  B =      0.01146  C =      0.00927 [cm^-1]
  Rotational constants: A =   1122.83700  B =    343.48377  C =    277.80615 [MHz]
  Nuclear repulsion =  825.505143071216594

  Charge       = 0
  Multiplicity = 1
  Electrons    = 102
  Nalpha       = 51
  Nbeta        = 51

  ==> Algorithm <==

  SCF Algorithm Type is PK.
  DIIS enabled.
  MOM disabled.
  Fractional occupation disabled.
  Guess Type is SAD.
  Energy threshold   = 1.00e-06
  Density threshold  = 1.00e-10
  Integral threshold = 0.00e+00

  ==> Primary Basis <==

  Basis Set: CC-PVDZ
    Blend: CC-PVDZ
    Number of shells: 126
    Number of basis function: 266
    Number of Cartesian functions: 280
    Spherical Harmonics?: true
    Max angular momentum: 2

  ==> Pre-Iterations <==

   -------------------------------------------------------
    Irrep   Nso     Nmo     Nalpha   Nbeta   Ndocc  Nsocc
   -------------------------------------------------------
     A        266     266       0       0       0       0
   -------------------------------------------------------
    Total     266     266      51      51      51       0
   -------------------------------------------------------

  ==> Integral Setup <==

  Using integral reordering PK algorithm.
  Sizing the integral batches needed.
  Building batch lookup table.
   Calculation information:
      Number of atoms:                  28
      Number of AO shells:             126
      Number of primitives:            378
      Number of atomic orbitals:       280
      Number of basis functions:       266

      Integral cutoff                 1.00e-12
      Number of threads:                 1

	Batch   1 pq = [       0,    9405] index = [             0,44231715] size =     44231715
	Batch   2 pq = [    9405,   13301] index = [      44231715,88464951] size =     44233236
	Batch   3 pq = [   13301,   16290] index = [      88464951,132690195] size =     44225244
	Batch   4 pq = [   16290,   18810] index = [     132690195,176917455] size =     44227260
	Batch   5 pq = [   18810,   21030] index = [     176917455,221140965] size =     44223510
	Batch   6 pq = [   21030,   23037] index = [     221140965,265363203] size =     44222238
	Batch   7 pq = [   23037,   24883] index = [     265363203,309594286] size =     44231083
	Batch   8 pq = [   24883,   26601] index = [     309594286,353819901] size =     44225615
	Batch   9 pq = [   26601,   28214] index = [     353819901,398029005] size =     44209104
	Batch  10 pq = [   28214,   29740] index = [     398029005,442248670] size =     44219665
	Batch  11 pq = [   29740,   31191] index = [     442248670,486454836] size =     44206166
	Batch  12 pq = [   31191,   32578] index = [     486454836,530679331] size =     44224495
	Batch  13 pq = [   32578,   33908] index = [     530679331,574893186] size =     44213855
	Batch  14 pq = [   33908,   35188] index = [     574893186,619115266] size =     44222080
	Batch  15 pq = [   35188,   35511] index = [     619115266,630533316] size =     11418050
  Task number: 58
  Buffer size: 11059200
  Buffer per thread: 2
  We computed 27302653 shell quartets total.
  Whereas there are 32012001 unique shell quartets.

  ==> DiskJK: Disk-Based J/K Matrices <==

    J tasked:                  Yes
    K tasked:                  Yes
    wK tasked:                  No
    Memory [MiB]:              375
    Schwarz Cutoff:          1E-12

    OpenMP threads:              1

  Minimum eigenvalue in the overlap matrix is 2.3550786682E-04.
  Using Symmetric Orthogonalization.

  SCF Guess: Superposition of Atomic Densities via on-the-fly atomic UHF.

  ==> Iterations <==

                        Total Energy        Delta E     RMS |[F,P]|

   @RHF iter SAD:  -607.72296454722186   -6.07723e+02   0.00000e+00
   @RHF iter   1:  -608.20488761483557   -4.81923e-01   2.76662e-03 DIIS
   @RHF iter   2:  -608.47270419339702   -2.67817e-01   1.38128e-03 DIIS
   @RHF iter   3:  -608.52971200646630   -5.70078e-02   3.39272e-04 DIIS
   @RHF iter   4:  -608.53462949476443   -4.91749e-03   1.32632e-04 DIIS
   @RHF iter   5:  -608.53536482631739   -7.35332e-04   2.13416e-05 DIIS
   @RHF iter   6:  -608.53540843835424   -4.36120e-05   1.04068e-05 DIIS
   @RHF iter   7:  -608.53541715822655   -8.71987e-06   4.12768e-06 DIIS
   @RHF iter   8:  -608.53541923599209   -2.07777e-06   1.49110e-06 DIIS
   @RHF iter   9:  -608.53541951467150   -2.78679e-07   6.89095e-07 DIIS
   @RHF iter  10:  -608.53541957129767   -5.66262e-08   2.85505e-07 DIIS
   @RHF iter  11:  -608.53541958607752   -1.47799e-08   1.23426e-07 DIIS
   @RHF iter  12:  -608.53541958897551   -2.89799e-09   6.73436e-08 DIIS
   @RHF iter  13:  -608.53541958963558   -6.60066e-10   2.23930e-08 DIIS
   @RHF iter  14:  -608.53541958972937   -9.37916e-11   7.95647e-09 DIIS
   @RHF iter  15:  -608.53541958973528   -5.91172e-12   2.90890e-09 DIIS
   @RHF iter  16:  -608.53541958973369    1.59162e-12   1.33884e-09 DIIS
   @RHF iter  17:  -608.53541958973551   -1.81899e-12   5.21183e-10 DIIS
   @RHF iter  18:  -608.53541958973472    7.95808e-13   2.29292e-10 DIIS
   @RHF iter  19:  -608.53541958973631   -1.59162e-12   1.08957e-10 DIIS
   @RHF iter  20:  -608.53541958973881   -2.50111e-12   4.40461e-11 DIIS
  Energy and wave function converged.

  ==> Post-Iterations <==

    Orbital Energies [Eh]
    ---------------------

    Doubly Occupied:

       1A    -20.528912     2A    -15.607744     3A    -15.570110
       4A    -11.368512     5A    -11.254668     6A    -11.243686
       7A    -11.242681     8A    -11.214649     9A    -11.214394
      10A    -11.213330    11A    -11.212311    12A    -11.205833
      13A    -11.203775    14A    -11.197242    15A     -1.395068
      16A     -1.269207    17A     -1.243671    18A     -1.109999
      19A     -1.056381    20A     -1.017695    21A     -0.982000
      22A     -0.968075    23A     -0.913791    24A     -0.823790
      25A     -0.819146    26A     -0.786135    27A     -0.748225
      28A     -0.735192    29A     -0.703143    30A     -0.675778
      31A     -0.644847    32A     -0.634396    33A     -0.624794
      34A     -0.600768    35A     -0.585607    36A     -0.573258
      37A     -0.569261    38A     -0.567485    39A     -0.547804
      40A     -0.541913    41A     -0.535846    42A     -0.519729
      43A     -0.509915    44A     -0.476985    45A     -0.456265
      46A     -0.443069    47A     -0.436342    48A     -0.428667
      49A     -0.356702    50A     -0.275099    51A     -0.257383

    Virtual:

      52A      0.141938    53A      0.151629    54A      0.181064
      55A      0.185395    56A      0.196365    57A      0.203053
      58A      0.213569    59A      0.223651    60A      0.231190
      61A      0.240098    62A      0.248558    63A      0.258328
      64A      0.267721    65A      0.274755    66A      0.298598
      67A      0.312663    68A      0.318725    69A      0.324660
      70A      0.374812    71A      0.392897    72A      0.402940
      73A      0.426873    74A      0.433303    75A      0.462704
      76A      0.478299    77A      0.489952    78A      0.519395
      79A      0.521229    80A      0.530749    81A      0.543609
      82A      0.612166    83A      0.616388    84A      0.636658
      85A      0.654784    86A      0.659035    87A      0.666536
      88A      0.683124    89A      0.697268    90A      0.701328
      91A      0.701925    92A      0.718729    93A      0.725071
      94A      0.732232    95A      0.739584    96A      0.743076
      97A      0.753300    98A      0.757764    99A      0.766077
     100A      0.775305   101A      0.779060   102A      0.787086
     103A      0.800367   104A      0.806824   105A      0.815390
     106A      0.824406   107A      0.842579   108A      0.860275
     109A      0.867693   110A      0.883232   111A      0.893539
     112A      0.895439   113A      0.899292   114A      0.910028
     115A      0.920506   116A      0.928056   117A      0.935442
     118A      0.953327   119A      0.962633   120A      0.978847
     121A      0.982262   122A      0.992809   123A      0.997489
     124A      1.000721   125A      1.028490   126A      1.046387
     127A      1.065716   128A      1.078219   129A      1.079903
     130A      1.110718   131A      1.129220   132A      1.147088
     133A      1.150435   134A      1.159317   135A      1.181964
     136A      1.203756   137A      1.219381   138A      1.224038
     139A      1.248629   140A      1.250353   141A      1.254165
     142A      1.266606   143A      1.295944   144A      1.299395
     145A      1.314198   146A      1.324179   147A      1.341715
     148A      1.350120   149A      1.355457   150A      1.373396
     151A      1.388298   152A      1.395174   153A      1.408134
     154A      1.420417   155A      1.449798   156A      1.458859
     157A      1.471090   158A      1.521842   159A      1.535691
     160A      1.580478   161A      1.594509   162A      1.629009
     163A      1.631765   164A      1.647530   165A      1.653919
     166A      1.662622   167A      1.679600   168A      1.705117
     169A      1.713441   170A      1.735912   171A      1.759838
     172A      1.775766   173A      1.787981   174A      1.801016
     175A      1.809425   176A      1.829147   177A      1.841685
     178A      1.849250   179A      1.857281   180A      1.869747
     181A      1.884026   182A      1.899669   183A      1.907590
     184A      1.914523   185A      1.923468   186A      1.925364
     187A      1.941137   188A      1.944032   189A      1.949641
     190A      1.964381   191A      1.969553   192A      1.976744
     193A      1.995371   194A      2.014005   195A      2.021906
     196A      2.036823   197A      2.048019   198A      2.063694
     199A      2.076086   200A      2.087627   201A      2.102113
     202A      2.115753   203A      2.122534   204A      2.127396
     205A      2.140432   206A      2.160942   207A      2.170945
     208A      2.181972   209A      2.197271   210A      2.205009
     211A      2.216891   212A      2.262221   213A      2.268044
     214A      2.281915   215A      2.316271   216A      2.335664
     217A      2.345192   218A      2.359777   219A      2.374267
     220A      2.399917   221A      2.408289   222A      2.429667
     223A      2.435621   224A      2.469785   225A      2.472172
     226A      2.488554   227A      2.499133   228A      2.573774
     229A      2.584399   230A      2.623440   231A      2.628014
     232A      2.641965   233A      2.656485   234A      2.688326
     235A      2.711433   236A      2.741800   237A      2.751416
     238A      2.764052   239A      2.780527   240A      2.783862
     241A      2.802608   242A      2.816276   243A      2.836527
     244A      2.846266   245A      2.868112   246A      2.886847
     247A      2.918706   248A      2.950148   249A      2.974391
     250A      3.005652   251A      3.039087   252A      3.064207
     253A      3.072227   254A      3.092637   255A      3.111274
     256A      3.142698   257A      3.232490   258A      3.257332
     259A      3.332640   260A      3.402933   261A      3.492786
     262A      3.526070   263A      3.767690   264A      3.858961
     265A      3.929231   266A      3.966783

    Final Occupation by Irrep:
              A
    DOCC [    51 ]

  @RHF Final Energy:  -608.53541958973881

   => Energetics <=

    Nuclear Repulsion Energy =            825.5051430712165939
    One-Electron Energy =               -2465.8585665233749751
    Two-Electron Energy =                1031.8180038624198005
    Total Energy =                       -608.5354195897386944

Computation Completed

Properties will be evaluated at   0.000000,   0.000000,   0.000000 [a0]

Properties computed using the SCF density matrix

  Nuclear Dipole Moment: [e a0]
     X:     1.9185      Y:    -1.8053      Z:    -1.2551

  Electronic Dipole Moment: [e a0]
     X:    -0.7589      Y:     0.1648      Z:    -0.4789

  Dipole Moment: [e a0]
     X:     1.1596      Y:    -1.6405      Z:    -1.7339     Total:     2.6537

  Dipole Moment: [D]
     X:     2.9473      Y:    -4.1698      Z:    -4.4072     Total:     6.7452

*** tstop() called on ds3 at Tue Apr 28 13:47:13 2020
Module time:
	user time   =     244.74 seconds =       4.08 minutes
	system time =     119.63 seconds =       1.99 minutes
	total time  =        419 seconds =       6.98 minutes
Total time:
	user time   =     244.74 seconds =       4.08 minutes
	system time =     119.63 seconds =       1.99 minutes
	total time  =        419 seconds =       6.98 minutes
                                     G D M A

                                 by Anthony Stone

                           version 2.2.06, 22 June 2011

               Distributed Multipoles from Gaussian wavefunctions

Starting at 13:47:13 on 28 Apr 2020

Using SCF density matrix from file ./SSI/SSI-032TRP-083ASN-1-dimer.test.20947.fchk

                         Distributed Multipole Analysis

Standard DMA

Positions and radii in angstrom
Multipole moments in atomic units, ea_0^k for rank k

C          x = -1.563962  y =  3.822344  z =  1.137984 angstrom
           Maximum rank =  0   Radius =  0.650 angstrom
                   Q00  =  -0.215578

C          x =  0.070038  y =  2.381344  z = -0.159016 angstrom
           Maximum rank =  0   Radius =  0.650 angstrom
                   Q00  =   0.107275

C          x = -0.269962  y =  0.331344  z =  0.641984 angstrom
           Maximum rank =  0   Radius =  0.650 angstrom
                   Q00  =   0.261708

C          x = -0.886962  y =  2.542344  z =  0.789984 angstrom
           Maximum rank =  0   Radius =  0.650 angstrom
                   Q00  =  -0.139035

C          x = -1.129962  y =  1.234344  z =  1.333984 angstrom
           Maximum rank =  0   Radius =  0.650 angstrom
                   Q00  =  -0.057584

C          x = -0.247962  y = -1.035656  z =  0.901984 angstrom
           Maximum rank =  0   Radius =  0.650 angstrom
                   Q00  =  -0.102451

C          x = -1.091962  y = -1.507656  z =  1.893984 angstrom
           Maximum rank =  0   Radius =  0.650 angstrom
                   Q00  =  -0.092155

C          x = -1.988962  y =  0.733344  z =  2.314984 angstrom
           Maximum rank =  0   Radius =  0.650 angstrom
                   Q00  =  -0.097405

C          x = -1.958962  y = -0.632656  z =  2.578984 angstrom
           Maximum rank =  0   Radius =  0.650 angstrom
                   Q00  =  -0.046502

N          x =  0.459038  y =  1.066344  z = -0.258016 angstrom
           Maximum rank =  0   Radius =  0.650 angstrom
                   Q00  =  -0.511624

H          x =  1.030038  y =  0.670344  z = -1.000016 angstrom
           Maximum rank =  0   Radius =  0.325 angstrom
                   Q00  =   0.261067

H          x =  0.430038  y =  3.184344  z = -0.789016 angstrom
           Maximum rank =  0   Radius =  0.325 angstrom
                   Q00  =   0.088647

H          x =  0.405038  y = -1.697656  z =  0.354984 angstrom
           Maximum rank =  0   Radius =  0.325 angstrom
                   Q00  =   0.058954

H          x = -2.591962  y =  3.580344  z =  1.408984 angstrom
           Maximum rank =  0   Radius =  0.325 angstrom
                   Q00  =   0.097409

H          x = -1.634962  y =  4.411344  z =  0.221984 angstrom
           Maximum rank =  0   Radius =  0.325 angstrom
                   Q00  =   0.096002

H          x = -1.103962  y = -2.561656  z =  2.116984 angstrom
           Maximum rank =  0   Radius =  0.325 angstrom
                   Q00  =   0.053212

H          x = -2.696962  y =  1.383344  z =  2.794984 angstrom
           Maximum rank =  0   Radius =  0.325 angstrom
                   Q00  =   0.067472

H          x = -2.621962  y = -1.040656  z =  3.312984 angstrom
           Maximum rank =  0   Radius =  0.325 angstrom
                   Q00  =   0.052313

H          x = -1.147532  y =  4.474773  z =  1.919604 angstrom
           Maximum rank =  0   Radius =  0.325 angstrom
                   Q00  =   0.095807

C          x =  2.830038  y = -2.660656  z = -1.519016 angstrom
           Maximum rank =  0   Radius =  0.650 angstrom
                   Q00  =  -0.268313

C          x =  1.845038  y = -1.994656  z = -2.442016 angstrom
           Maximum rank =  0   Radius =  0.650 angstrom
                   Q00  =   0.822595

O          x =  1.475038  y = -0.839656  z = -2.259016 angstrom
           Maximum rank =  0   Radius =  0.650 angstrom
                   Q00  =  -0.795686

N          x =  1.474038  y = -2.722656  z = -3.470016 angstrom
           Maximum rank =  0   Radius =  0.650 angstrom
                   Q00  =  -0.524575

H          x =  2.701038  y = -3.744656  z = -1.535016 angstrom
           Maximum rank =  0   Radius =  0.325 angstrom
                   Q00  =   0.085818

H          x =  2.629038  y = -2.303656  z = -0.508016 angstrom
           Maximum rank =  0   Radius =  0.325 angstrom
                   Q00  =   0.133753

H          x =  0.885038  y = -2.282656  z = -4.158016 angstrom
           Maximum rank =  0   Radius =  0.325 angstrom
                   Q00  =   0.217934

H          x =  1.905038  y = -3.610656  z = -3.674016 angstrom
           Maximum rank =  0   Radius =  0.325 angstrom
                   Q00  =   0.216256

H          x =  3.856958  y = -2.389474  z = -1.805186 angstrom
           Maximum rank =  0   Radius =  0.325 angstrom
                   Q00  =   0.134686

Total multipoles referred to origin at
           x =   0.000000,  y =    0.000000,  z =    0.000000 angstrom
                   Q00  =  -0.000000

Finished at 13:47:13 on 28 Apr 2020

  DMA results are available in the Python driver through the
	  variable('DMA DISTRIBUTED MULTIPOLES')
  and
	  variable('DMA TOTAL MULTIPOLES')
  commands.

    Psi4 stopped on: Tuesday, 28 April 2020 01:47PM
    Psi4 wall time for execution: 0:06:59.24

*** Psi4 exiting successfully. Buy a developer a beer!
