                               Psi4 1.3.2 release

  ==> Input File <==

--------------------------------------------------------------------------
import numpy as np
set {scf_type pk
basis cc-pvdz
d_convergence 10
gdma_switch   0
gdma_limit    0
gdma_origin   [ 0.0,  0.0,  0.0 ]
}
molecule test {
    units Angstrom
    0 1
    --
    0 1
    C                2.121347218142228    -1.191816669435223    -1.010253875042317
    C                2.452347218142228     0.119183330564777    -1.724253875042317
    H                2.736347218142229    -2.006816669435223    -1.391253875042317
    H                2.301347218142229    -1.080816669436224     0.059746124957683
    H                1.072347218142228    -1.443816669435223    -1.165253875042317
    H                1.886347218142228     0.925183330564777    -1.258253875042317
    H                2.171907218142229     0.056193330564777    -2.786033875042317
    H                3.520277218142228     0.352663330564777    -1.601753875042317
    C               -1.985652781857772    -0.705816669435223    -1.474253875042317
    C               -1.250652781857772    -0.143816669435223    -0.279253875042317
    C               -0.591652781857771     1.086183330564777    -0.361253875042317
    C               -1.154652781857772    -0.890816669435223     0.894746124957683
    C                0.129347218142229     1.576183330564777     0.721746124957683
    C               -0.436652781857771    -0.401816669435223     1.977746124957683
    C                0.208347218142229     0.826183330564777     1.889746124957683
    H               -1.968652781857771    -1.794816669435223    -1.413253875042317
    H               -1.437652781857772    -0.432816669435223    -2.372253875042317
    H               -0.633652781857771     1.661183330564777    -1.277253875042317
    H               -1.647652781857772    -1.850816669435223     0.966746124957683
    H                0.647347218142229     2.523183330564776     0.647746124957683
    H               -0.365652781857771    -0.979816669435223     2.888746124957683
    H                0.793347218142229     1.186183330564777     2.724746124957683
    H               -3.028822781857771    -0.373176669435223    -1.579863875042317

}
e, wfn = energy('scf', return_wfn=True)
gdma(wfn)
dmavals = variable('DMA DISTRIBUTED MULTIPOLES')
charges = np.array(dmavals)
print(charges)
np.save('SSI-090ALA-121PHE-1-dimer.npy', np.array(charges))--------------------------------------------------------------------------

*** tstart() called on ds3
*** at Mon Apr 27 13:33:33 2020

   => Loading Basis Set <=

    Name: CC-PVDZ
    Role: ORBITAL
    Keyword: BASIS
    atoms 1-2, 9-15  entry C          line   138 file /theoryfs2/ds/metcalf/miniconda2/envs/tf2gpu/share/psi4/basis/cc-pvdz.gbs
    atoms 3-8, 16-23 entry H          line    22 file /theoryfs2/ds/metcalf/miniconda2/envs/tf2gpu/share/psi4/basis/cc-pvdz.gbs

         ---------------------------------------------------------
                                   SCF
               by Justin Turney, Rob Parrish, Andy Simmonett
                          and Daniel G. A. Smith
                              RHF Reference
                        1 Threads,    500 MiB Core
         ---------------------------------------------------------

  ==> Geometry <==

    Molecular point group: c1
    Full point group: C1

    Geometry (in Angstrom), charge = 0, multiplicity = 1:

       Center              X                  Y                   Z               Mass
    ------------   -----------------  -----------------  -----------------  -----------------
         C            2.121347218142    -1.191816669435    -1.010253875042    12.000000000000
         C            2.452347218142     0.119183330565    -1.724253875042    12.000000000000
         H            2.736347218142    -2.006816669435    -1.391253875042     1.007825032230
         H            2.301347218142    -1.080816669436     0.059746124958     1.007825032230
         H            1.072347218142    -1.443816669435    -1.165253875042     1.007825032230
         H            1.886347218142     0.925183330565    -1.258253875042     1.007825032230
         H            2.171907218142     0.056193330565    -2.786033875042     1.007825032230
         H            3.520277218142     0.352663330565    -1.601753875042     1.007825032230
         C           -1.985652781858    -0.705816669435    -1.474253875042    12.000000000000
         C           -1.250652781858    -0.143816669435    -0.279253875042    12.000000000000
         C           -0.591652781858     1.086183330565    -0.361253875042    12.000000000000
         C           -1.154652781858    -0.890816669435     0.894746124958    12.000000000000
         C            0.129347218142     1.576183330565     0.721746124958    12.000000000000
         C           -0.436652781858    -0.401816669435     1.977746124958    12.000000000000
         C            0.208347218142     0.826183330565     1.889746124958    12.000000000000
         H           -1.968652781858    -1.794816669435    -1.413253875042     1.007825032230
         H           -1.437652781858    -0.432816669435    -2.372253875042     1.007825032230
         H           -0.633652781858     1.661183330565    -1.277253875042     1.007825032230
         H           -1.647652781858    -1.850816669435     0.966746124958     1.007825032230
         H            0.647347218142     2.523183330565     0.647746124958     1.007825032230
         H           -0.365652781858    -0.979816669435     2.888746124958     1.007825032230
         H            0.793347218142     1.186183330565     2.724746124958     1.007825032230
         H           -3.028822781858    -0.373176669435    -1.579863875042     1.007825032230

  Running in c1 symmetry.

  Rotational constants: A =      0.05653  B =      0.04106  C =      0.03291 [cm^-1]
  Rotational constants: A =   1694.71319  B =   1230.96956  C =    986.66071 [MHz]
  Nuclear repulsion =  429.408712570753949

  Charge       = 0
  Multiplicity = 1
  Electrons    = 68
  Nalpha       = 34
  Nbeta        = 34

  ==> Algorithm <==

  SCF Algorithm Type is PK.
  DIIS enabled.
  MOM disabled.
  Fractional occupation disabled.
  Guess Type is SAD.
  Energy threshold   = 1.00e-06
  Density threshold  = 1.00e-10
  Integral threshold = 0.00e+00

  ==> Primary Basis <==

  Basis Set: CC-PVDZ
    Blend: CC-PVDZ
    Number of shells: 96
    Number of basis function: 196
    Number of Cartesian functions: 205
    Spherical Harmonics?: true
    Max angular momentum: 2

  ==> Pre-Iterations <==

   -------------------------------------------------------
    Irrep   Nso     Nmo     Nalpha   Nbeta   Ndocc  Nsocc
   -------------------------------------------------------
     A        196     196       0       0       0       0
   -------------------------------------------------------
    Total     196     196      34      34      34       0
   -------------------------------------------------------

  ==> Integral Setup <==

  Using integral reordering PK algorithm.
  Sizing the integral batches needed.
  Building batch lookup table.
   Calculation information:
      Number of atoms:                  23
      Number of AO shells:              96
      Number of primitives:            268
      Number of atomic orbitals:       205
      Number of basis functions:       196

      Integral cutoff                 1.00e-12
      Number of threads:                 1

	Batch   1 pq = [       0,    9405] index = [             0,44231715] size =     44231715
	Batch   2 pq = [    9405,   13301] index = [      44231715,88464951] size =     44233236
	Batch   3 pq = [   13301,   16290] index = [      88464951,132690195] size =     44225244
	Batch   4 pq = [   16290,   18810] index = [     132690195,176917455] size =     44227260
	Batch   5 pq = [   18810,   19306] index = [     176917455,186370471] size =      9453016
  Task number: 17
  Buffer size: 11059200
  Buffer per thread: 2
  We computed 11432809 shell quartets total.
  Whereas there are 10841496 unique shell quartets.
     5.45 percent of shell quartets recomputed by reordering.

  ==> DiskJK: Disk-Based J/K Matrices <==

    J tasked:                  Yes
    K tasked:                  Yes
    wK tasked:                  No
    Memory [MiB]:              375
    Schwarz Cutoff:          1E-12

    OpenMP threads:              1

  Minimum eigenvalue in the overlap matrix is 3.1106023468E-04.
  Using Symmetric Orthogonalization.

  SCF Guess: Superposition of Atomic Densities via on-the-fly atomic UHF.

  ==> Iterations <==

                        Total Energy        Delta E     RMS |[F,P]|

   @RHF iter SAD:  -347.90942878497185   -3.47909e+02   0.00000e+00
   @RHF iter   1:  -348.76349706183709   -8.54068e-01   2.90239e-03 DIIS
   @RHF iter   2:  -348.95544489685193   -1.91948e-01   1.21979e-03 DIIS
   @RHF iter   3:  -348.98639876064658   -3.09539e-02   2.62481e-04 DIIS
   @RHF iter   4:  -348.98891112480686   -2.51236e-03   5.57793e-05 DIIS
   @RHF iter   5:  -348.98899247535530   -8.13505e-05   1.83630e-05 DIIS
   @RHF iter   6:  -348.98900071996559   -8.24461e-06   5.08192e-06 DIIS
   @RHF iter   7:  -348.98900145806937   -7.38104e-07   1.32096e-06 DIIS
   @RHF iter   8:  -348.98900151801848   -5.99491e-08   3.43801e-07 DIIS
   @RHF iter   9:  -348.98900152674980   -8.73132e-09   1.59782e-07 DIIS
   @RHF iter  10:  -348.98900152892134   -2.17153e-09   7.46379e-08 DIIS
   @RHF iter  11:  -348.98900152966291   -7.41579e-10   2.79011e-08 DIIS
   @RHF iter  12:  -348.98900152974306   -8.01492e-11   1.31423e-08 DIIS
   @RHF iter  13:  -348.98900152975642   -1.33582e-11   4.32613e-09 DIIS
   @RHF iter  14:  -348.98900152975779   -1.36424e-12   1.23644e-09 DIIS
   @RHF iter  15:  -348.98900152975847   -6.82121e-13   5.01384e-10 DIIS
   @RHF iter  16:  -348.98900152975631    2.16005e-12   2.11932e-10 DIIS
   @RHF iter  17:  -348.98900152975898   -2.67164e-12   8.30146e-11 DIIS
  Energy and wave function converged.

  ==> Post-Iterations <==

    Orbital Energies [Eh]
    ---------------------

    Doubly Occupied:

       1A    -11.242228     2A    -11.236540     3A    -11.235681
       4A    -11.232269     5A    -11.231983     6A    -11.231422
       7A    -11.230355     8A    -11.208879     9A    -11.204910
      10A     -1.154335    11A     -1.044548    12A     -1.014766
      13A     -1.007061    14A     -0.932056    15A     -0.826868
      16A     -0.825529    17A     -0.797091    18A     -0.692418
      19A     -0.632535    20A     -0.630970    21A     -0.593227
      22A     -0.589733    23A     -0.584428    24A     -0.573048
      25A     -0.561806    26A     -0.535609    27A     -0.492977
      28A     -0.485828    29A     -0.483451    30A     -0.482166
      31A     -0.477724    32A     -0.474680    33A     -0.333013
      34A     -0.322693

    Virtual:

      35A      0.134366    36A      0.137897    37A      0.173474
      38A      0.195443    39A      0.206092    40A      0.219113
      41A      0.240144    42A      0.247514    43A      0.257804
      44A      0.264687    45A      0.269633    46A      0.277681
      47A      0.287002    48A      0.290530    49A      0.316281
      50A      0.335445    51A      0.364413    52A      0.378340
      53A      0.408830    54A      0.452542    55A      0.462001
      56A      0.483866    57A      0.495195    58A      0.560650
      59A      0.577638    60A      0.595586    61A      0.600169
      62A      0.607167    63A      0.646665    64A      0.666622
      65A      0.677536    66A      0.687464    67A      0.701209
      68A      0.709064    69A      0.735823    70A      0.741831
      71A      0.747599    72A      0.759319    73A      0.776760
      74A      0.789272    75A      0.805558    76A      0.835978
      77A      0.847546    78A      0.858187    79A      0.861545
      80A      0.866978    81A      0.878676    82A      0.889758
      83A      0.896849    84A      0.899490    85A      0.906804
      86A      0.919535    87A      0.926121    88A      0.945352
      89A      0.951292    90A      0.963500    91A      0.972512
      92A      0.992866    93A      0.999608    94A      1.011322
      95A      1.042383    96A      1.089301    97A      1.118421
      98A      1.131665    99A      1.142209   100A      1.149059
     101A      1.156339   102A      1.178754   103A      1.196769
     104A      1.235028   105A      1.242587   106A      1.252022
     107A      1.265030   108A      1.300971   109A      1.305063
     110A      1.312678   111A      1.318268   112A      1.344258
     113A      1.411505   114A      1.474673   115A      1.490424
     116A      1.514061   117A      1.524054   118A      1.552583
     119A      1.584897   120A      1.601782   121A      1.684311
     122A      1.687961   123A      1.700571   124A      1.710721
     125A      1.734527   126A      1.760578   127A      1.766071
     128A      1.804811   129A      1.829519   130A      1.855099
     131A      1.870651   132A      1.875492   133A      1.895616
     134A      1.903369   135A      1.911933   136A      1.923417
     137A      1.934089   138A      1.938392   139A      1.943771
     140A      1.948129   141A      1.959355   142A      1.968212
     143A      1.972279   144A      1.985883   145A      1.988446
     146A      1.994382   147A      2.005715   148A      2.016822
     149A      2.043374   150A      2.064784   151A      2.075059
     152A      2.107607   153A      2.123104   154A      2.132356
     155A      2.147080   156A      2.163761   157A      2.168421
     158A      2.179918   159A      2.189354   160A      2.251961
     161A      2.274234   162A      2.296508   163A      2.302440
     164A      2.306619   165A      2.315831   166A      2.328432
     167A      2.340853   168A      2.449969   169A      2.468732
     170A      2.475086   171A      2.499017   172A      2.520424
     173A      2.545594   174A      2.587458   175A      2.592664
     176A      2.617505   177A      2.742919   178A      2.754663
     179A      2.775575   180A      2.779681   181A      2.787664
     182A      2.807213   183A      2.814593   184A      2.857449
     185A      2.866495   186A      2.874821   187A      2.885827
     188A      2.971879   189A      2.987322   190A      2.996516
     191A      3.020587   192A      3.037705   193A      3.154027
     194A      3.197838   195A      3.297433   196A      3.967942

    Final Occupation by Irrep:
              A
    DOCC [    34 ]

  @RHF Final Energy:  -348.98900152975898

   => Energetics <=

    Nuclear Repulsion Energy =            429.4087125707539485
    One-Electron Energy =               -1321.5897764628234654
    Two-Electron Energy =                 543.1920623623104802
    Total Energy =                       -348.9890015297589798

Computation Completed

Properties will be evaluated at   0.000000,   0.000000,   0.000000 [a0]

Properties computed using the SCF density matrix

  Nuclear Dipole Moment: [e a0]
     X:     5.6690      Y:    -3.0546      Z:    -7.0849

  Electronic Dipole Moment: [e a0]
     X:    -5.7879      Y:     3.0173      Z:     7.0644

  Dipole Moment: [e a0]
     X:    -0.1188      Y:    -0.0372      Z:    -0.0205     Total:     0.1262

  Dipole Moment: [D]
     X:    -0.3020      Y:    -0.0946      Z:    -0.0520     Total:     0.3208

*** tstop() called on ds3 at Mon Apr 27 13:35:23 2020
Module time:
	user time   =      84.09 seconds =       1.40 minutes
	system time =      28.91 seconds =       0.48 minutes
	total time  =        110 seconds =       1.83 minutes
Total time:
	user time   =      84.09 seconds =       1.40 minutes
	system time =      28.91 seconds =       0.48 minutes
	total time  =        110 seconds =       1.83 minutes
                                     G D M A

                                 by Anthony Stone

                           version 2.2.06, 22 June 2011

               Distributed Multipoles from Gaussian wavefunctions

Starting at 13:35:23 on 27 Apr 2020

Using SCF density matrix from file ./SSI/SSI-090ALA-121PHE-1-dimer.test.7126.fchk

                         Distributed Multipole Analysis

Standard DMA

Positions and radii in angstrom
Multipole moments in atomic units, ea_0^k for rank k

C          x =  2.121347  y = -1.191817  z = -1.010254 angstrom
           Maximum rank =  0   Radius =  0.650 angstrom
                   Q00  =  -0.221459

C          x =  2.452347  y =  0.119183  z = -1.724254 angstrom
           Maximum rank =  0   Radius =  0.650 angstrom
                   Q00  =  -0.243158

H          x =  2.736347  y = -2.006817  z = -1.391254 angstrom
           Maximum rank =  0   Radius =  0.325 angstrom
                   Q00  =   0.071049

H          x =  2.301347  y = -1.080817  z =  0.059746 angstrom
           Maximum rank =  0   Radius =  0.325 angstrom
                   Q00  =   0.083344

H          x =  1.072347  y = -1.443817  z = -1.165254 angstrom
           Maximum rank =  0   Radius =  0.325 angstrom
                   Q00  =   0.079543

H          x =  1.886347  y =  0.925183  z = -1.258254 angstrom
           Maximum rank =  0   Radius =  0.325 angstrom
                   Q00  =   0.083643

H          x =  2.171907  y =  0.056193  z = -2.786034 angstrom
           Maximum rank =  0   Radius =  0.325 angstrom
                   Q00  =   0.070659

H          x =  3.520277  y =  0.352663  z = -1.601754 angstrom
           Maximum rank =  0   Radius =  0.325 angstrom
                   Q00  =   0.073716

C          x = -1.985653  y = -0.705817  z = -1.474254 angstrom
           Maximum rank =  0   Radius =  0.650 angstrom
                   Q00  =  -0.200669

C          x = -1.250653  y = -0.143817  z = -0.279254 angstrom
           Maximum rank =  0   Radius =  0.650 angstrom
                   Q00  =  -0.105940

C          x = -0.591653  y =  1.086183  z = -0.361254 angstrom
           Maximum rank =  0   Radius =  0.650 angstrom
                   Q00  =  -0.049754

C          x = -1.154653  y = -0.890817  z =  0.894746 angstrom
           Maximum rank =  0   Radius =  0.650 angstrom
                   Q00  =  -0.082470

C          x =  0.129347  y =  1.576183  z =  0.721746 angstrom
           Maximum rank =  0   Radius =  0.650 angstrom
                   Q00  =  -0.069363

C          x = -0.436653  y = -0.401817  z =  1.977746 angstrom
           Maximum rank =  0   Radius =  0.650 angstrom
                   Q00  =  -0.077263

C          x =  0.208347  y =  0.826183  z =  1.889746 angstrom
           Maximum rank =  0   Radius =  0.650 angstrom
                   Q00  =  -0.020159

H          x = -1.968653  y = -1.794817  z = -1.413254 angstrom
           Maximum rank =  0   Radius =  0.325 angstrom
                   Q00  =   0.095897

H          x = -1.437653  y = -0.432817  z = -2.372254 angstrom
           Maximum rank =  0   Radius =  0.325 angstrom
                   Q00  =   0.097231

H          x = -0.633653  y =  1.661183  z = -1.277254 angstrom
           Maximum rank =  0   Radius =  0.325 angstrom
                   Q00  =   0.057409

H          x = -1.647653  y = -1.850817  z =  0.966746 angstrom
           Maximum rank =  0   Radius =  0.325 angstrom
                   Q00  =   0.058526

H          x =  0.647347  y =  2.523183  z =  0.647746 angstrom
           Maximum rank =  0   Radius =  0.325 angstrom
                   Q00  =   0.065533

H          x = -0.365653  y = -0.979817  z =  2.888746 angstrom
           Maximum rank =  0   Radius =  0.325 angstrom
                   Q00  =   0.064545

H          x =  0.793347  y =  1.186183  z =  2.724746 angstrom
           Maximum rank =  0   Radius =  0.325 angstrom
                   Q00  =   0.061277

H          x = -3.028823  y = -0.373177  z = -1.579864 angstrom
           Maximum rank =  0   Radius =  0.325 angstrom
                   Q00  =   0.107861

Total multipoles referred to origin at
           x =   0.000000,  y =    0.000000,  z =    0.000000 angstrom
                   Q00  =  -0.000000

Finished at 13:35:23 on 27 Apr 2020

  DMA results are available in the Python driver through the
	  variable('DMA DISTRIBUTED MULTIPOLES')
  and
	  variable('DMA TOTAL MULTIPOLES')
  commands.

    Psi4 stopped on: Monday, 27 April 2020 01:35PM
    Psi4 wall time for execution: 0:01:50.27

*** Psi4 exiting successfully. Buy a developer a beer!
