                               Psi4 1.3.2 release

  ==> Input File <==

--------------------------------------------------------------------------
import numpy as np
set {scf_type pk
basis cc-pvdz
d_convergence 10
gdma_switch   0
gdma_limit    0
gdma_origin   [ 0.0,  0.0,  0.0 ]
}
molecule test {
    units Angstrom
    0 1
    --
    0 1
    C                2.025531882719737     1.025328735692244     2.042891524487629
    C                0.797531882719737     0.302328735692244     1.529891524487629
    O                0.310531882719737     0.464328735692244     0.399891524487629
    O                0.242531882719737    -0.482671264307756     2.333891524487629
    H                2.555531882719737     0.377328735692244     2.745891524487630
    H                1.703531882719737     1.890328735692244     2.618891524487629
    H                2.742788882719737     1.370163735692244     1.283531524487630
    C               -1.326468117280263     0.051328735692244    -2.363108475512370
    C               -0.047468117280263    -0.668671264307756    -2.764108475512370
    N               -1.796468117280263    -0.583671264307756    -1.097108475512371
    H               -1.124468117280263     1.113328735692244    -2.196108475512370
    H               -2.072468117280263    -0.051671264307756    -3.158108475512371
    H               -0.289468117280263    -1.698671264307756    -3.038108475512370
    H                0.649531882719737    -0.699671264307756    -1.925108475512371
    H               -2.679468117280263    -0.191671264307756    -0.798108475512371
    H               -1.109468117280263    -0.387671264307756    -0.362108475512371
    H               -1.907468117280263    -1.584671264307756    -1.189108475512371
    H                0.460144882719737    -0.193878464307756    -3.616688475512370

}
e, wfn = energy('scf', return_wfn=True)
gdma(wfn)
dmavals = variable('DMA DISTRIBUTED MULTIPOLES')
charges = np.array(dmavals)
print(charges)
np.save('SSI-036GLU-039LYS-1-dimer.npy', np.array(charges))--------------------------------------------------------------------------

*** tstart() called on ds3
*** at Sun Apr 26 18:00:25 2020

   => Loading Basis Set <=

    Name: CC-PVDZ
    Role: ORBITAL
    Keyword: BASIS
    atoms 1-2, 8-9   entry C          line   138 file /theoryfs2/ds/metcalf/miniconda2/envs/tf2gpu/share/psi4/basis/cc-pvdz.gbs
    atoms 3-4        entry O          line   198 file /theoryfs2/ds/metcalf/miniconda2/envs/tf2gpu/share/psi4/basis/cc-pvdz.gbs
    atoms 5-7, 11-18 entry H          line    22 file /theoryfs2/ds/metcalf/miniconda2/envs/tf2gpu/share/psi4/basis/cc-pvdz.gbs
    atoms 10         entry N          line   168 file /theoryfs2/ds/metcalf/miniconda2/envs/tf2gpu/share/psi4/basis/cc-pvdz.gbs

         ---------------------------------------------------------
                                   SCF
               by Justin Turney, Rob Parrish, Andy Simmonett
                          and Daniel G. A. Smith
                              RHF Reference
                        1 Threads,    500 MiB Core
         ---------------------------------------------------------

  ==> Geometry <==

    Molecular point group: c1
    Full point group: C1

    Geometry (in Angstrom), charge = 0, multiplicity = 1:

       Center              X                  Y                   Z               Mass
    ------------   -----------------  -----------------  -----------------  -----------------
         C            2.025531882720     1.025328735692     2.042891524488    12.000000000000
         C            0.797531882720     0.302328735692     1.529891524488    12.000000000000
         O            0.310531882720     0.464328735692     0.399891524488    15.994914619570
         O            0.242531882720    -0.482671264308     2.333891524488    15.994914619570
         H            2.555531882720     0.377328735692     2.745891524488     1.007825032230
         H            1.703531882720     1.890328735692     2.618891524488     1.007825032230
         H            2.742788882720     1.370163735692     1.283531524488     1.007825032230
         C           -1.326468117280     0.051328735692    -2.363108475512    12.000000000000
         C           -0.047468117280    -0.668671264308    -2.764108475512    12.000000000000
         N           -1.796468117280    -0.583671264308    -1.097108475512    14.003074004430
         H           -1.124468117280     1.113328735692    -2.196108475512     1.007825032230
         H           -2.072468117280    -0.051671264308    -3.158108475512     1.007825032230
         H           -0.289468117280    -1.698671264308    -3.038108475512     1.007825032230
         H            0.649531882720    -0.699671264308    -1.925108475512     1.007825032230
         H           -2.679468117280    -0.191671264308    -0.798108475512     1.007825032230
         H           -1.109468117280    -0.387671264308    -0.362108475512     1.007825032230
         H           -1.907468117280    -1.584671264308    -1.189108475512     1.007825032230
         H            0.460144882720    -0.193878464308    -3.616688475512     1.007825032230

  Running in c1 symmetry.

  Rotational constants: A =      0.16048  B =      0.03201  C =      0.02882 [cm^-1]
  Rotational constants: A =   4811.08569  B =    959.78075  C =    864.05779 [MHz]
  Nuclear repulsion =  309.192556443317073

  Charge       = 0
  Multiplicity = 1
  Electrons    = 58
  Nalpha       = 29
  Nbeta        = 29

  ==> Algorithm <==

  SCF Algorithm Type is PK.
  DIIS enabled.
  MOM disabled.
  Fractional occupation disabled.
  Guess Type is SAD.
  Energy threshold   = 1.00e-06
  Density threshold  = 1.00e-10
  Integral threshold = 0.00e+00

  ==> Primary Basis <==

  Basis Set: CC-PVDZ
    Blend: CC-PVDZ
    Number of shells: 75
    Number of basis function: 153
    Number of Cartesian functions: 160
    Spherical Harmonics?: true
    Max angular momentum: 2

  ==> Pre-Iterations <==

   -------------------------------------------------------
    Irrep   Nso     Nmo     Nalpha   Nbeta   Ndocc  Nsocc
   -------------------------------------------------------
     A        153     153       0       0       0       0
   -------------------------------------------------------
    Total     153     153      29      29      29       0
   -------------------------------------------------------

  ==> Integral Setup <==

  Using integral reordering PK algorithm.
  Sizing the integral batches needed.
  Building batch lookup table.
   Calculation information:
      Number of atoms:                  18
      Number of AO shells:              75
      Number of primitives:            209
      Number of atomic orbitals:       160
      Number of basis functions:       153

      Integral cutoff                 1.00e-12
      Number of threads:                 1

	Batch   1 pq = [       0,    9405] index = [             0,44231715] size =     44231715
	Batch   2 pq = [    9405,   11781] index = [      44231715,69401871] size =     25170156
  Task number: 7
  Buffer size: 11059200
  Buffer per thread: 2
  We computed 3393840 shell quartets total.
  Whereas there are 4062675 unique shell quartets.

  ==> DiskJK: Disk-Based J/K Matrices <==

    J tasked:                  Yes
    K tasked:                  Yes
    wK tasked:                  No
    Memory [MiB]:              375
    Schwarz Cutoff:          1E-12

    OpenMP threads:              1

  Minimum eigenvalue in the overlap matrix is 4.9046944892E-03.
  Using Symmetric Orthogonalization.

  SCF Guess: Superposition of Atomic Densities via on-the-fly atomic UHF.

  ==> Iterations <==

                        Total Energy        Delta E     RMS |[F,P]|

   @RHF iter SAD:  -360.78357076825768   -3.60784e+02   0.00000e+00
   @RHF iter   1:  -361.78966785824201   -1.00610e+00   4.66180e-03 DIIS
   @RHF iter   2:  -361.99050775721321   -2.00840e-01   2.53777e-03 DIIS
   @RHF iter   3:  -362.04520280081283   -5.46950e-02   4.38605e-04 DIIS
   @RHF iter   4:  -362.04820632624825   -3.00353e-03   1.58086e-04 DIIS
   @RHF iter   5:  -362.04857340189125   -3.67076e-04   3.21787e-05 DIIS
   @RHF iter   6:  -362.04859199979182   -1.85979e-05   1.72646e-05 DIIS
   @RHF iter   7:  -362.04859587395981   -3.87417e-06   3.73415e-06 DIIS
   @RHF iter   8:  -362.04859644665254   -5.72693e-07   1.70675e-06 DIIS
   @RHF iter   9:  -362.04859655471517   -1.08063e-07   5.34169e-07 DIIS
   @RHF iter  10:  -362.04859656514168   -1.04265e-08   1.54709e-07 DIIS
   @RHF iter  11:  -362.04859656585558   -7.13896e-10   3.57917e-08 DIIS
   @RHF iter  12:  -362.04859656589201   -3.64366e-11   8.40647e-09 DIIS
   @RHF iter  13:  -362.04859656589110    9.09495e-13   2.10968e-09 DIIS
   @RHF iter  14:  -362.04859656589167   -5.68434e-13   8.16939e-10 DIIS
   @RHF iter  15:  -362.04859656589213   -4.54747e-13   2.17950e-10 DIIS
   @RHF iter  16:  -362.04859656589275   -6.25278e-13   9.88383e-11 DIIS
  Energy and wave function converged.

  ==> Post-Iterations <==

    Orbital Energies [Eh]
    ---------------------

    Doubly Occupied:

       1A    -20.431643     2A    -20.395678     3A    -15.721507
       4A    -11.337178     5A    -11.265174     6A    -11.262961
       7A    -11.172148     8A     -1.351099     9A     -1.311972
      10A     -1.184675    11A     -1.071888    12A     -0.923115
      13A     -0.908594    14A     -0.809498    15A     -0.798480
      16A     -0.703347    17A     -0.652470    18A     -0.644031
      19A     -0.578862    20A     -0.567059    21A     -0.559624
      22A     -0.546895    23A     -0.538343    24A     -0.534744
      25A     -0.477041    26A     -0.450835    27A     -0.348617
      28A     -0.314101    29A     -0.313429

    Virtual:

      30A      0.108412    31A      0.160011    32A      0.165881
      33A      0.200541    34A      0.220364    35A      0.240701
      36A      0.246961    37A      0.268416    38A      0.284963
      39A      0.303123    40A      0.308756    41A      0.330621
      42A      0.355565    43A      0.363449    44A      0.456671
      45A      0.529275    46A      0.547963    47A      0.549170
      48A      0.559972    49A      0.583992    50A      0.598940
      51A      0.615781    52A      0.698441    53A      0.746957
      54A      0.760888    55A      0.774861    56A      0.788603
      57A      0.798163    58A      0.802839    59A      0.822750
      60A      0.838373    61A      0.848150    62A      0.856614
      63A      0.881613    64A      0.908751    65A      0.920447
      66A      0.921326    67A      0.931054    68A      0.951304
      69A      0.965491    70A      0.994941    71A      1.013018
      72A      1.037983    73A      1.083184    74A      1.097724
      75A      1.119282    76A      1.218084    77A      1.218771
      78A      1.229001    79A      1.320148    80A      1.346514
      81A      1.385547    82A      1.412251    83A      1.423993
      84A      1.447205    85A      1.471751    86A      1.505429
      87A      1.522005    88A      1.567069    89A      1.583435
      90A      1.610784    91A      1.618503    92A      1.659243
      93A      1.672612    94A      1.717043    95A      1.737373
      96A      1.786555    97A      1.804008    98A      1.853223
      99A      1.860489   100A      1.863843   101A      1.896703
     102A      1.907340   103A      1.918832   104A      1.936445
     105A      1.950950   106A      1.968706   107A      1.985244
     108A      2.025265   109A      2.054997   110A      2.060197
     111A      2.072326   112A      2.100052   113A      2.119316
     114A      2.163961   115A      2.184808   116A      2.192135
     117A      2.217503   118A      2.283460   119A      2.289974
     120A      2.320518   121A      2.322613   122A      2.352479
     123A      2.427979   124A      2.454400   125A      2.517585
     126A      2.527563   127A      2.553260   128A      2.565704
     129A      2.626973   130A      2.657780   131A      2.696627
     132A      2.716782   133A      2.740292   134A      2.790405
     135A      2.800173   136A      2.828381   137A      2.863621
     138A      2.876220   139A      2.904751   140A      2.969551
     141A      2.993113   142A      3.085096   143A      3.138316
     144A      3.141800   145A      3.206628   146A      3.291671
     147A      3.359386   148A      3.510344   149A      3.614894
     150A      3.671950   151A      3.931617   152A      3.953007
     153A      4.080206

    Final Occupation by Irrep:
              A
    DOCC [    29 ]

  @RHF Final Energy:  -362.04859656589275

   => Energetics <=

    Nuclear Repulsion Energy =            309.1925564433170734
    One-Electron Energy =               -1108.1322941935786730
    Two-Electron Energy =                 436.8911411843689052
    Total Energy =                       -362.0485965658927512

Computation Completed

Properties will be evaluated at   0.000000,   0.000000,   0.000000 [a0]

Properties computed using the SCF density matrix

  Nuclear Dipole Moment: [e a0]
     X:    -0.9964      Y:    -0.0516      Z:    -9.0163

  Electronic Dipole Moment: [e a0]
     X:    -1.4871      Y:    -0.3920      Z:     5.1393

  Dipole Moment: [e a0]
     X:    -2.4836      Y:    -0.4436      Z:    -3.8771     Total:     4.6256

  Dipole Moment: [D]
     X:    -6.3126      Y:    -1.1275      Z:    -9.8545     Total:    11.7572

*** tstop() called on ds3 at Sun Apr 26 18:00:58 2020
Module time:
	user time   =      22.74 seconds =       0.38 minutes
	system time =       9.86 seconds =       0.16 minutes
	total time  =         33 seconds =       0.55 minutes
Total time:
	user time   =      22.74 seconds =       0.38 minutes
	system time =       9.86 seconds =       0.16 minutes
	total time  =         33 seconds =       0.55 minutes
                                     G D M A

                                 by Anthony Stone

                           version 2.2.06, 22 June 2011

               Distributed Multipoles from Gaussian wavefunctions

Starting at 18:0:58 on 26 Apr 2020

Using SCF density matrix from file ./SSI/SSI-036GLU-039LYS-1-dimer.test.14707.fchk

                         Distributed Multipole Analysis

Standard DMA

Positions and radii in angstrom
Multipole moments in atomic units, ea_0^k for rank k

C          x =  2.025532  y =  1.025329  z =  2.042892 angstrom
           Maximum rank =  0   Radius =  0.650 angstrom
                   Q00  =  -0.271952

C          x =  0.797532  y =  0.302329  z =  1.529892 angstrom
           Maximum rank =  0   Radius =  0.650 angstrom
                   Q00  =   0.902713

O          x =  0.310532  y =  0.464329  z =  0.399892 angstrom
           Maximum rank =  0   Radius =  0.650 angstrom
                   Q00  =  -0.944101

O          x =  0.242532  y = -0.482671  z =  2.333892 angstrom
           Maximum rank =  0   Radius =  0.650 angstrom
                   Q00  =  -0.896817

H          x =  2.555532  y =  0.377329  z =  2.745892 angstrom
           Maximum rank =  0   Radius =  0.325 angstrom
                   Q00  =   0.097034

H          x =  1.703532  y =  1.890329  z =  2.618892 angstrom
           Maximum rank =  0   Radius =  0.325 angstrom
                   Q00  =   0.108056

H          x =  2.742789  y =  1.370164  z =  1.283532 angstrom
           Maximum rank =  0   Radius =  0.325 angstrom
                   Q00  =   0.065885

C          x = -1.326468  y =  0.051329  z = -2.363108 angstrom
           Maximum rank =  0   Radius =  0.650 angstrom
                   Q00  =   0.006941

C          x = -0.047468  y = -0.668671  z = -2.764108 angstrom
           Maximum rank =  0   Radius =  0.650 angstrom
                   Q00  =  -0.223475

N          x = -1.796468  y = -0.583671  z = -1.097108 angstrom
           Maximum rank =  0   Radius =  0.650 angstrom
                   Q00  =  -0.119719

H          x = -1.124468  y =  1.113329  z = -2.196108 angstrom
           Maximum rank =  0   Radius =  0.325 angstrom
                   Q00  =   0.139949

H          x = -2.072468  y = -0.051671  z = -3.158108 angstrom
           Maximum rank =  0   Radius =  0.325 angstrom
                   Q00  =   0.085977

H          x = -0.289468  y = -1.698671  z = -3.038108 angstrom
           Maximum rank =  0   Radius =  0.325 angstrom
                   Q00  =   0.070603

H          x =  0.649532  y = -0.699671  z = -1.925108 angstrom
           Maximum rank =  0   Radius =  0.325 angstrom
                   Q00  =   0.125675

H          x = -2.679468  y = -0.191671  z = -0.798108 angstrom
           Maximum rank =  0   Radius =  0.325 angstrom
                   Q00  =   0.220455

H          x = -1.109468  y = -0.387671  z = -0.362108 angstrom
           Maximum rank =  0   Radius =  0.325 angstrom
                   Q00  =   0.290771

H          x = -1.907468  y = -1.584671  z = -1.189108 angstrom
           Maximum rank =  0   Radius =  0.325 angstrom
                   Q00  =   0.222939

H          x =  0.460145  y = -0.193878  z = -3.616688 angstrom
           Maximum rank =  0   Radius =  0.325 angstrom
                   Q00  =   0.119067

Total multipoles referred to origin at
           x =   0.000000,  y =    0.000000,  z =    0.000000 angstrom
                   Q00  =  -0.000000

Finished at 18:0:58 on 26 Apr 2020

  DMA results are available in the Python driver through the
	  variable('DMA DISTRIBUTED MULTIPOLES')
  and
	  variable('DMA TOTAL MULTIPOLES')
  commands.

    Psi4 stopped on: Sunday, 26 April 2020 06:00PM
    Psi4 wall time for execution: 0:00:32.85

*** Psi4 exiting successfully. Buy a developer a beer!
