                               Psi4 1.3.2 release

  ==> Input File <==

--------------------------------------------------------------------------
import numpy as np
set {scf_type pk
basis cc-pvdz
d_convergence 10
gdma_switch   0
gdma_limit    0
gdma_origin   [ 0.0,  0.0,  0.0 ]
}
molecule test {
    units Angstrom
    0 1
    --
    0 1
    C                1.422383136245934     0.258835285570944    -2.292495400565098
    C                2.778383136245934     0.158835285570944    -1.608495400565098
    H                1.545383136245934     0.595835285570944    -3.322495400565098
    H                0.945383136245934    -0.721164714429056    -2.306495400565098
    H                0.781383136245934     0.956835285570944    -1.755495400565098
    H                2.629383136245934    -0.053164714429056    -0.550495400565098
    H                3.338044136245934     1.097575285570944    -1.733183400565099
    H                3.362259136245934    -0.670311714429056    -2.034645400565099
    C               -0.645616863754066     0.098835285570944     2.364504599434902
    C               -1.128616863754066    -0.081164714429056     0.942504599434902
    O               -2.185616863754066     0.420835285570944     0.559504599434901
    N               -0.362616863754066    -0.806164714429056     0.147504599434901
    H               -0.683616863754066    -1.001164714429056    -0.787495400565099
    H                0.481383136245934    -1.227164714429056     0.503504599434901
    H                0.444383136245934     0.152835285570944     2.377504599434902
    H               -0.948616863754066    -0.792164714429056     2.915504599434902
    H               -1.062024263754066     1.000695285570944     2.837004599434902

}
e, wfn = energy('scf', return_wfn=True)
gdma(wfn)
dmavals = variable('DMA DISTRIBUTED MULTIPOLES')
charges = np.array(dmavals)
print(charges)
np.save('SSI-013LEU-017ASN-1-dimer.npy', np.array(charges))--------------------------------------------------------------------------

*** tstart() called on ds3
*** at Mon Apr 27 12:51:54 2020

   => Loading Basis Set <=

    Name: CC-PVDZ
    Role: ORBITAL
    Keyword: BASIS
    atoms 1-2, 9-10  entry C          line   138 file /theoryfs2/ds/metcalf/miniconda2/envs/tf2gpu/share/psi4/basis/cc-pvdz.gbs
    atoms 3-8, 13-17 entry H          line    22 file /theoryfs2/ds/metcalf/miniconda2/envs/tf2gpu/share/psi4/basis/cc-pvdz.gbs
    atoms 11         entry O          line   198 file /theoryfs2/ds/metcalf/miniconda2/envs/tf2gpu/share/psi4/basis/cc-pvdz.gbs
    atoms 12         entry N          line   168 file /theoryfs2/ds/metcalf/miniconda2/envs/tf2gpu/share/psi4/basis/cc-pvdz.gbs

         ---------------------------------------------------------
                                   SCF
               by Justin Turney, Rob Parrish, Andy Simmonett
                          and Daniel G. A. Smith
                              RHF Reference
                        1 Threads,    500 MiB Core
         ---------------------------------------------------------

  ==> Geometry <==

    Molecular point group: c1
    Full point group: C1

    Geometry (in Angstrom), charge = 0, multiplicity = 1:

       Center              X                  Y                   Z               Mass
    ------------   -----------------  -----------------  -----------------  -----------------
         C            1.422383136246     0.258835285571    -2.292495400565    12.000000000000
         C            2.778383136246     0.158835285571    -1.608495400565    12.000000000000
         H            1.545383136246     0.595835285571    -3.322495400565     1.007825032230
         H            0.945383136246    -0.721164714429    -2.306495400565     1.007825032230
         H            0.781383136246     0.956835285571    -1.755495400565     1.007825032230
         H            2.629383136246    -0.053164714429    -0.550495400565     1.007825032230
         H            3.338044136246     1.097575285571    -1.733183400565     1.007825032230
         H            3.362259136246    -0.670311714429    -2.034645400565     1.007825032230
         C           -0.645616863754     0.098835285571     2.364504599435    12.000000000000
         C           -1.128616863754    -0.081164714429     0.942504599435    12.000000000000
         O           -2.185616863754     0.420835285571     0.559504599435    15.994914619570
         N           -0.362616863754    -0.806164714429     0.147504599435    14.003074004430
         H           -0.683616863754    -1.001164714429    -0.787495400565     1.007825032230
         H            0.481383136246    -1.227164714429     0.503504599435     1.007825032230
         H            0.444383136246     0.152835285571     2.377504599435     1.007825032230
         H           -0.948616863754    -0.792164714429     2.915504599435     1.007825032230
         H           -1.062024263754     1.000695285571     2.837004599435     1.007825032230

  Running in c1 symmetry.

  Rotational constants: A =      0.18936  B =      0.03905  C =      0.03512 [cm^-1]
  Rotational constants: A =   5676.90198  B =   1170.71110  C =   1052.93848 [MHz]
  Nuclear repulsion =  234.465452581178653

  Charge       = 0
  Multiplicity = 1
  Electrons    = 50
  Nalpha       = 25
  Nbeta        = 25

  ==> Algorithm <==

  SCF Algorithm Type is PK.
  DIIS enabled.
  MOM disabled.
  Fractional occupation disabled.
  Guess Type is SAD.
  Energy threshold   = 1.00e-06
  Density threshold  = 1.00e-10
  Integral threshold = 0.00e+00

  ==> Primary Basis <==

  Basis Set: CC-PVDZ
    Blend: CC-PVDZ
    Number of shells: 69
    Number of basis function: 139
    Number of Cartesian functions: 145
    Spherical Harmonics?: true
    Max angular momentum: 2

  ==> Pre-Iterations <==

   -------------------------------------------------------
    Irrep   Nso     Nmo     Nalpha   Nbeta   Ndocc  Nsocc
   -------------------------------------------------------
     A        139     139       0       0       0       0
   -------------------------------------------------------
    Total     139     139      25      25      25       0
   -------------------------------------------------------

  ==> Integral Setup <==

  Using integral reordering PK algorithm.
  Sizing the integral batches needed.
  Building batch lookup table.
   Calculation information:
      Number of atoms:                  17
      Number of AO shells:              69
      Number of primitives:            187
      Number of atomic orbitals:       145
      Number of basis functions:       139

      Integral cutoff                 1.00e-12
      Number of threads:                 1

	Batch   1 pq = [       0,    9730] index = [             0,47341315] size =     47341315
  Task number: 5
  Buffer size: 11059200
  Buffer per thread: 2
  We computed 2530118 shell quartets total.
  Whereas there are 2917320 unique shell quartets.

  ==> DiskJK: Disk-Based J/K Matrices <==

    J tasked:                  Yes
    K tasked:                  Yes
    wK tasked:                  No
    Memory [MiB]:              375
    Schwarz Cutoff:          1E-12

    OpenMP threads:              1

  Minimum eigenvalue in the overlap matrix is 4.5700066645E-03.
  Using Symmetric Orthogonalization.

  SCF Guess: Superposition of Atomic Densities via on-the-fly atomic UHF.

  ==> Iterations <==

                        Total Energy        Delta E     RMS |[F,P]|

   @RHF iter SAD:  -285.98456451354389   -2.85985e+02   0.00000e+00
   @RHF iter   1:  -286.99357555612437   -1.00901e+00   4.64470e-03 DIIS
   @RHF iter   2:  -287.16988470852840   -1.76309e-01   2.60871e-03 DIIS
   @RHF iter   3:  -287.22026190609677   -5.03772e-02   5.44109e-04 DIIS
   @RHF iter   4:  -287.22366683105986   -3.40492e-03   2.20317e-04 DIIS
   @RHF iter   5:  -287.22427231182269   -6.05481e-04   3.42965e-05 DIIS
   @RHF iter   6:  -287.22430253232011   -3.02205e-05   1.55075e-05 DIIS
   @RHF iter   7:  -287.22430735965776   -4.82734e-06   6.20694e-06 DIIS
   @RHF iter   8:  -287.22430843722032   -1.07756e-06   2.14730e-06 DIIS
   @RHF iter   9:  -287.22430857116984   -1.33950e-07   5.44964e-07 DIIS
   @RHF iter  10:  -287.22430857752988   -6.36004e-09   1.72079e-07 DIIS
   @RHF iter  11:  -287.22430857822633   -6.96446e-10   3.85056e-08 DIIS
   @RHF iter  12:  -287.22430857826396   -3.76303e-11   9.20514e-09 DIIS
   @RHF iter  13:  -287.22430857826669   -2.72848e-12   2.45566e-09 DIIS
   @RHF iter  14:  -287.22430857826816   -1.47793e-12   1.19902e-09 DIIS
   @RHF iter  15:  -287.22430857826777    3.97904e-13   5.64725e-10 DIIS
   @RHF iter  16:  -287.22430857826765    1.13687e-13   1.65755e-10 DIIS
   @RHF iter  17:  -287.22430857826680    8.52651e-13   5.75497e-11 DIIS
  Energy and wave function converged.

  ==> Post-Iterations <==

    Orbital Energies [Eh]
    ---------------------

    Doubly Occupied:

       1A    -20.501398     2A    -15.588750     3A    -11.345893
       4A    -11.242625     5A    -11.228492     6A    -11.223681
       7A     -1.365308     8A     -1.219401     9A     -1.028930
      10A     -1.001013    11A     -0.845489    12A     -0.800680
      13A     -0.729899    14A     -0.653535    15A     -0.617358
      16A     -0.608005    17A     -0.605026    18A     -0.567867
      19A     -0.558526    20A     -0.522429    21A     -0.509788
      22A     -0.495219    23A     -0.492073    24A     -0.407948
      25A     -0.401970

    Virtual:

      26A      0.149067    27A      0.193866    28A      0.196479
      29A      0.209183    30A      0.223802    31A      0.243121
      32A      0.251864    33A      0.263220    34A      0.273208
      35A      0.283645    36A      0.304140    37A      0.309047
      38A      0.382978    39A      0.390054    40A      0.465939
      41A      0.538596    42A      0.588345    43A      0.599534
      44A      0.604312    45A      0.643153    46A      0.654147
      47A      0.675250    48A      0.687469    49A      0.708058
      50A      0.740736    51A      0.749895    52A      0.790193
      53A      0.834388    54A      0.846326    55A      0.863073
      56A      0.868064    57A      0.883463    58A      0.885752
      59A      0.894273    60A      0.910848    61A      0.928577
      62A      0.934587    63A      0.946363    64A      0.973864
      65A      1.014047    66A      1.070154    67A      1.095584
      68A      1.110255    69A      1.120801    70A      1.137128
      71A      1.181671    72A      1.225218    73A      1.337046
      74A      1.348584    75A      1.373957    76A      1.398649
      77A      1.423808    78A      1.462693    79A      1.469807
      80A      1.484269    81A      1.490185    82A      1.586304
      83A      1.654809    84A      1.659488    85A      1.673821
      86A      1.685077    87A      1.736575    88A      1.811948
      89A      1.851382    90A      1.859353    91A      1.874990
      92A      1.883359    93A      1.889098    94A      1.914726
      95A      1.920311    96A      1.935628    97A      1.938663
      98A      1.945563    99A      1.955488   100A      1.966359
     101A      1.973999   102A      2.004654   103A      2.068185
     104A      2.084245   105A      2.109029   106A      2.130137
     107A      2.194309   108A      2.216402   109A      2.266149
     110A      2.291774   111A      2.313082   112A      2.412637
     113A      2.439617   114A      2.452133   115A      2.454917
     116A      2.496555   117A      2.527572   118A      2.560711
     119A      2.568565   120A      2.597682   121A      2.629556
     122A      2.718189   123A      2.743826   124A      2.758451
     125A      2.785118   126A      2.794373   127A      2.843048
     128A      2.853577   129A      2.865762   130A      2.946654
     131A      2.964261   132A      2.990596   133A      3.093867
     134A      3.138330   135A      3.298653   136A      3.513744
     137A      3.531931   138A      3.864947   139A      3.903263

    Final Occupation by Irrep:
              A
    DOCC [    25 ]

  @RHF Final Energy:  -287.22430857826680

   => Energetics <=

    Nuclear Repulsion Energy =            234.4654525811786527
    One-Electron Energy =                -854.2569157053904974
    Two-Electron Energy =                 332.5671545459450726
    Total Energy =                       -287.2243085782668004

Computation Completed

Properties will be evaluated at   0.000000,   0.000000,   0.000000 [a0]

Properties computed using the SCF density matrix

  Nuclear Dipole Moment: [e a0]
     X:    10.1465      Y:    -0.6156      Z:    -3.6134

  Electronic Dipole Moment: [e a0]
     X:    -8.7147      Y:    -0.2092      Z:     3.8514

  Dipole Moment: [e a0]
     X:     1.4318      Y:    -0.8249      Z:     0.2380     Total:     1.6694

  Dipole Moment: [D]
     X:     3.6392      Y:    -2.0966      Z:     0.6050     Total:     4.2433

*** tstop() called on ds3 at Mon Apr 27 12:52:21 2020
Module time:
	user time   =      19.34 seconds =       0.32 minutes
	system time =       8.27 seconds =       0.14 minutes
	total time  =         27 seconds =       0.45 minutes
Total time:
	user time   =      19.34 seconds =       0.32 minutes
	system time =       8.27 seconds =       0.14 minutes
	total time  =         27 seconds =       0.45 minutes
                                     G D M A

                                 by Anthony Stone

                           version 2.2.06, 22 June 2011

               Distributed Multipoles from Gaussian wavefunctions

Starting at 12:52:21 on 27 Apr 2020

Using SCF density matrix from file ./SSI/SSI-013LEU-017ASN-1-dimer.test.4413.fchk

                         Distributed Multipole Analysis

Standard DMA

Positions and radii in angstrom
Multipole moments in atomic units, ea_0^k for rank k

C          x =  1.422383  y =  0.258835  z = -2.292495 angstrom
           Maximum rank =  0   Radius =  0.650 angstrom
                   Q00  =  -0.233581

C          x =  2.778383  y =  0.158835  z = -1.608495 angstrom
           Maximum rank =  0   Radius =  0.650 angstrom
                   Q00  =  -0.227335

H          x =  1.545383  y =  0.595835  z = -3.322495 angstrom
           Maximum rank =  0   Radius =  0.325 angstrom
                   Q00  =   0.083356

H          x =  0.945383  y = -0.721165  z = -2.306495 angstrom
           Maximum rank =  0   Radius =  0.325 angstrom
                   Q00  =   0.057636

H          x =  0.781383  y =  0.956835  z = -1.755495 angstrom
           Maximum rank =  0   Radius =  0.325 angstrom
                   Q00  =   0.091448

H          x =  2.629383  y = -0.053165  z = -0.550495 angstrom
           Maximum rank =  0   Radius =  0.325 angstrom
                   Q00  =   0.060879

H          x =  3.338044  y =  1.097575  z = -1.733183 angstrom
           Maximum rank =  0   Radius =  0.325 angstrom
                   Q00  =   0.086042

H          x =  3.362259  y = -0.670312  z = -2.034645 angstrom
           Maximum rank =  0   Radius =  0.325 angstrom
                   Q00  =   0.076349

C          x = -0.645617  y =  0.098835  z =  2.364505 angstrom
           Maximum rank =  0   Radius =  0.650 angstrom
                   Q00  =  -0.260028

C          x = -1.128617  y = -0.081165  z =  0.942505 angstrom
           Maximum rank =  0   Radius =  0.650 angstrom
                   Q00  =   0.813281

O          x = -2.185617  y =  0.420835  z =  0.559505 angstrom
           Maximum rank =  0   Radius =  0.650 angstrom
                   Q00  =  -0.795362

N          x = -0.362617  y = -0.806165  z =  0.147505 angstrom
           Maximum rank =  0   Radius =  0.650 angstrom
                   Q00  =  -0.520314

H          x = -0.683617  y = -1.001165  z = -0.787495 angstrom
           Maximum rank =  0   Radius =  0.325 angstrom
                   Q00  =   0.226343

H          x =  0.481383  y = -1.227165  z =  0.503505 angstrom
           Maximum rank =  0   Radius =  0.325 angstrom
                   Q00  =   0.203221

H          x =  0.444383  y =  0.152835  z =  2.377505 angstrom
           Maximum rank =  0   Radius =  0.325 angstrom
                   Q00  =   0.081796

H          x = -0.948617  y = -0.792165  z =  2.915505 angstrom
           Maximum rank =  0   Radius =  0.325 angstrom
                   Q00  =   0.123210

H          x = -1.062024  y =  1.000695  z =  2.837005 angstrom
           Maximum rank =  0   Radius =  0.325 angstrom
                   Q00  =   0.133061

Total multipoles referred to origin at
           x =   0.000000,  y =    0.000000,  z =    0.000000 angstrom
                   Q00  =  -0.000000

Finished at 12:52:21 on 27 Apr 2020

  DMA results are available in the Python driver through the
	  variable('DMA DISTRIBUTED MULTIPOLES')
  and
	  variable('DMA TOTAL MULTIPOLES')
  commands.

    Psi4 stopped on: Monday, 27 April 2020 12:52PM
    Psi4 wall time for execution: 0:00:27.02

*** Psi4 exiting successfully. Buy a developer a beer!
