                               Psi4 1.3.2 release

  ==> Input File <==

--------------------------------------------------------------------------
import numpy as np
set {scf_type pk
basis cc-pvdz
d_convergence 10
gdma_switch   0
gdma_limit    0
gdma_origin   [ 0.0,  0.0,  0.0 ]
}
molecule test {
    units Angstrom
    0 1
    --
    0 1
    C               -1.401203011839735     0.631126785161620    -2.419623682632316
    C               -2.388203011839735    -0.143873214838380    -3.316623682632315
    C               -1.950203011839735     1.887126785161620    -1.714623682632316
    H               -1.104203011839735    -0.093873214838380    -1.666623682632316
    H               -0.528203011839735     0.902126785161620    -3.014623682632316
    H               -2.508203011839735     0.392126785161620    -4.259623682632316
    H               -2.768203011839735     1.587126785161620    -1.060623682632316
    H               -3.366633011839735    -0.229943214838380    -2.821373682632315
    H               -1.979423011839735    -1.134563214838380    -3.564473682632316
    H               -1.173023011839735     2.377336785161621    -1.109913682632316
    H               -2.373423011839735     2.585606785161620    -2.451513682632315
    C               -0.145203011839735     0.877126785161620     3.562376317367685
    C               -0.016203011839735    -1.235873214838380     0.363376317367684
    C                1.203796988160265    -0.871873214838380    -0.204623682632316
    C               -0.409203011839735    -0.704873214838380     1.610376317367684
    C                0.399796988160265     0.181126785161620     2.312376317367684
    C                2.068796988160265    -0.013873214838380     0.516376317367684
    C                1.645796988160265     0.507126785161620     1.771376317367684
    O                1.436796988160265    -1.281873214838380    -1.495623682632316
    H               -0.663203011839735    -1.916873214838380    -0.172623682632316
    H               -1.363203011839735    -0.975873214838380     2.042376317367684
    H                3.074796988160265     0.162126785161620     0.150376317367684
    H                2.236796988160265    -0.913873214838380    -1.879623682632316
    H                0.682796988160265     1.164126785161620     4.209376317367685
    H               -0.791203011839735     0.183126785161620     4.109376317367684
    H                2.282796988160265     1.167126785161620     2.331376317367684
    H               -0.649343011839735     1.832936785161620     3.356746317367684

}
e, wfn = energy('scf', return_wfn=True)
gdma(wfn)
dmavals = variable('DMA DISTRIBUTED MULTIPOLES')
charges = np.array(dmavals)
print(charges)
np.save('SSI-015LEU-084TYR-1-dimer.npy', np.array(charges))--------------------------------------------------------------------------

*** tstart() called on ds3
*** at Tue Apr 28 03:22:00 2020

   => Loading Basis Set <=

    Name: CC-PVDZ
    Role: ORBITAL
    Keyword: BASIS
    atoms 1-3, 12-18  entry C          line   138 file /theoryfs2/ds/metcalf/miniconda2/envs/tf2gpu/share/psi4/basis/cc-pvdz.gbs
    atoms 4-11, 20-27 entry H          line    22 file /theoryfs2/ds/metcalf/miniconda2/envs/tf2gpu/share/psi4/basis/cc-pvdz.gbs
    atoms 19          entry O          line   198 file /theoryfs2/ds/metcalf/miniconda2/envs/tf2gpu/share/psi4/basis/cc-pvdz.gbs

         ---------------------------------------------------------
                                   SCF
               by Justin Turney, Rob Parrish, Andy Simmonett
                          and Daniel G. A. Smith
                              RHF Reference
                        1 Threads,    500 MiB Core
         ---------------------------------------------------------

  ==> Geometry <==

    Molecular point group: c1
    Full point group: C1

    Geometry (in Angstrom), charge = 0, multiplicity = 1:

       Center              X                  Y                   Z               Mass
    ------------   -----------------  -----------------  -----------------  -----------------
         C           -1.401203011840     0.631126785162    -2.419623682632    12.000000000000
         C           -2.388203011840    -0.143873214838    -3.316623682632    12.000000000000
         C           -1.950203011840     1.887126785162    -1.714623682632    12.000000000000
         H           -1.104203011840    -0.093873214838    -1.666623682632     1.007825032230
         H           -0.528203011840     0.902126785162    -3.014623682632     1.007825032230
         H           -2.508203011840     0.392126785162    -4.259623682632     1.007825032230
         H           -2.768203011840     1.587126785162    -1.060623682632     1.007825032230
         H           -3.366633011840    -0.229943214838    -2.821373682632     1.007825032230
         H           -1.979423011840    -1.134563214838    -3.564473682632     1.007825032230
         H           -1.173023011840     2.377336785162    -1.109913682632     1.007825032230
         H           -2.373423011840     2.585606785162    -2.451513682632     1.007825032230
         C           -0.145203011840     0.877126785162     3.562376317368    12.000000000000
         C           -0.016203011840    -1.235873214838     0.363376317368    12.000000000000
         C            1.203796988160    -0.871873214838    -0.204623682632    12.000000000000
         C           -0.409203011840    -0.704873214838     1.610376317368    12.000000000000
         C            0.399796988160     0.181126785162     2.312376317368    12.000000000000
         C            2.068796988160    -0.013873214838     0.516376317368    12.000000000000
         C            1.645796988160     0.507126785162     1.771376317368    12.000000000000
         O            1.436796988160    -1.281873214838    -1.495623682632    15.994914619570
         H           -0.663203011840    -1.916873214838    -0.172623682632     1.007825032230
         H           -1.363203011840    -0.975873214838     2.042376317368     1.007825032230
         H            3.074796988160     0.162126785162     0.150376317368     1.007825032230
         H            2.236796988160    -0.913873214838    -1.879623682632     1.007825032230
         H            0.682796988160     1.164126785162     4.209376317368     1.007825032230
         H           -0.791203011840     0.183126785162     4.109376317368     1.007825032230
         H            2.282796988160     1.167126785162     2.331376317368     1.007825032230
         H           -0.649343011840     1.832936785162     3.356746317368     1.007825032230

  Running in c1 symmetry.

  Rotational constants: A =      0.04451  B =      0.01909  C =      0.01564 [cm^-1]
  Rotational constants: A =   1334.44008  B =    572.25861  C =    468.92341 [MHz]
  Nuclear repulsion =  584.674283434858694

  Charge       = 0
  Multiplicity = 1
  Electrons    = 84
  Nalpha       = 42
  Nbeta        = 42

  ==> Algorithm <==

  SCF Algorithm Type is PK.
  DIIS enabled.
  MOM disabled.
  Fractional occupation disabled.
  Guess Type is SAD.
  Energy threshold   = 1.00e-06
  Density threshold  = 1.00e-10
  Integral threshold = 0.00e+00

  ==> Primary Basis <==

  Basis Set: CC-PVDZ
    Blend: CC-PVDZ
    Number of shells: 114
    Number of basis function: 234
    Number of Cartesian functions: 245
    Spherical Harmonics?: true
    Max angular momentum: 2

  ==> Pre-Iterations <==

   -------------------------------------------------------
    Irrep   Nso     Nmo     Nalpha   Nbeta   Ndocc  Nsocc
   -------------------------------------------------------
     A        234     234       0       0       0       0
   -------------------------------------------------------
    Total     234     234      42      42      42       0
   -------------------------------------------------------

  ==> Integral Setup <==

  Using integral reordering PK algorithm.
  Sizing the integral batches needed.
  Building batch lookup table.
   Calculation information:
      Number of atoms:                  27
      Number of AO shells:             114
      Number of primitives:            322
      Number of atomic orbitals:       245
      Number of basis functions:       234

      Integral cutoff                 1.00e-12
      Number of threads:                 1

	Batch   1 pq = [       0,    9405] index = [             0,44231715] size =     44231715
	Batch   2 pq = [    9405,   13301] index = [      44231715,88464951] size =     44233236
	Batch   3 pq = [   13301,   16290] index = [      88464951,132690195] size =     44225244
	Batch   4 pq = [   16290,   18810] index = [     132690195,176917455] size =     44227260
	Batch   5 pq = [   18810,   21030] index = [     176917455,221140965] size =     44223510
	Batch   6 pq = [   21030,   23037] index = [     221140965,265363203] size =     44222238
	Batch   7 pq = [   23037,   24883] index = [     265363203,309594286] size =     44231083
	Batch   8 pq = [   24883,   26601] index = [     309594286,353819901] size =     44225615
	Batch   9 pq = [   26601,   27495] index = [     353819901,378001260] size =     24181359
  Task number: 35
  Buffer size: 11059200
  Buffer per thread: 2
  We computed 20443869 shell quartets total.
  Whereas there are 21487290 unique shell quartets.

  ==> DiskJK: Disk-Based J/K Matrices <==

    J tasked:                  Yes
    K tasked:                  Yes
    wK tasked:                  No
    Memory [MiB]:              375
    Schwarz Cutoff:          1E-12

    OpenMP threads:              1

  Minimum eigenvalue in the overlap matrix is 3.5173332183E-04.
  Using Symmetric Orthogonalization.

  SCF Guess: Superposition of Atomic Densities via on-the-fly atomic UHF.

  ==> Iterations <==

                        Total Energy        Delta E     RMS |[F,P]|

   @RHF iter SAD:  -461.44539636637325   -4.61445e+02   0.00000e+00
   @RHF iter   1:  -462.60342801083732   -1.15803e+00   2.78356e-03 DIIS
   @RHF iter   2:  -462.84080195830592   -2.37374e-01   1.19349e-03 DIIS
   @RHF iter   3:  -462.88008535539467   -3.92834e-02   2.76398e-04 DIIS
   @RHF iter   4:  -462.88340512890966   -3.31977e-03   1.15207e-04 DIIS
   @RHF iter   5:  -462.88383172402189   -4.26595e-04   1.99792e-05 DIIS
   @RHF iter   6:  -462.88385151391020   -1.97899e-05   6.50959e-06 DIIS
   @RHF iter   7:  -462.88385362070858   -2.10680e-06   2.04838e-06 DIIS
   @RHF iter   8:  -462.88385391027634   -2.89568e-07   8.13246e-07 DIIS
   @RHF iter   9:  -462.88385396361844   -5.33421e-08   3.38228e-07 DIIS
   @RHF iter  10:  -462.88385397471296   -1.10945e-08   1.39166e-07 DIIS
   @RHF iter  11:  -462.88385397799811   -3.28515e-09   6.36552e-08 DIIS
   @RHF iter  12:  -462.88385397864590   -6.47788e-10   2.99480e-08 DIIS
   @RHF iter  13:  -462.88385397875777   -1.11868e-10   9.42068e-09 DIIS
   @RHF iter  14:  -462.88385397876749   -9.72022e-12   2.34707e-09 DIIS
   @RHF iter  15:  -462.88385397876772   -2.27374e-13   9.64581e-10 DIIS
   @RHF iter  16:  -462.88385397877033   -2.61480e-12   4.15593e-10 DIIS
   @RHF iter  17:  -462.88385397876687    3.46745e-12   2.06150e-10 DIIS
   @RHF iter  18:  -462.88385397877016   -3.29692e-12   9.56976e-11 DIIS
  Energy and wave function converged.

  ==> Post-Iterations <==

    Orbital Energies [Eh]
    ---------------------

    Doubly Occupied:

       1A    -20.586907     2A    -11.305693     3A    -11.244437
       4A    -11.242994     5A    -11.240398     6A    -11.236495
       7A    -11.233351     8A    -11.232214     9A    -11.210371
      10A    -11.210163    11A    -11.207476    12A     -1.396940
      13A     -1.144846    14A     -1.037504    15A     -1.034669
      16A     -1.010163    17A     -0.927536    18A     -0.915877
      19A     -0.845444    20A     -0.800883    21A     -0.784965
      22A     -0.730422    23A     -0.661884    24A     -0.642419
      25A     -0.614033    26A     -0.610235    27A     -0.588553
      28A     -0.581825    29A     -0.578685    30A     -0.569114
      31A     -0.563950    32A     -0.540313    33A     -0.528756
      34A     -0.522572    35A     -0.499202    36A     -0.485907
      37A     -0.466402    38A     -0.464653    39A     -0.458249
      40A     -0.447176    41A     -0.332816    42A     -0.304750

    Virtual:

      43A      0.124086    44A      0.149292    45A      0.173892
      46A      0.181570    47A      0.194251    48A      0.215384
      49A      0.222398    50A      0.233402    51A      0.246910
      52A      0.248949    53A      0.256724    54A      0.272889
      55A      0.276850    56A      0.285814    57A      0.293504
      58A      0.304949    59A      0.305420    60A      0.337174
      61A      0.363501    62A      0.367166    63A      0.391219
      64A      0.425018    65A      0.434546    66A      0.449666
      67A      0.473961    68A      0.486043    69A      0.509683
      70A      0.579459    71A      0.599224    72A      0.603809
      73A      0.610384    74A      0.622076    75A      0.629542
      76A      0.639431    77A      0.648386    78A      0.670591
      79A      0.677971    80A      0.702029    81A      0.723772
      82A      0.728727    83A      0.742588    84A      0.766723
      85A      0.769174    86A      0.774625    87A      0.781935
      88A      0.789214    89A      0.801786    90A      0.822462
      91A      0.836153    92A      0.844524    93A      0.864143
      94A      0.873877    95A      0.878320    96A      0.882466
      97A      0.885246    98A      0.892530    99A      0.900886
     100A      0.906076   101A      0.909486   102A      0.912229
     103A      0.919080   104A      0.925023   105A      0.931707
     106A      0.933737   107A      0.944127   108A      0.960491
     109A      0.965784   110A      0.979086   111A      1.007100
     112A      1.009805   113A      1.049428   114A      1.067762
     115A      1.114336   116A      1.123917   117A      1.134298
     118A      1.141059   119A      1.162080   120A      1.171020
     121A      1.203512   122A      1.225605   123A      1.231908
     124A      1.252603   125A      1.267917   126A      1.284075
     127A      1.295564   128A      1.315095   129A      1.318677
     130A      1.341216   131A      1.374910   132A      1.392691
     133A      1.428622   134A      1.478861   135A      1.483331
     136A      1.489723   137A      1.502873   138A      1.530567
     139A      1.544838   140A      1.554640   141A      1.609501
     142A      1.627006   143A      1.658737   144A      1.667784
     145A      1.681942   146A      1.693313   147A      1.696917
     148A      1.717007   149A      1.723534   150A      1.736396
     151A      1.775230   152A      1.790088   153A      1.796997
     154A      1.848702   155A      1.864553   156A      1.872943
     157A      1.873316   158A      1.883344   159A      1.893428
     160A      1.903393   161A      1.910300   162A      1.917934
     163A      1.928277   164A      1.932504   165A      1.940662
     166A      1.948836   167A      1.950375   168A      1.965912
     169A      1.974149   170A      1.984742   171A      1.992245
     172A      1.995912   173A      2.013156   174A      2.020878
     175A      2.024320   176A      2.033830   177A      2.037847
     178A      2.044550   179A      2.061443   180A      2.070948
     181A      2.123468   182A      2.133534   183A      2.141733
     184A      2.154605   185A      2.194485   186A      2.198270
     187A      2.218827   188A      2.255278   189A      2.267869
     190A      2.284400   191A      2.298602   192A      2.303497
     193A      2.318602   194A      2.330533   195A      2.337744
     196A      2.392765   197A      2.408133   198A      2.436227
     199A      2.473101   200A      2.476325   201A      2.494291
     202A      2.517388   203A      2.544996   204A      2.557890
     205A      2.583991   206A      2.585961   207A      2.607126
     208A      2.625385   209A      2.644873   210A      2.740550
     211A      2.755087   212A      2.760605   213A      2.764706
     214A      2.776025   215A      2.794515   216A      2.805706
     217A      2.818162   218A      2.832323   219A      2.886216
     220A      2.923035   221A      2.939867   222A      2.957791
     223A      2.984382   224A      3.003442   225A      3.047612
     226A      3.083480   227A      3.097488   228A      3.232638
     229A      3.267644   230A      3.346144   231A      3.539050
     232A      3.652844   233A      3.911037   234A      4.189085

    Final Occupation by Irrep:
              A
    DOCC [    42 ]

  @RHF Final Energy:  -462.88385397877016

   => Energetics <=

    Nuclear Repulsion Energy =            584.6742834348586939
    One-Electron Energy =               -1787.0337923464458072
    Two-Electron Energy =                 739.4756549328168376
    Total Energy =                       -462.8838539787701620

Computation Completed

Properties will be evaluated at   0.000000,   0.000000,   0.000000 [a0]

Properties computed using the SCF density matrix

  Nuclear Dipole Moment: [e a0]
     X:   -10.2969      Y:     6.6393      Z:    -5.4458

  Electronic Dipole Moment: [e a0]
     X:    10.7957      Y:    -6.3173      Z:     5.6557

  Dipole Moment: [e a0]
     X:     0.4988      Y:     0.3220      Z:     0.2099     Total:     0.6297

  Dipole Moment: [D]
     X:     1.2679      Y:     0.8185      Z:     0.5336     Total:     1.6007

*** tstop() called on ds3 at Tue Apr 28 03:25:34 2020
Module time:
	user time   =     152.43 seconds =       2.54 minutes
	system time =      60.43 seconds =       1.01 minutes
	total time  =        214 seconds =       3.57 minutes
Total time:
	user time   =     152.43 seconds =       2.54 minutes
	system time =      60.43 seconds =       1.01 minutes
	total time  =        214 seconds =       3.57 minutes
                                     G D M A

                                 by Anthony Stone

                           version 2.2.06, 22 June 2011

               Distributed Multipoles from Gaussian wavefunctions

Starting at 3:25:34 on 28 Apr 2020

Using SCF density matrix from file ./SSI/SSI-015LEU-084TYR-1-dimer.test.20242.fchk

                         Distributed Multipole Analysis

Standard DMA

Positions and radii in angstrom
Multipole moments in atomic units, ea_0^k for rank k

C          x = -1.401203  y =  0.631127  z = -2.419624 angstrom
           Maximum rank =  0   Radius =  0.650 angstrom
                   Q00  =  -0.077876

C          x = -2.388203  y = -0.143873  z = -3.316624 angstrom
           Maximum rank =  0   Radius =  0.650 angstrom
                   Q00  =  -0.256140

C          x = -1.950203  y =  1.887127  z = -1.714624 angstrom
           Maximum rank =  0   Radius =  0.650 angstrom
                   Q00  =  -0.244439

H          x = -1.104203  y = -0.093873  z = -1.666624 angstrom
           Maximum rank =  0   Radius =  0.325 angstrom
                   Q00  =   0.063122

H          x = -0.528203  y =  0.902127  z = -3.014624 angstrom
           Maximum rank =  0   Radius =  0.325 angstrom
                   Q00  =   0.040968

H          x = -2.508203  y =  0.392127  z = -4.259624 angstrom
           Maximum rank =  0   Radius =  0.325 angstrom
                   Q00  =   0.072921

H          x = -2.768203  y =  1.587127  z = -1.060624 angstrom
           Maximum rank =  0   Radius =  0.325 angstrom
                   Q00  =   0.074882

H          x = -3.366633  y = -0.229943  z = -2.821374 angstrom
           Maximum rank =  0   Radius =  0.325 angstrom
                   Q00  =   0.074048

H          x = -1.979423  y = -1.134563  z = -3.564474 angstrom
           Maximum rank =  0   Radius =  0.325 angstrom
                   Q00  =   0.084554

H          x = -1.173023  y =  2.377337  z = -1.109914 angstrom
           Maximum rank =  0   Radius =  0.325 angstrom
                   Q00  =   0.090572

H          x = -2.373423  y =  2.585607  z = -2.451514 angstrom
           Maximum rank =  0   Radius =  0.325 angstrom
                   Q00  =   0.071205

C          x = -0.145203  y =  0.877127  z =  3.562376 angstrom
           Maximum rank =  0   Radius =  0.650 angstrom
                   Q00  =  -0.206136

C          x = -0.016203  y = -1.235873  z =  0.363376 angstrom
           Maximum rank =  0   Radius =  0.650 angstrom
                   Q00  =  -0.106975

C          x =  1.203797  y = -0.871873  z = -0.204624 angstrom
           Maximum rank =  0   Radius =  0.650 angstrom
                   Q00  =   0.316331

C          x = -0.409203  y = -0.704873  z =  1.610376 angstrom
           Maximum rank =  0   Radius =  0.650 angstrom
                   Q00  =   0.016232

C          x =  0.399797  y =  0.181127  z =  2.312376 angstrom
           Maximum rank =  0   Radius =  0.650 angstrom
                   Q00  =  -0.119932

C          x =  2.068797  y = -0.013873  z =  0.516376 angstrom
           Maximum rank =  0   Radius =  0.650 angstrom
                   Q00  =  -0.198348

C          x =  1.645797  y =  0.507127  z =  1.771376 angstrom
           Maximum rank =  0   Radius =  0.650 angstrom
                   Q00  =  -0.032516

O          x =  1.436797  y = -1.281873  z = -1.495624 angstrom
           Maximum rank =  0   Radius =  0.650 angstrom
                   Q00  =  -0.671066

H          x = -0.663203  y = -1.916873  z = -0.172624 angstrom
           Maximum rank =  0   Radius =  0.325 angstrom
                   Q00  =   0.084878

H          x = -1.363203  y = -0.975873  z =  2.042376 angstrom
           Maximum rank =  0   Radius =  0.325 angstrom
                   Q00  =   0.064907

H          x =  3.074797  y =  0.162127  z =  0.150376 angstrom
           Maximum rank =  0   Radius =  0.325 angstrom
                   Q00  =   0.082147

H          x =  2.236797  y = -0.913873  z = -1.879624 angstrom
           Maximum rank =  0   Radius =  0.325 angstrom
                   Q00  =   0.408094

H          x =  0.682797  y =  1.164127  z =  4.209376 angstrom
           Maximum rank =  0   Radius =  0.325 angstrom
                   Q00  =   0.094300

H          x = -0.791203  y =  0.183127  z =  4.109376 angstrom
           Maximum rank =  0   Radius =  0.325 angstrom
                   Q00  =   0.099635

H          x =  2.282797  y =  1.167127  z =  2.331376 angstrom
           Maximum rank =  0   Radius =  0.325 angstrom
                   Q00  =   0.071706

H          x = -0.649343  y =  1.832937  z =  3.356746 angstrom
           Maximum rank =  0   Radius =  0.325 angstrom
                   Q00  =   0.102926

Total multipoles referred to origin at
           x =   0.000000,  y =    0.000000,  z =    0.000000 angstrom
                   Q00  =  -0.000000

Finished at 3:25:34 on 28 Apr 2020

  DMA results are available in the Python driver through the
	  variable('DMA DISTRIBUTED MULTIPOLES')
  and
	  variable('DMA TOTAL MULTIPOLES')
  commands.

    Psi4 stopped on: Tuesday, 28 April 2020 03:25AM
    Psi4 wall time for execution: 0:03:34.25

*** Psi4 exiting successfully. Buy a developer a beer!
