                               Psi4 1.3.2 release

  ==> Input File <==

--------------------------------------------------------------------------
import numpy as np
set {scf_type pk
basis cc-pvdz
d_convergence 10
gdma_switch   0
gdma_limit    0
gdma_origin   [ 0.0,  0.0,  0.0 ]
}
molecule test {
    units Angstrom
    0 1
    --
    0 1
    C               -2.127616096134112    -0.543883399966108     0.049902273566528
    C               -3.184616096134112    -1.644883399966108    -0.089097726433472
    N               -1.398616096134112    -0.325883399966108    -1.254097726433472
    H               -2.618616096134112     0.382116600033892     0.368902273566527
    H               -1.421616096134112    -0.831883399966108     0.836902273566527
    H               -3.893616096134112    -1.337883399966108    -0.861097726433472
    H               -3.733616096134113    -1.741883399966108     0.849902273566527
    H               -2.027616096134112     0.041116600033892    -1.963097726433473
    H               -0.656616096134112     0.351116600033892    -1.087097726433472
    H               -0.998616096134112    -1.183883399966108    -1.611097726433472
    H               -2.728178096134112    -2.613843399966107    -0.339677726433472
    C                2.940383903865888     0.182116600033892     0.925902273566528
    C                1.663383903865888     0.643116600033892     0.311902273566528
    O                0.689383903865888     0.685116600033892     1.090902273566528
    O                1.588383903865888     1.045116600033892    -0.861097726433472
    H                2.745383903865887    -0.527883399966108     1.733902273566528
    H                3.421383903865888     1.057116600033892     1.366902273566528
    H                3.630320903865888    -0.290963399966108     0.211632273566528

}
e, wfn = energy('scf', return_wfn=True)
gdma(wfn)
dmavals = variable('DMA DISTRIBUTED MULTIPOLES')
charges = np.array(dmavals)
print(charges)
np.save('SSI-016LYS-085GLU-1-dimer.npy', np.array(charges))--------------------------------------------------------------------------

*** tstart() called on ds3
*** at Tue Apr 28 20:29:03 2020

   => Loading Basis Set <=

    Name: CC-PVDZ
    Role: ORBITAL
    Keyword: BASIS
    atoms 1-2, 12-13  entry C          line   138 file /theoryfs2/ds/metcalf/miniconda2/envs/tf2gpu/share/psi4/basis/cc-pvdz.gbs
    atoms 3           entry N          line   168 file /theoryfs2/ds/metcalf/miniconda2/envs/tf2gpu/share/psi4/basis/cc-pvdz.gbs
    atoms 4-11, 16-18 entry H          line    22 file /theoryfs2/ds/metcalf/miniconda2/envs/tf2gpu/share/psi4/basis/cc-pvdz.gbs
    atoms 14-15       entry O          line   198 file /theoryfs2/ds/metcalf/miniconda2/envs/tf2gpu/share/psi4/basis/cc-pvdz.gbs

         ---------------------------------------------------------
                                   SCF
               by Justin Turney, Rob Parrish, Andy Simmonett
                          and Daniel G. A. Smith
                              RHF Reference
                        1 Threads,    500 MiB Core
         ---------------------------------------------------------

  ==> Geometry <==

    Molecular point group: c1
    Full point group: C1

    Geometry (in Angstrom), charge = 0, multiplicity = 1:

       Center              X                  Y                   Z               Mass
    ------------   -----------------  -----------------  -----------------  -----------------
         C           -2.127616096134    -0.543883399966     0.049902273567    12.000000000000
         C           -3.184616096134    -1.644883399966    -0.089097726433    12.000000000000
         N           -1.398616096134    -0.325883399966    -1.254097726433    14.003074004430
         H           -2.618616096134     0.382116600034     0.368902273567     1.007825032230
         H           -1.421616096134    -0.831883399966     0.836902273567     1.007825032230
         H           -3.893616096134    -1.337883399966    -0.861097726433     1.007825032230
         H           -3.733616096134    -1.741883399966     0.849902273567     1.007825032230
         H           -2.027616096134     0.041116600034    -1.963097726433     1.007825032230
         H           -0.656616096134     0.351116600034    -1.087097726433     1.007825032230
         H           -0.998616096134    -1.183883399966    -1.611097726433     1.007825032230
         H           -2.728178096134    -2.613843399966    -0.339677726433     1.007825032230
         C            2.940383903866     0.182116600034     0.925902273567    12.000000000000
         C            1.663383903866     0.643116600034     0.311902273567    12.000000000000
         O            0.689383903866     0.685116600034     1.090902273567    15.994914619570
         O            1.588383903866     1.045116600034    -0.861097726433    15.994914619570
         H            2.745383903866    -0.527883399966     1.733902273567     1.007825032230
         H            3.421383903866     1.057116600034     1.366902273567     1.007825032230
         H            3.630320903866    -0.290963399966     0.211632273567     1.007825032230

  Running in c1 symmetry.

  Rotational constants: A =      0.17522  B =      0.02995  C =      0.02756 [cm^-1]
  Rotational constants: A =   5253.06242  B =    897.85027  C =    826.14404 [MHz]
  Nuclear repulsion =  306.567823764194600

  Charge       = 0
  Multiplicity = 1
  Electrons    = 58
  Nalpha       = 29
  Nbeta        = 29

  ==> Algorithm <==

  SCF Algorithm Type is PK.
  DIIS enabled.
  MOM disabled.
  Fractional occupation disabled.
  Guess Type is SAD.
  Energy threshold   = 1.00e-06
  Density threshold  = 1.00e-10
  Integral threshold = 0.00e+00

  ==> Primary Basis <==

  Basis Set: CC-PVDZ
    Blend: CC-PVDZ
    Number of shells: 75
    Number of basis function: 153
    Number of Cartesian functions: 160
    Spherical Harmonics?: true
    Max angular momentum: 2

  ==> Pre-Iterations <==

   -------------------------------------------------------
    Irrep   Nso     Nmo     Nalpha   Nbeta   Ndocc  Nsocc
   -------------------------------------------------------
     A        153     153       0       0       0       0
   -------------------------------------------------------
    Total     153     153      29      29      29       0
   -------------------------------------------------------

  ==> Integral Setup <==

  Using integral reordering PK algorithm.
  Sizing the integral batches needed.
  Building batch lookup table.
   Calculation information:
      Number of atoms:                  18
      Number of AO shells:              75
      Number of primitives:            209
      Number of atomic orbitals:       160
      Number of basis functions:       153

      Integral cutoff                 1.00e-12
      Number of threads:                 1

	Batch   1 pq = [       0,    9405] index = [             0,44231715] size =     44231715
	Batch   2 pq = [    9405,   11781] index = [      44231715,69401871] size =     25170156
  Task number: 7
  Buffer size: 11059200
  Buffer per thread: 2
  We computed 3355505 shell quartets total.
  Whereas there are 4062675 unique shell quartets.

  ==> DiskJK: Disk-Based J/K Matrices <==

    J tasked:                  Yes
    K tasked:                  Yes
    wK tasked:                  No
    Memory [MiB]:              375
    Schwarz Cutoff:          1E-12

    OpenMP threads:              1

  Minimum eigenvalue in the overlap matrix is 4.7285334361E-03.
  Using Symmetric Orthogonalization.

  SCF Guess: Superposition of Atomic Densities via on-the-fly atomic UHF.

  ==> Iterations <==

                        Total Energy        Delta E     RMS |[F,P]|

   @RHF iter SAD:  -360.71684792924202   -3.60717e+02   0.00000e+00
   @RHF iter   1:  -361.77616621764105   -1.05932e+00   4.68999e-03 DIIS
   @RHF iter   2:  -361.98184635501190   -2.05680e-01   2.52176e-03 DIIS
   @RHF iter   3:  -362.03555469647307   -5.37083e-02   4.30582e-04 DIIS
   @RHF iter   4:  -362.03848462486764   -2.92993e-03   1.41471e-04 DIIS
   @RHF iter   5:  -362.03880094954172   -3.16325e-04   2.43463e-05 DIIS
   @RHF iter   6:  -362.03881334894993   -1.23994e-05   6.14349e-06 DIIS
   @RHF iter   7:  -362.03881395842097   -6.09471e-07   2.89382e-06 DIIS
   @RHF iter   8:  -362.03881406076482   -1.02344e-07   6.49773e-07 DIIS
   @RHF iter   9:  -362.03881407106905   -1.03042e-08   1.71809e-07 DIIS
   @RHF iter  10:  -362.03881407191329   -8.44238e-10   6.16396e-08 DIIS
   @RHF iter  11:  -362.03881407204750   -1.34207e-10   2.28963e-08 DIIS
   @RHF iter  12:  -362.03881407207115   -2.36469e-11   8.19430e-09 DIIS
   @RHF iter  13:  -362.03881407207268   -1.53477e-12   3.11543e-09 DIIS
   @RHF iter  14:  -362.03881407207416   -1.47793e-12   8.62242e-10 DIIS
   @RHF iter  15:  -362.03881407207405    1.13687e-13   2.37529e-10 DIIS
   @RHF iter  16:  -362.03881407207268    1.36424e-12   1.02988e-10 DIIS
   @RHF iter  17:  -362.03881407207501   -2.33058e-12   4.47008e-11 DIIS
  Energy and wave function converged.

  ==> Post-Iterations <==

    Orbital Energies [Eh]
    ---------------------

    Doubly Occupied:

       1A    -20.410542     2A    -20.402488     3A    -15.740655
       4A    -11.336266     5A    -11.287433     6A    -11.252753
       7A    -11.164211     8A     -1.358023     9A     -1.302743
      10A     -1.184281    11A     -1.082132    12A     -0.921392
      13A     -0.915711    14A     -0.820995    15A     -0.802474
      16A     -0.709878    17A     -0.663051    18A     -0.636849
      19A     -0.595910    20A     -0.570067    21A     -0.557924
      22A     -0.548604    23A     -0.537497    24A     -0.535857
      25A     -0.470764    26A     -0.441316    27A     -0.331305
      28A     -0.315724    29A     -0.310911

    Virtual:

      30A      0.097274    31A      0.151592    32A      0.158184
      33A      0.197960    34A      0.219584    35A      0.232394
      36A      0.243476    37A      0.257607    38A      0.273658
      39A      0.290595    40A      0.305609    41A      0.311885
      42A      0.339434    43A      0.362929    44A      0.463662
      45A      0.518431    46A      0.521495    47A      0.536299
      48A      0.551529    49A      0.593793    50A      0.603732
      51A      0.634767    52A      0.704991    53A      0.740024
      54A      0.754504    55A      0.773589    56A      0.781649
      57A      0.805482    58A      0.819872    59A      0.824372
      60A      0.828850    61A      0.832977    62A      0.861828
      63A      0.867900    64A      0.899325    65A      0.908919
      66A      0.914626    67A      0.926165    68A      0.946089
      69A      0.957136    70A      1.002701    71A      1.008196
      72A      1.016660    73A      1.064968    74A      1.095550
      75A      1.104137    76A      1.171811    77A      1.219064
      78A      1.237789    79A      1.277496    80A      1.341388
      81A      1.382613    82A      1.416193    83A      1.417931
      84A      1.441725    85A      1.459488    86A      1.487468
      87A      1.507549    88A      1.540725    89A      1.566179
      90A      1.608275    91A      1.617213    92A      1.635103
      93A      1.649336    94A      1.722720    95A      1.733879
      96A      1.753586    97A      1.790833    98A      1.818726
      99A      1.856734   100A      1.875057   101A      1.888697
     102A      1.905575   103A      1.922392   104A      1.936087
     105A      1.949873   106A      1.969776   107A      2.003788
     108A      2.015145   109A      2.034558   110A      2.051752
     111A      2.073254   112A      2.094655   113A      2.107538
     114A      2.128137   115A      2.156842   116A      2.188816
     117A      2.253670   118A      2.267163   119A      2.306323
     120A      2.315166   121A      2.322286   122A      2.339967
     123A      2.425389   124A      2.444666   125A      2.451139
     126A      2.501131   127A      2.571161   128A      2.574652
     129A      2.582698   130A      2.655230   131A      2.660602
     132A      2.699125   133A      2.703721   134A      2.747054
     135A      2.795850   136A      2.799092   137A      2.859170
     138A      2.872180   139A      2.896237   140A      2.961090
     141A      2.979421   142A      3.097744   143A      3.133167
     144A      3.156663   145A      3.214313   146A      3.249800
     147A      3.292103   148A      3.506257   149A      3.635286
     150A      3.721735   151A      3.940530   152A      3.952009
     153A      4.079025

    Final Occupation by Irrep:
              A
    DOCC [    29 ]

  @RHF Final Energy:  -362.03881407207501

   => Energetics <=

    Nuclear Repulsion Energy =            306.5678237641945998
    One-Electron Energy =               -1102.7977586043264182
    Two-Electron Energy =                 434.1911207680568054
    Total Energy =                       -362.0388140720750130

Computation Completed

Properties will be evaluated at   0.000000,   0.000000,   0.000000 [a0]

Properties computed using the SCF density matrix

  Nuclear Dipole Moment: [e a0]
     X:    -7.7486      Y:    -6.2687      Z:    -0.4583

  Electronic Dipole Moment: [e a0]
     X:     3.8299      Y:     4.0882      Z:    -1.1486

  Dipole Moment: [e a0]
     X:    -3.9187      Y:    -2.1805      Z:    -1.6069     Total:     4.7637

  Dipole Moment: [D]
     X:    -9.9603      Y:    -5.5423      Z:    -4.0844     Total:    12.1081

*** tstop() called on ds3 at Tue Apr 28 20:29:51 2020
Module time:
	user time   =      22.46 seconds =       0.37 minutes
	system time =       9.34 seconds =       0.16 minutes
	total time  =         48 seconds =       0.80 minutes
Total time:
	user time   =      22.46 seconds =       0.37 minutes
	system time =       9.34 seconds =       0.16 minutes
	total time  =         48 seconds =       0.80 minutes
                                     G D M A

                                 by Anthony Stone

                           version 2.2.06, 22 June 2011

               Distributed Multipoles from Gaussian wavefunctions

Starting at 20:29:51 on 28 Apr 2020

Using SCF density matrix from file ./SSI/SSI-016LYS-085GLU-1-dimer.test.28274.fchk

                         Distributed Multipole Analysis

Standard DMA

Positions and radii in angstrom
Multipole moments in atomic units, ea_0^k for rank k

C          x = -2.127616  y = -0.543883  z =  0.049902 angstrom
           Maximum rank =  0   Radius =  0.650 angstrom
                   Q00  =   0.036253

C          x = -3.184616  y = -1.644883  z = -0.089098 angstrom
           Maximum rank =  0   Radius =  0.650 angstrom
                   Q00  =  -0.253145

N          x = -1.398616  y = -0.325883  z = -1.254098 angstrom
           Maximum rank =  0   Radius =  0.650 angstrom
                   Q00  =  -0.125704

H          x = -2.618616  y =  0.382117  z =  0.368902 angstrom
           Maximum rank =  0   Radius =  0.325 angstrom
                   Q00  =   0.117637

H          x = -1.421616  y = -0.831883  z =  0.836902 angstrom
           Maximum rank =  0   Radius =  0.325 angstrom
                   Q00  =   0.144105

H          x = -3.893616  y = -1.337883  z = -0.861098 angstrom
           Maximum rank =  0   Radius =  0.325 angstrom
                   Q00  =   0.080017

H          x = -3.733616  y = -1.741883  z =  0.849902 angstrom
           Maximum rank =  0   Radius =  0.325 angstrom
                   Q00  =   0.133776

H          x = -2.027616  y =  0.041117  z = -1.963098 angstrom
           Maximum rank =  0   Radius =  0.325 angstrom
                   Q00  =   0.221597

H          x = -0.656616  y =  0.351117  z = -1.087098 angstrom
           Maximum rank =  0   Radius =  0.325 angstrom
                   Q00  =   0.266991

H          x = -0.998616  y = -1.183883  z = -1.611098 angstrom
           Maximum rank =  0   Radius =  0.325 angstrom
                   Q00  =   0.241457

H          x = -2.728178  y = -2.613843  z = -0.339678 angstrom
           Maximum rank =  0   Radius =  0.325 angstrom
                   Q00  =   0.096929

C          x =  2.940384  y =  0.182117  z =  0.925902 angstrom
           Maximum rank =  0   Radius =  0.650 angstrom
                   Q00  =  -0.264036

C          x =  1.663384  y =  0.643117  z =  0.311902 angstrom
           Maximum rank =  0   Radius =  0.650 angstrom
                   Q00  =   0.890997

O          x =  0.689384  y =  0.685117  z =  1.090902 angstrom
           Maximum rank =  0   Radius =  0.650 angstrom
                   Q00  =  -0.933554

O          x =  1.588384  y =  1.045117  z = -0.861098 angstrom
           Maximum rank =  0   Radius =  0.650 angstrom
                   Q00  =  -0.905842

H          x =  2.745384  y = -0.527883  z =  1.733902 angstrom
           Maximum rank =  0   Radius =  0.325 angstrom
                   Q00  =   0.072995

H          x =  3.421384  y =  1.057117  z =  1.366902 angstrom
           Maximum rank =  0   Radius =  0.325 angstrom
                   Q00  =   0.114252

H          x =  3.630321  y = -0.290963  z =  0.211632 angstrom
           Maximum rank =  0   Radius =  0.325 angstrom
                   Q00  =   0.065275

Total multipoles referred to origin at
           x =   0.000000,  y =    0.000000,  z =    0.000000 angstrom
                   Q00  =  -0.000000

Finished at 20:29:51 on 28 Apr 2020

  DMA results are available in the Python driver through the
	  variable('DMA DISTRIBUTED MULTIPOLES')
  and
	  variable('DMA TOTAL MULTIPOLES')
  commands.

    Psi4 stopped on: Tuesday, 28 April 2020 08:29PM
    Psi4 wall time for execution: 0:00:47.94

*** Psi4 exiting successfully. Buy a developer a beer!
