                               Psi4 1.3.2 release

  ==> Input File <==

--------------------------------------------------------------------------
import numpy as np
set {scf_type pk
basis cc-pvdz
d_convergence 10
gdma_switch   0
gdma_limit    0
gdma_origin   [ 0.0,  0.0,  0.0 ]
}
molecule test {
    units Angstrom
    0 1
    --
    0 1
    C                0.220611067993201    -2.007258044124600     1.554233184459641
    C               -0.133388932006799    -2.511258044124600     2.936233184459641
    C                0.697611067993201    -3.154258044124600     0.682233184459641
    H               -0.695388932006799    -1.630258044124600     1.099233184459641
    H                0.928611067993201    -1.187258044124600     1.586233184459640
    H                0.739611067993201    -2.921258044124600     3.443233184459641
    H               -0.865388932006799    -3.314258044124600     2.825233184459641
    H               -0.008388932006799    -3.986258044124600     0.739233184459641
    H                0.738611067993201    -2.826258044124600    -0.358766815540359
    H               -0.577533932006799    -1.718297044124600     3.555873184459641
    H                1.691191067993201    -3.492016044124600     1.011963184459641
    C               -1.061388932006799     1.176741955875400     1.102233184459640
    C               -1.327388932006799     2.644741955875400     1.407233184459641
    C               -0.354388932006799     0.950741955875400    -0.212766815540359
    C                0.981611067993201     1.329741955875400    -0.385766815540359
    C               -1.032388932006799     0.366741955875400    -1.280766815540360
    C                1.628611067993201     1.123741955875400    -1.617766815540360
    C               -0.390388932006799     0.156741955875400    -2.505766815540360
    C                0.940611067993201     0.532741955875400    -2.676766815540359
    H               -0.433388932006799     0.780741955875400     1.896233184459641
    H               -2.007388932006799     0.631741955875400     1.105233184459641
    H               -0.370388932006799     3.156741955875400     1.479233184459640
    H                1.514611067993201     1.796741955875400     0.430233184459641
    H               -2.067388932006800     0.075741955875400    -1.166766815540359
    H                2.650611067993200     1.440741955875400    -1.760766815540360
    H               -0.931388932006799    -0.296258044124600    -3.327766815540359
    H                1.431611067993200     0.378741955875400    -3.628766815540359
    H               -1.869033932006799     2.742331955875400     2.359653184459641
    H               -1.890025932006800     3.115411955875400     0.587533184459641

}
e, wfn = energy('scf', return_wfn=True)
gdma(wfn)
dmavals = variable('DMA DISTRIBUTED MULTIPOLES')
charges = np.array(dmavals)
print(charges)
np.save('SSI-062LYS-067PHE-2-dimer.npy', np.array(charges))--------------------------------------------------------------------------

*** tstart() called on ds3
*** at Sun Apr 26 21:05:57 2020

   => Loading Basis Set <=

    Name: CC-PVDZ
    Role: ORBITAL
    Keyword: BASIS
    atoms 1-3, 12-19  entry C          line   138 file /theoryfs2/ds/metcalf/miniconda2/envs/tf2gpu/share/psi4/basis/cc-pvdz.gbs
    atoms 4-11, 20-29 entry H          line    22 file /theoryfs2/ds/metcalf/miniconda2/envs/tf2gpu/share/psi4/basis/cc-pvdz.gbs

         ---------------------------------------------------------
                                   SCF
               by Justin Turney, Rob Parrish, Andy Simmonett
                          and Daniel G. A. Smith
                              RHF Reference
                        1 Threads,    500 MiB Core
         ---------------------------------------------------------

  ==> Geometry <==

    Molecular point group: c1
    Full point group: C1

    Geometry (in Angstrom), charge = 0, multiplicity = 1:

       Center              X                  Y                   Z               Mass
    ------------   -----------------  -----------------  -----------------  -----------------
         C            0.220611067993    -2.007258044125     1.554233184460    12.000000000000
         C           -0.133388932007    -2.511258044125     2.936233184460    12.000000000000
         C            0.697611067993    -3.154258044125     0.682233184460    12.000000000000
         H           -0.695388932007    -1.630258044125     1.099233184460     1.007825032230
         H            0.928611067993    -1.187258044125     1.586233184460     1.007825032230
         H            0.739611067993    -2.921258044125     3.443233184460     1.007825032230
         H           -0.865388932007    -3.314258044125     2.825233184460     1.007825032230
         H           -0.008388932007    -3.986258044125     0.739233184460     1.007825032230
         H            0.738611067993    -2.826258044125    -0.358766815540     1.007825032230
         H           -0.577533932007    -1.718297044125     3.555873184460     1.007825032230
         H            1.691191067993    -3.492016044125     1.011963184460     1.007825032230
         C           -1.061388932007     1.176741955875     1.102233184460    12.000000000000
         C           -1.327388932007     2.644741955875     1.407233184460    12.000000000000
         C           -0.354388932007     0.950741955875    -0.212766815540    12.000000000000
         C            0.981611067993     1.329741955875    -0.385766815540    12.000000000000
         C           -1.032388932007     0.366741955875    -1.280766815540    12.000000000000
         C            1.628611067993     1.123741955875    -1.617766815540    12.000000000000
         C           -0.390388932007     0.156741955875    -2.505766815540    12.000000000000
         C            0.940611067993     0.532741955875    -2.676766815540    12.000000000000
         H           -0.433388932007     0.780741955875     1.896233184460     1.007825032230
         H           -2.007388932007     0.631741955875     1.105233184460     1.007825032230
         H           -0.370388932007     3.156741955875     1.479233184460     1.007825032230
         H            1.514611067993     1.796741955875     0.430233184460     1.007825032230
         H           -2.067388932007     0.075741955875    -1.166766815540     1.007825032230
         H            2.650611067993     1.440741955875    -1.760766815540     1.007825032230
         H           -0.931388932007    -0.296258044125    -3.327766815540     1.007825032230
         H            1.431611067993     0.378741955875    -3.628766815540     1.007825032230
         H           -1.869033932007     2.742331955875     2.359653184460     1.007825032230
         H           -1.890025932007     3.115411955875     0.587533184460     1.007825032230

  Running in c1 symmetry.

  Rotational constants: A =      0.03691  B =      0.02246  C =      0.01661 [cm^-1]
  Rotational constants: A =   1106.64580  B =    673.22027  C =    498.01088 [MHz]
  Nuclear repulsion =  589.758076092733177

  Charge       = 0
  Multiplicity = 1
  Electrons    = 84
  Nalpha       = 42
  Nbeta        = 42

  ==> Algorithm <==

  SCF Algorithm Type is PK.
  DIIS enabled.
  MOM disabled.
  Fractional occupation disabled.
  Guess Type is SAD.
  Energy threshold   = 1.00e-06
  Density threshold  = 1.00e-10
  Integral threshold = 0.00e+00

  ==> Primary Basis <==

  Basis Set: CC-PVDZ
    Blend: CC-PVDZ
    Number of shells: 120
    Number of basis function: 244
    Number of Cartesian functions: 255
    Spherical Harmonics?: true
    Max angular momentum: 2

  ==> Pre-Iterations <==

   -------------------------------------------------------
    Irrep   Nso     Nmo     Nalpha   Nbeta   Ndocc  Nsocc
   -------------------------------------------------------
     A        244     244       0       0       0       0
   -------------------------------------------------------
    Total     244     244      42      42      42       0
   -------------------------------------------------------

  ==> Integral Setup <==

  Using integral reordering PK algorithm.
  Sizing the integral batches needed.
  Building batch lookup table.
   Calculation information:
      Number of atoms:                  29
      Number of AO shells:             120
      Number of primitives:            332
      Number of atomic orbitals:       255
      Number of basis functions:       244

      Integral cutoff                 1.00e-12
      Number of threads:                 1

	Batch   1 pq = [       0,    9405] index = [             0,44231715] size =     44231715
	Batch   2 pq = [    9405,   13301] index = [      44231715,88464951] size =     44233236
	Batch   3 pq = [   13301,   16290] index = [      88464951,132690195] size =     44225244
	Batch   4 pq = [   16290,   18810] index = [     132690195,176917455] size =     44227260
	Batch   5 pq = [   18810,   21030] index = [     176917455,221140965] size =     44223510
	Batch   6 pq = [   21030,   23037] index = [     221140965,265363203] size =     44222238
	Batch   7 pq = [   23037,   24883] index = [     265363203,309594286] size =     44231083
	Batch   8 pq = [   24883,   26601] index = [     309594286,353819901] size =     44225615
	Batch   9 pq = [   26601,   28214] index = [     353819901,398029005] size =     44209104
	Batch  10 pq = [   28214,   29740] index = [     398029005,442248670] size =     44219665
	Batch  11 pq = [   29740,   29890] index = [     442248670,446720995] size =      4472325
  Task number: 41
  Buffer size: 11059200
  Buffer per thread: 2
  We computed 27822578 shell quartets total.
  Whereas there are 26357430 unique shell quartets.
     5.56 percent of shell quartets recomputed by reordering.

  ==> DiskJK: Disk-Based J/K Matrices <==

    J tasked:                  Yes
    K tasked:                  Yes
    wK tasked:                  No
    Memory [MiB]:              375
    Schwarz Cutoff:          1E-12

    OpenMP threads:              1

  Minimum eigenvalue in the overlap matrix is 3.1716561544E-04.
  Using Symmetric Orthogonalization.

  SCF Guess: Superposition of Atomic Densities via on-the-fly atomic UHF.

  ==> Iterations <==

                        Total Energy        Delta E     RMS |[F,P]|

   @RHF iter SAD:  -425.93010031857307   -4.25930e+02   0.00000e+00
   @RHF iter   1:  -426.77746248790822   -8.47362e-01   2.61582e-03 DIIS
   @RHF iter   2:  -427.02041796574292   -2.42955e-01   1.10380e-03 DIIS
   @RHF iter   3:  -427.05996146454879   -3.95435e-02   2.41064e-04 DIIS
   @RHF iter   4:  -427.06323715628105   -3.27569e-03   5.49869e-05 DIIS
   @RHF iter   5:  -427.06335005545117   -1.12899e-04   1.96012e-05 DIIS
   @RHF iter   6:  -427.06336491560586   -1.48602e-05   4.46770e-06 DIIS
   @RHF iter   7:  -427.06336589322700   -9.77621e-07   1.17490e-06 DIIS
   @RHF iter   8:  -427.06336597380999   -8.05830e-08   3.64839e-07 DIIS
   @RHF iter   9:  -427.06336598921348   -1.54035e-08   1.72669e-07 DIIS
   @RHF iter  10:  -427.06336599393427   -4.72079e-09   8.65565e-08 DIIS
   @RHF iter  11:  -427.06336599530192   -1.36765e-09   2.74505e-08 DIIS
   @RHF iter  12:  -427.06336599541720   -1.15278e-10   9.38627e-09 DIIS
   @RHF iter  13:  -427.06336599542419   -6.99174e-12   3.59263e-09 DIIS
   @RHF iter  14:  -427.06336599542573   -1.53477e-12   8.39566e-10 DIIS
   @RHF iter  15:  -427.06336599542675   -1.02318e-12   3.55810e-10 DIIS
   @RHF iter  16:  -427.06336599542306    3.69482e-12   1.30706e-10 DIIS
   @RHF iter  17:  -427.06336599542465   -1.59162e-12   5.87489e-11 DIIS
  Energy and wave function converged.

  ==> Post-Iterations <==

    Orbital Energies [Eh]
    ---------------------

    Doubly Occupied:

       1A    -11.239545     2A    -11.238930     3A    -11.237403
       4A    -11.234122     5A    -11.233086     6A    -11.231887
       7A    -11.228723     8A    -11.222978     9A    -11.210768
      10A    -11.209366    11A    -11.208257    12A     -1.151895
      13A     -1.064416    14A     -1.053529    15A     -1.009056
      16A     -0.983127    17A     -0.917191    18A     -0.861557
      19A     -0.825842    20A     -0.792895    21A     -0.783630
      22A     -0.690945    23A     -0.640333    24A     -0.635175
      25A     -0.623217    26A     -0.597359    27A     -0.590683
      28A     -0.586812    29A     -0.576546    30A     -0.542970
      31A     -0.541362    32A     -0.523845    33A     -0.519246
      34A     -0.500340    35A     -0.481187    36A     -0.477719
      37A     -0.472184    38A     -0.467242    39A     -0.462658
      40A     -0.457101    41A     -0.330505    42A     -0.322636

    Virtual:

      43A      0.130484    44A      0.138610    45A      0.176048
      46A      0.193399    47A      0.199139    48A      0.206575
      49A      0.223766    50A      0.234045    51A      0.237784
      52A      0.247014    53A      0.251112    54A      0.259889
      55A      0.267785    56A      0.279835    57A      0.287005
      58A      0.298012    59A      0.309678    60A      0.313137
      61A      0.320321    62A      0.334865    63A      0.344873
      64A      0.383861    65A      0.392445    66A      0.418205
      67A      0.432637    68A      0.448567    69A      0.466193
      70A      0.492590    71A      0.496014    72A      0.570978
      73A      0.582046    74A      0.589757    75A      0.595549
      76A      0.607363    77A      0.613673    78A      0.620159
      79A      0.621398    80A      0.639351    81A      0.680959
      82A      0.706255    83A      0.725005    84A      0.726202
      85A      0.737559    86A      0.743257    87A      0.747598
      88A      0.750707    89A      0.768057    90A      0.787040
      91A      0.798804    92A      0.808383    93A      0.821483
      94A      0.840920    95A      0.846754    96A      0.851406
      97A      0.866156    98A      0.871895    99A      0.885844
     100A      0.891875   101A      0.896088   102A      0.899687
     103A      0.903320   104A      0.906771   105A      0.908153
     106A      0.911235   107A      0.921188   108A      0.930330
     109A      0.936664   110A      0.944351   111A      0.957603
     112A      0.972420   113A      0.979860   114A      0.983362
     115A      0.992366   116A      1.004555   117A      1.017854
     118A      1.023583   119A      1.039485   120A      1.081750
     121A      1.118076   122A      1.138270   123A      1.140281
     124A      1.148763   125A      1.154529   126A      1.171508
     127A      1.199692   128A      1.207229   129A      1.237878
     130A      1.244811   131A      1.251686   132A      1.254398
     133A      1.297151   134A      1.305307   135A      1.314227
     136A      1.321895   137A      1.375925   138A      1.425408
     139A      1.426931   140A      1.454391   141A      1.475989
     142A      1.493527   143A      1.514738   144A      1.524299
     145A      1.592606   146A      1.596323   147A      1.624883
     148A      1.644695   149A      1.679438   150A      1.682338
     151A      1.698644   152A      1.702311   153A      1.710511
     154A      1.736615   155A      1.743729   156A      1.759536
     157A      1.771989   158A      1.839662   159A      1.851100
     160A      1.865669   161A      1.876772   162A      1.878160
     163A      1.885925   164A      1.893606   165A      1.894639
     166A      1.904493   167A      1.909710   168A      1.918894
     169A      1.933507   170A      1.934123   171A      1.938131
     172A      1.940248   173A      1.947769   174A      1.958439
     175A      1.961399   176A      1.966034   177A      1.980522
     178A      1.986321   179A      1.995239   180A      2.012708
     181A      2.017631   182A      2.025009   183A      2.031623
     184A      2.044956   185A      2.053808   186A      2.061227
     187A      2.077063   188A      2.081805   189A      2.103403
     190A      2.122405   191A      2.149278   192A      2.150727
     193A      2.156179   194A      2.160650   195A      2.162587
     196A      2.178383   197A      2.194039   198A      2.245088
     199A      2.259317   200A      2.270795   201A      2.296897
     202A      2.311360   203A      2.317735   204A      2.328048
     205A      2.338787   206A      2.347000   207A      2.364549
     208A      2.380435   209A      2.450639   210A      2.475197
     211A      2.485961   212A      2.528840   213A      2.537608
     214A      2.546188   215A      2.550183   216A      2.585245
     217A      2.592184   218A      2.631612   219A      2.642141
     220A      2.648112   221A      2.738709   222A      2.757728
     223A      2.767803   224A      2.768657   225A      2.776100
     226A      2.781773   227A      2.788379   228A      2.799450
     229A      2.840465   230A      2.842907   231A      2.876704
     232A      2.909317   233A      2.933762   234A      2.955161
     235A      2.978511   236A      2.983174   237A      2.997428
     238A      3.029782   239A      3.048198   240A      3.113781
     241A      3.182405   242A      3.192620   243A      3.297397
     244A      3.950726

    Final Occupation by Irrep:
              A
    DOCC [    42 ]

  @RHF Final Energy:  -427.06336599542465

   => Energetics <=

    Nuclear Repulsion Energy =            589.7580760927331767
    One-Electron Energy =               -1745.6863459699732175
    Two-Electron Energy =                 728.8649038818152803
    Total Energy =                       -427.0633659954246468

Computation Completed

Properties will be evaluated at   0.000000,   0.000000,   0.000000 [a0]

Properties computed using the SCF density matrix

  Nuclear Dipole Moment: [e a0]
     X:    -1.8945      Y:    -6.7996      Z:    11.1337

  Electronic Dipole Moment: [e a0]
     X:     1.8366      Y:     6.9156      Z:   -11.1173

  Dipole Moment: [e a0]
     X:    -0.0579      Y:     0.1160      Z:     0.0164     Total:     0.1306

  Dipole Moment: [D]
     X:    -0.1471      Y:     0.2947      Z:     0.0416     Total:     0.3320

*** tstop() called on ds3 at Sun Apr 26 21:12:50 2020
Module time:
	user time   =     191.61 seconds =       3.19 minutes
	system time =      64.87 seconds =       1.08 minutes
	total time  =        413 seconds =       6.88 minutes
Total time:
	user time   =     191.61 seconds =       3.19 minutes
	system time =      64.87 seconds =       1.08 minutes
	total time  =        413 seconds =       6.88 minutes
                                     G D M A

                                 by Anthony Stone

                           version 2.2.06, 22 June 2011

               Distributed Multipoles from Gaussian wavefunctions

Starting at 21:12:50 on 26 Apr 2020

Using SCF density matrix from file ./SSI/SSI-062LYS-067PHE-2-dimer.test.10969.fchk

                         Distributed Multipole Analysis

Standard DMA

Positions and radii in angstrom
Multipole moments in atomic units, ea_0^k for rank k

C          x =  0.220611  y = -2.007258  z =  1.554233 angstrom
           Maximum rank =  0   Radius =  0.650 angstrom
                   Q00  =  -0.078370

C          x = -0.133389  y = -2.511258  z =  2.936233 angstrom
           Maximum rank =  0   Radius =  0.650 angstrom
                   Q00  =  -0.240754

C          x =  0.697611  y = -3.154258  z =  0.682233 angstrom
           Maximum rank =  0   Radius =  0.650 angstrom
                   Q00  =  -0.233684

H          x = -0.695389  y = -1.630258  z =  1.099233 angstrom
           Maximum rank =  0   Radius =  0.325 angstrom
                   Q00  =   0.038894

H          x =  0.928611  y = -1.187258  z =  1.586233 angstrom
           Maximum rank =  0   Radius =  0.325 angstrom
                   Q00  =   0.052321

H          x =  0.739611  y = -2.921258  z =  3.443233 angstrom
           Maximum rank =  0   Radius =  0.325 angstrom
                   Q00  =   0.073777

H          x = -0.865389  y = -3.314258  z =  2.825233 angstrom
           Maximum rank =  0   Radius =  0.325 angstrom
                   Q00  =   0.072164

H          x = -0.008389  y = -3.986258  z =  0.739233 angstrom
           Maximum rank =  0   Radius =  0.325 angstrom
                   Q00  =   0.071570

H          x =  0.738611  y = -2.826258  z = -0.358767 angstrom
           Maximum rank =  0   Radius =  0.325 angstrom
                   Q00  =   0.089781

H          x = -0.577534  y = -1.718297  z =  3.555873 angstrom
           Maximum rank =  0   Radius =  0.325 angstrom
                   Q00  =   0.076404

H          x =  1.691191  y = -3.492016  z =  1.011963 angstrom
           Maximum rank =  0   Radius =  0.325 angstrom
                   Q00  =   0.072087

C          x = -1.061389  y =  1.176742  z =  1.102233 angstrom
           Maximum rank =  0   Radius =  0.650 angstrom
                   Q00  =  -0.049318

C          x = -1.327389  y =  2.644742  z =  1.407233 angstrom
           Maximum rank =  0   Radius =  0.650 angstrom
                   Q00  =  -0.220042

C          x = -0.354389  y =  0.950742  z = -0.212767 angstrom
           Maximum rank =  0   Radius =  0.650 angstrom
                   Q00  =  -0.103134

C          x =  0.981611  y =  1.329742  z = -0.385767 angstrom
           Maximum rank =  0   Radius =  0.650 angstrom
                   Q00  =  -0.106931

C          x = -1.032389  y =  0.366742  z = -1.280767 angstrom
           Maximum rank =  0   Radius =  0.650 angstrom
                   Q00  =  -0.006077

C          x =  1.628611  y =  1.123742  z = -1.617767 angstrom
           Maximum rank =  0   Radius =  0.650 angstrom
                   Q00  =  -0.076913

C          x = -0.390389  y =  0.156742  z = -2.505767 angstrom
           Maximum rank =  0   Radius =  0.650 angstrom
                   Q00  =  -0.044810

C          x =  0.940611  y =  0.532742  z = -2.676767 angstrom
           Maximum rank =  0   Radius =  0.650 angstrom
                   Q00  =  -0.080238

H          x = -0.433389  y =  0.780742  z =  1.896233 angstrom
           Maximum rank =  0   Radius =  0.325 angstrom
                   Q00  =   0.068516

H          x = -2.007389  y =  0.631742  z =  1.105233 angstrom
           Maximum rank =  0   Radius =  0.325 angstrom
                   Q00  =   0.063099

H          x = -0.370389  y =  3.156742  z =  1.479233 angstrom
           Maximum rank =  0   Radius =  0.325 angstrom
                   Q00  =   0.080431

H          x =  1.514611  y =  1.796742  z =  0.430233 angstrom
           Maximum rank =  0   Radius =  0.325 angstrom
                   Q00  =   0.059106

H          x = -2.067389  y =  0.075742  z = -1.166767 angstrom
           Maximum rank =  0   Radius =  0.325 angstrom
                   Q00  =   0.057814

H          x =  2.650611  y =  1.440742  z = -1.760767 angstrom
           Maximum rank =  0   Radius =  0.325 angstrom
                   Q00  =   0.066959

H          x = -0.931389  y = -0.296258  z = -3.327767 angstrom
           Maximum rank =  0   Radius =  0.325 angstrom
                   Q00  =   0.065577

H          x =  1.431611  y =  0.378742  z = -3.628767 angstrom
           Maximum rank =  0   Radius =  0.325 angstrom
                   Q00  =   0.063470

H          x = -1.869034  y =  2.742332  z =  2.359653 angstrom
           Maximum rank =  0   Radius =  0.325 angstrom
                   Q00  =   0.084783

H          x = -1.890026  y =  3.115412  z =  0.587533 angstrom
           Maximum rank =  0   Radius =  0.325 angstrom
                   Q00  =   0.083519

Total multipoles referred to origin at
           x =   0.000000,  y =    0.000000,  z =    0.000000 angstrom
                   Q00  =  -0.000000

Finished at 21:12:50 on 26 Apr 2020

  DMA results are available in the Python driver through the
	  variable('DMA DISTRIBUTED MULTIPOLES')
  and
	  variable('DMA TOTAL MULTIPOLES')
  commands.

    Psi4 stopped on: Sunday, 26 April 2020 09:12PM
    Psi4 wall time for execution: 0:06:53.00

*** Psi4 exiting successfully. Buy a developer a beer!
