                               Psi4 1.3.2 release

  ==> Input File <==

--------------------------------------------------------------------------
import numpy as np
set {scf_type pk
basis cc-pvdz
d_convergence 10
gdma_switch   0
gdma_limit    0
gdma_origin   [ 0.0,  0.0,  0.0 ]
}
molecule test {
    units Angstrom
    0 1
    --
    0 1
    C               -1.471380202048734     3.559635357128924    -0.104416380115624
    C               -1.009380202048733     4.779635357128924     0.709583619884376
    H               -2.387380202048734     3.807635357128924    -0.645416380115624
    H               -0.697380202048734     3.277635357128924    -0.819416380115624
    H               -1.665380202048733     2.719635357128924     0.562583619884376
    H               -0.092380202048733     4.528635357128924     1.246583619884376
    H               -1.791477202048733     5.053795357128924     1.432883619884376
    H               -0.838405202048733     5.598635357128924    -0.004576380115624
    C                0.493619797951267     0.261635357128924    -0.293416380115624
    C                1.543619797951267     0.593635357128924    -1.333416380115624
    C                1.218619797951267    -1.768364642871076    -1.419416380115624
    C               -0.889380202048733    -1.328364642871076     1.742583619884376
    C               -0.154380202048733    -1.994364642871076     0.582583619884376
    O               -0.178380202048733    -3.221364642871075     0.446583619884376
    N                0.498619797951267    -1.206364642871076    -0.275416380115624
    H                0.748619797951267     0.660635357128924     0.683583619884376
    H               -0.490380202048734     0.630635357128924    -0.590416380115624
    H                2.541619797951266     0.584635357128924    -0.882416380115624
    H                1.360619797951267     1.565635357128924    -1.786416380115624
    H                0.623619797951267    -2.579364642871076    -1.836416380115624
    H               -0.430380202048734    -0.356364642871076     1.922583619884376
    H                1.419279797951267    -0.227854642871076    -2.054316380115624
    H                1.324709797951267    -0.912424642871076    -2.102146380115624
    H                2.211159797951266    -2.160904642871075    -1.153386380115624
    H               -1.955487202048733    -1.232814642871076     1.489033619884376
    H               -0.779047202048733    -1.929784642871076     2.656973619884376

}
e, wfn = energy('scf', return_wfn=True)
gdma(wfn)
dmavals = variable('DMA DISTRIBUTED MULTIPOLES')
charges = np.array(dmavals)
print(charges)
np.save('SSI-033LEU-061PRO-1-dimer.npy', np.array(charges))--------------------------------------------------------------------------

*** tstart() called on ds3
*** at Tue Apr 28 15:48:22 2020

   => Loading Basis Set <=

    Name: CC-PVDZ
    Role: ORBITAL
    Keyword: BASIS
    atoms 1-2, 9-13  entry C          line   138 file /theoryfs2/ds/metcalf/miniconda2/envs/tf2gpu/share/psi4/basis/cc-pvdz.gbs
    atoms 3-8, 16-26 entry H          line    22 file /theoryfs2/ds/metcalf/miniconda2/envs/tf2gpu/share/psi4/basis/cc-pvdz.gbs
    atoms 14         entry O          line   198 file /theoryfs2/ds/metcalf/miniconda2/envs/tf2gpu/share/psi4/basis/cc-pvdz.gbs
    atoms 15         entry N          line   168 file /theoryfs2/ds/metcalf/miniconda2/envs/tf2gpu/share/psi4/basis/cc-pvdz.gbs

         ---------------------------------------------------------
                                   SCF
               by Justin Turney, Rob Parrish, Andy Simmonett
                          and Daniel G. A. Smith
                              RHF Reference
                        1 Threads,    500 MiB Core
         ---------------------------------------------------------

  ==> Geometry <==

    Molecular point group: c1
    Full point group: C1

    Geometry (in Angstrom), charge = 0, multiplicity = 1:

       Center              X                  Y                   Z               Mass
    ------------   -----------------  -----------------  -----------------  -----------------
         C           -1.471380202049     3.559635357129    -0.104416380116    12.000000000000
         C           -1.009380202049     4.779635357129     0.709583619884    12.000000000000
         H           -2.387380202049     3.807635357129    -0.645416380116     1.007825032230
         H           -0.697380202049     3.277635357129    -0.819416380116     1.007825032230
         H           -1.665380202049     2.719635357129     0.562583619884     1.007825032230
         H           -0.092380202049     4.528635357129     1.246583619884     1.007825032230
         H           -1.791477202049     5.053795357129     1.432883619884     1.007825032230
         H           -0.838405202049     5.598635357129    -0.004576380116     1.007825032230
         C            0.493619797951     0.261635357129    -0.293416380116    12.000000000000
         C            1.543619797951     0.593635357129    -1.333416380116    12.000000000000
         C            1.218619797951    -1.768364642871    -1.419416380116    12.000000000000
         C           -0.889380202049    -1.328364642871     1.742583619884    12.000000000000
         C           -0.154380202049    -1.994364642871     0.582583619884    12.000000000000
         O           -0.178380202049    -3.221364642871     0.446583619884    15.994914619570
         N            0.498619797951    -1.206364642871    -0.275416380116    14.003074004430
         H            0.748619797951     0.660635357129     0.683583619884     1.007825032230
         H           -0.490380202049     0.630635357129    -0.590416380116     1.007825032230
         H            2.541619797951     0.584635357129    -0.882416380116     1.007825032230
         H            1.360619797951     1.565635357129    -1.786416380116     1.007825032230
         H            0.623619797951    -2.579364642871    -1.836416380116     1.007825032230
         H           -0.430380202049    -0.356364642871     1.922583619884     1.007825032230
         H            1.419279797951    -0.227854642871    -2.054316380116     1.007825032230
         H            1.324709797951    -0.912424642871    -2.102146380116     1.007825032230
         H            2.211159797951    -2.160904642871    -1.153386380116     1.007825032230
         H           -1.955487202049    -1.232814642871     1.489033619884     1.007825032230
         H           -0.779047202049    -1.929784642871     2.656973619884     1.007825032230

  Running in c1 symmetry.

  Rotational constants: A =      0.06966  B =      0.01851  C =      0.01530 [cm^-1]
  Rotational constants: A =   2088.25327  B =    554.95377  C =    458.53438 [MHz]
  Nuclear repulsion =  465.439153115039971

  Charge       = 0
  Multiplicity = 1
  Electrons    = 74
  Nalpha       = 37
  Nbeta        = 37

  ==> Algorithm <==

  SCF Algorithm Type is PK.
  DIIS enabled.
  MOM disabled.
  Fractional occupation disabled.
  Guess Type is SAD.
  Energy threshold   = 1.00e-06
  Density threshold  = 1.00e-10
  Integral threshold = 0.00e+00

  ==> Primary Basis <==

  Basis Set: CC-PVDZ
    Blend: CC-PVDZ
    Number of shells: 105
    Number of basis function: 211
    Number of Cartesian functions: 220
    Spherical Harmonics?: true
    Max angular momentum: 2

  ==> Pre-Iterations <==

   -------------------------------------------------------
    Irrep   Nso     Nmo     Nalpha   Nbeta   Ndocc  Nsocc
   -------------------------------------------------------
     A        211     211       0       0       0       0
   -------------------------------------------------------
    Total     211     211      37      37      37       0
   -------------------------------------------------------

  ==> Integral Setup <==

  Using integral reordering PK algorithm.
  Sizing the integral batches needed.
  Building batch lookup table.
   Calculation information:
      Number of atoms:                  26
      Number of AO shells:             105
      Number of primitives:            283
      Number of atomic orbitals:       220
      Number of basis functions:       211

      Integral cutoff                 1.00e-12
      Number of threads:                 1

	Batch   1 pq = [       0,    9405] index = [             0,44231715] size =     44231715
	Batch   2 pq = [    9405,   13301] index = [      44231715,88464951] size =     44233236
	Batch   3 pq = [   13301,   16290] index = [      88464951,132690195] size =     44225244
	Batch   4 pq = [   16290,   18810] index = [     132690195,176917455] size =     44227260
	Batch   5 pq = [   18810,   21030] index = [     176917455,221140965] size =     44223510
	Batch   6 pq = [   21030,   22366] index = [     221140965,250130161] size =     28989196
  Task number: 23
  Buffer size: 11059200
  Buffer per thread: 2
  We computed 12753483 shell quartets total.
  Whereas there are 15487395 unique shell quartets.

  ==> DiskJK: Disk-Based J/K Matrices <==

    J tasked:                  Yes
    K tasked:                  Yes
    wK tasked:                  No
    Memory [MiB]:              375
    Schwarz Cutoff:          1E-12

    OpenMP threads:              1

  Minimum eigenvalue in the overlap matrix is 1.8151989136E-03.
  Using Symmetric Orthogonalization.

  SCF Guess: Superposition of Atomic Densities via on-the-fly atomic UHF.

  ==> Iterations <==

                        Total Energy        Delta E     RMS |[F,P]|

   @RHF iter SAD:  -403.38305173994974   -4.03383e+02   0.00000e+00
   @RHF iter   1:  -403.84133340915167   -4.58282e-01   3.32402e-03 DIIS
   @RHF iter   2:  -404.06789709516426   -2.26564e-01   1.84712e-03 DIIS
   @RHF iter   3:  -404.12777133301523   -5.98742e-02   4.42077e-04 DIIS
   @RHF iter   4:  -404.13301652299492   -5.24519e-03   1.72170e-04 DIIS
   @RHF iter   5:  -404.13385460050159   -8.38078e-04   3.00176e-05 DIIS
   @RHF iter   6:  -404.13390621396559   -5.16135e-05   1.53944e-05 DIIS
   @RHF iter   7:  -404.13391664319710   -1.04292e-05   5.62862e-06 DIIS
   @RHF iter   8:  -404.13391884105118   -2.19785e-06   2.18656e-06 DIIS
   @RHF iter   9:  -404.13391916401531   -3.22964e-07   5.89813e-07 DIIS
   @RHF iter  10:  -404.13391918291904   -1.89037e-08   1.71940e-07 DIIS
   @RHF iter  11:  -404.13391918455318   -1.63413e-09   5.06172e-08 DIIS
   @RHF iter  12:  -404.13391918467812   -1.24942e-10   1.61925e-08 DIIS
   @RHF iter  13:  -404.13391918468699   -8.86757e-12   4.87309e-09 DIIS
   @RHF iter  14:  -404.13391918468500    1.98952e-12   1.26616e-09 DIIS
   @RHF iter  15:  -404.13391918469188   -6.87805e-12   3.63548e-10 DIIS
   @RHF iter  16:  -404.13391918468812    3.75167e-12   1.64543e-10 DIIS
   @RHF iter  17:  -404.13391918469068   -2.55795e-12   6.04756e-11 DIIS
  Energy and wave function converged.

  ==> Post-Iterations <==

    Orbital Energies [Eh]
    ---------------------

    Doubly Occupied:

       1A    -20.493755     2A    -15.581575     3A    -11.337972
       4A    -11.277341     5A    -11.247525     6A    -11.237279
       7A    -11.228879     8A    -11.227507     9A    -11.222077
      10A     -1.358732    11A     -1.252932    12A     -1.066623
      13A     -1.026200    14A     -1.006482    15A     -0.967802
      16A     -0.854369    17A     -0.844439    18A     -0.753352
      19A     -0.729839    20A     -0.672976    21A     -0.650928
      22A     -0.613111    23A     -0.609083    24A     -0.606999
      25A     -0.595297    26A     -0.573143    27A     -0.548154
      28A     -0.538091    29A     -0.534233    30A     -0.521711
      31A     -0.503876    32A     -0.496405    33A     -0.495748
      34A     -0.483595    35A     -0.407002    36A     -0.396171
      37A     -0.357089

    Virtual:

      38A      0.154097    39A      0.179978    40A      0.185151
      41A      0.191153    42A      0.217482    43A      0.223312
      44A      0.235226    45A      0.245356    46A      0.252957
      47A      0.257666    48A      0.262114    49A      0.268004
      50A      0.274251    51A      0.284905    52A      0.300324
      53A      0.314358    54A      0.324724    55A      0.349678
      56A      0.355127    57A      0.389983    58A      0.392577
      59A      0.416216    60A      0.458936    61A      0.483808
      62A      0.527073    63A      0.540480    64A      0.592353
      65A      0.592462    66A      0.598187    67A      0.603954
      68A      0.611944    69A      0.633559    70A      0.649202
      71A      0.670363    72A      0.679527    73A      0.693485
      74A      0.702406    75A      0.735108    76A      0.758637
      77A      0.775714    78A      0.779269    79A      0.818759
      80A      0.837463    81A      0.848477    82A      0.856805
      83A      0.863044    84A      0.870556    85A      0.878323
      86A      0.879763    87A      0.885431    88A      0.887414
      89A      0.891629    90A      0.898466    91A      0.912567
      92A      0.915701    93A      0.937841    94A      0.941327
      95A      0.948779    96A      0.964504    97A      0.972479
      98A      0.990086    99A      1.022286   100A      1.052469
     101A      1.079028   102A      1.085855   103A      1.113517
     104A      1.124946   105A      1.149111   106A      1.178498
     107A      1.214455   108A      1.232842   109A      1.235824
     110A      1.245571   111A      1.351579   112A      1.380592
     113A      1.398105   114A      1.409353   115A      1.439252
     116A      1.449718   117A      1.465749   118A      1.468853
     119A      1.494970   120A      1.550320   121A      1.554236
     122A      1.575659   123A      1.587371   124A      1.606361
     125A      1.621468   126A      1.640067   127A      1.664044
     128A      1.680411   129A      1.687153   130A      1.696560
     131A      1.743834   132A      1.774535   133A      1.825465
     134A      1.839625   135A      1.842914   136A      1.857338
     137A      1.866713   138A      1.872341   139A      1.882847
     140A      1.894521   141A      1.909305   142A      1.916559
     143A      1.926999   144A      1.930340   145A      1.930747
     146A      1.947795   147A      1.954557   148A      1.960787
     149A      1.967018   150A      1.978448   151A      1.987779
     152A      2.021737   153A      2.036770   154A      2.044925
     155A      2.070437   156A      2.092967   157A      2.100432
     158A      2.106107   159A      2.108528   160A      2.141590
     161A      2.152752   162A      2.158091   163A      2.187309
     164A      2.203259   165A      2.257596   166A      2.268948
     167A      2.269949   168A      2.280673   169A      2.298242
     170A      2.326100   171A      2.351530   172A      2.415890
     173A      2.437238   174A      2.448746   175A      2.461017
     176A      2.486245   177A      2.498441   178A      2.521257
     179A      2.555019   180A      2.560433   181A      2.565162
     182A      2.596466   183A      2.652379   184A      2.698382
     185A      2.744796   186A      2.754860   187A      2.766796
     188A      2.780130   189A      2.783602   190A      2.786567
     191A      2.796158   192A      2.812575   193A      2.822415
     194A      2.827359   195A      2.835420   196A      2.863556
     197A      2.924374   198A      2.952157   199A      2.953187
     200A      2.964898   201A      3.038672   202A      3.092772
     203A      3.108819   204A      3.175765   205A      3.208603
     206A      3.279486   207A      3.348864   208A      3.520839
     209A      3.828287   210A      3.906853   211A      4.797034

    Final Occupation by Irrep:
              A
    DOCC [    37 ]

  @RHF Final Energy:  -404.13391918469068

   => Energetics <=

    Nuclear Repulsion Energy =            465.4391531150399715
    One-Electron Energy =               -1470.5095667554423926
    Two-Electron Energy =                 600.9364944557117951
    Total Energy =                       -404.1339191846906260

Computation Completed

Properties will be evaluated at   0.000000,   0.000000,   0.000000 [a0]

Properties computed using the SCF density matrix

  Nuclear Dipole Moment: [e a0]
     X:    -0.8442      Y:    17.8262      Z:    -1.7602

  Electronic Dipole Moment: [e a0]
     X:     1.0898      Y:   -16.1017      Z:     1.4671

  Dipole Moment: [e a0]
     X:     0.2455      Y:     1.7244      Z:    -0.2930     Total:     1.7663

  Dipole Moment: [D]
     X:     0.6241      Y:     4.3831      Z:    -0.7448     Total:     4.4895

*** tstop() called on ds3 at Tue Apr 28 15:52:55 2020
Module time:
	user time   =      78.79 seconds =       1.31 minutes
	system time =      34.47 seconds =       0.57 minutes
	total time  =        273 seconds =       4.55 minutes
Total time:
	user time   =      78.79 seconds =       1.31 minutes
	system time =      34.47 seconds =       0.57 minutes
	total time  =        273 seconds =       4.55 minutes
                                     G D M A

                                 by Anthony Stone

                           version 2.2.06, 22 June 2011

               Distributed Multipoles from Gaussian wavefunctions

Starting at 15:52:55 on 28 Apr 2020

Using SCF density matrix from file ./SSI/SSI-033LEU-061PRO-1-dimer.test.17411.fchk

                         Distributed Multipole Analysis

Standard DMA

Positions and radii in angstrom
Multipole moments in atomic units, ea_0^k for rank k

C          x = -1.471380  y =  3.559635  z = -0.104416 angstrom
           Maximum rank =  0   Radius =  0.650 angstrom
                   Q00  =  -0.250746

C          x = -1.009380  y =  4.779635  z =  0.709584 angstrom
           Maximum rank =  0   Radius =  0.650 angstrom
                   Q00  =  -0.228410

H          x = -2.387380  y =  3.807635  z = -0.645416 angstrom
           Maximum rank =  0   Radius =  0.325 angstrom
                   Q00  =   0.083501

H          x = -0.697380  y =  3.277635  z = -0.819416 angstrom
           Maximum rank =  0   Radius =  0.325 angstrom
                   Q00  =   0.076844

H          x = -1.665380  y =  2.719635  z =  0.562584 angstrom
           Maximum rank =  0   Radius =  0.325 angstrom
                   Q00  =   0.075677

H          x = -0.092380  y =  4.528635  z =  1.246584 angstrom
           Maximum rank =  0   Radius =  0.325 angstrom
                   Q00  =   0.079727

H          x = -1.791477  y =  5.053795  z =  1.432884 angstrom
           Maximum rank =  0   Radius =  0.325 angstrom
                   Q00  =   0.082623

H          x = -0.838405  y =  5.598635  z = -0.004576 angstrom
           Maximum rank =  0   Radius =  0.325 angstrom
                   Q00  =   0.080452

C          x =  0.493620  y =  0.261635  z = -0.293416 angstrom
           Maximum rank =  0   Radius =  0.650 angstrom
                   Q00  =   0.004416

C          x =  1.543620  y =  0.593635  z = -1.333416 angstrom
           Maximum rank =  0   Radius =  0.650 angstrom
                   Q00  =  -0.248766

C          x =  1.218620  y = -1.768365  z = -1.419416 angstrom
           Maximum rank =  0   Radius =  0.650 angstrom
                   Q00  =  -0.083859

C          x = -0.889380  y = -1.328365  z =  1.742584 angstrom
           Maximum rank =  0   Radius =  0.650 angstrom
                   Q00  =  -0.262943

C          x = -0.154380  y = -1.994365  z =  0.582584 angstrom
           Maximum rank =  0   Radius =  0.650 angstrom
                   Q00  =   0.749506

O          x = -0.178380  y = -3.221365  z =  0.446584 angstrom
           Maximum rank =  0   Radius =  0.650 angstrom
                   Q00  =  -0.791586

N          x =  0.498620  y = -1.206365  z = -0.275416 angstrom
           Maximum rank =  0   Radius =  0.650 angstrom
                   Q00  =  -0.458101

H          x =  0.748620  y =  0.660635  z =  0.683584 angstrom
           Maximum rank =  0   Radius =  0.325 angstrom
                   Q00  =   0.075880

H          x = -0.490380  y =  0.630635  z = -0.590416 angstrom
           Maximum rank =  0   Radius =  0.325 angstrom
                   Q00  =   0.061343

H          x =  2.541620  y =  0.584635  z = -0.882416 angstrom
           Maximum rank =  0   Radius =  0.325 angstrom
                   Q00  =   0.094778

H          x =  1.360620  y =  1.565635  z = -1.786416 angstrom
           Maximum rank =  0   Radius =  0.325 angstrom
                   Q00  =   0.092502

H          x =  0.623620  y = -2.579365  z = -1.836416 angstrom
           Maximum rank =  0   Radius =  0.325 angstrom
                   Q00  =   0.115431

H          x = -0.430380  y = -0.356365  z =  1.922584 angstrom
           Maximum rank =  0   Radius =  0.325 angstrom
                   Q00  =   0.081685

H          x =  1.419280  y = -0.227855  z = -2.054316 angstrom
           Maximum rank =  0   Radius =  0.325 angstrom
                   Q00  =   0.105326

H          x =  1.324710  y = -0.912425  z = -2.102146 angstrom
           Maximum rank =  0   Radius =  0.325 angstrom
                   Q00  =   0.106499

H          x =  2.211160  y = -2.160905  z = -1.153386 angstrom
           Maximum rank =  0   Radius =  0.325 angstrom
                   Q00  =   0.098693

H          x = -1.955487  y = -1.232815  z =  1.489034 angstrom
           Maximum rank =  0   Radius =  0.325 angstrom
                   Q00  =   0.128806

H          x = -0.779047  y = -1.929785  z =  2.656974 angstrom
           Maximum rank =  0   Radius =  0.325 angstrom
                   Q00  =   0.130722

Total multipoles referred to origin at
           x =   0.000000,  y =    0.000000,  z =    0.000000 angstrom
                   Q00  =  -0.000000

Finished at 15:52:55 on 28 Apr 2020

  DMA results are available in the Python driver through the
	  variable('DMA DISTRIBUTED MULTIPOLES')
  and
	  variable('DMA TOTAL MULTIPOLES')
  commands.

    Psi4 stopped on: Tuesday, 28 April 2020 03:52PM
    Psi4 wall time for execution: 0:04:32.30

*** Psi4 exiting successfully. Buy a developer a beer!
