                               Psi4 1.3.2 release

  ==> Input File <==

--------------------------------------------------------------------------
import numpy as np
set {scf_type pk
basis cc-pvdz
d_convergence 10
gdma_switch   0
gdma_limit    0
gdma_origin   [ 0.0,  0.0,  0.0 ]
}
molecule test {
    units Angstrom
    0 1
    --
    0 1
    C               -2.356689260163142    -0.780030504735783    -2.755594523389115
    C               -1.221689260163141    -1.753030504735783    -2.464594523389115
    H               -3.159689260163141    -0.910030504735783    -2.030594523389115
    H               -1.997689260163142     0.246969495264217    -2.676594523389115
    H               -2.752689260163141    -0.941030504735783    -3.756594523389115
    H               -0.960689260163142    -1.656030504735783    -1.412594523389115
    H               -1.526569260163142    -2.791622504735783    -2.660494523389115
    H               -0.338059260163142    -1.482630504735783    -3.061294523389115
    C               -1.085689260163141    -0.792030504735783     2.180405476610885
    C               -0.420689260163142     0.540969495264217     0.162405476610885
    C               -0.058689260163142    -0.038030504735783     1.376405476610885
    C                0.523310739836858     1.216969495264217    -0.601594523389115
    C                1.847310739836858     1.315969495264217    -0.168594523389115
    C                1.271310739836858     0.055969495264217     1.805405476610885
    C                2.226310739836858     0.734969495264217     1.036405476610885
    H               -1.443689260163141     0.480969495264217    -0.182594523389115
    H                0.229310739836858     1.675969495264217    -1.537594523389115
    H               -2.071689260163141    -0.374030504735783     1.967405476610885
    H               -0.896689260163142    -0.639030504735783     3.244405476610885
    H                2.575310739836858     1.848969495264217    -0.766594523389115
    H                1.569310739836858    -0.381030504735783     2.748405476610885
    H                3.249310739836858     0.815969495264217     1.380405476610885
    H               -1.105819260163142    -1.867370504735782     1.949705476610885

}
e, wfn = energy('scf', return_wfn=True)
gdma(wfn)
dmavals = variable('DMA DISTRIBUTED MULTIPOLES')
charges = np.array(dmavals)
print(charges)
np.save('SSI-101VAL-132PHE-1-dimer.npy', np.array(charges))--------------------------------------------------------------------------

*** tstart() called on ds3
*** at Tue Apr 28 12:15:15 2020

   => Loading Basis Set <=

    Name: CC-PVDZ
    Role: ORBITAL
    Keyword: BASIS
    atoms 1-2, 9-15  entry C          line   138 file /theoryfs2/ds/metcalf/miniconda2/envs/tf2gpu/share/psi4/basis/cc-pvdz.gbs
    atoms 3-8, 16-23 entry H          line    22 file /theoryfs2/ds/metcalf/miniconda2/envs/tf2gpu/share/psi4/basis/cc-pvdz.gbs

         ---------------------------------------------------------
                                   SCF
               by Justin Turney, Rob Parrish, Andy Simmonett
                          and Daniel G. A. Smith
                              RHF Reference
                        1 Threads,    500 MiB Core
         ---------------------------------------------------------

  ==> Geometry <==

    Molecular point group: c1
    Full point group: C1

    Geometry (in Angstrom), charge = 0, multiplicity = 1:

       Center              X                  Y                   Z               Mass
    ------------   -----------------  -----------------  -----------------  -----------------
         C           -2.356689260163    -0.780030504736    -2.755594523389    12.000000000000
         C           -1.221689260163    -1.753030504736    -2.464594523389    12.000000000000
         H           -3.159689260163    -0.910030504736    -2.030594523389     1.007825032230
         H           -1.997689260163     0.246969495264    -2.676594523389     1.007825032230
         H           -2.752689260163    -0.941030504736    -3.756594523389     1.007825032230
         H           -0.960689260163    -1.656030504736    -1.412594523389     1.007825032230
         H           -1.526569260163    -2.791622504736    -2.660494523389     1.007825032230
         H           -0.338059260163    -1.482630504736    -3.061294523389     1.007825032230
         C           -1.085689260163    -0.792030504736     2.180405476611    12.000000000000
         C           -0.420689260163     0.540969495264     0.162405476611    12.000000000000
         C           -0.058689260163    -0.038030504736     1.376405476611    12.000000000000
         C            0.523310739837     1.216969495264    -0.601594523389    12.000000000000
         C            1.847310739837     1.315969495264    -0.168594523389    12.000000000000
         C            1.271310739837     0.055969495264     1.805405476611    12.000000000000
         C            2.226310739837     0.734969495264     1.036405476611    12.000000000000
         H           -1.443689260163     0.480969495264    -0.182594523389     1.007825032230
         H            0.229310739837     1.675969495264    -1.537594523389     1.007825032230
         H           -2.071689260163    -0.374030504736     1.967405476611     1.007825032230
         H           -0.896689260163    -0.639030504736     3.244405476611     1.007825032230
         H            2.575310739837     1.848969495264    -0.766594523389     1.007825032230
         H            1.569310739837    -0.381030504736     2.748405476611     1.007825032230
         H            3.249310739837     0.815969495264     1.380405476611     1.007825032230
         H           -1.105819260163    -1.867370504736     1.949705476611     1.007825032230

  Running in c1 symmetry.

  Rotational constants: A =      0.06915  B =      0.02899  C =      0.02297 [cm^-1]
  Rotational constants: A =   2073.06402  B =    869.17890  C =    688.52892 [MHz]
  Nuclear repulsion =  412.694842107855379

  Charge       = 0
  Multiplicity = 1
  Electrons    = 68
  Nalpha       = 34
  Nbeta        = 34

  ==> Algorithm <==

  SCF Algorithm Type is PK.
  DIIS enabled.
  MOM disabled.
  Fractional occupation disabled.
  Guess Type is SAD.
  Energy threshold   = 1.00e-06
  Density threshold  = 1.00e-10
  Integral threshold = 0.00e+00

  ==> Primary Basis <==

  Basis Set: CC-PVDZ
    Blend: CC-PVDZ
    Number of shells: 96
    Number of basis function: 196
    Number of Cartesian functions: 205
    Spherical Harmonics?: true
    Max angular momentum: 2

  ==> Pre-Iterations <==

   -------------------------------------------------------
    Irrep   Nso     Nmo     Nalpha   Nbeta   Ndocc  Nsocc
   -------------------------------------------------------
     A        196     196       0       0       0       0
   -------------------------------------------------------
    Total     196     196      34      34      34       0
   -------------------------------------------------------

  ==> Integral Setup <==

  Using integral reordering PK algorithm.
  Sizing the integral batches needed.
  Building batch lookup table.
   Calculation information:
      Number of atoms:                  23
      Number of AO shells:              96
      Number of primitives:            268
      Number of atomic orbitals:       205
      Number of basis functions:       196

      Integral cutoff                 1.00e-12
      Number of threads:                 1

	Batch   1 pq = [       0,    9405] index = [             0,44231715] size =     44231715
	Batch   2 pq = [    9405,   13301] index = [      44231715,88464951] size =     44233236
	Batch   3 pq = [   13301,   16290] index = [      88464951,132690195] size =     44225244
	Batch   4 pq = [   16290,   18810] index = [     132690195,176917455] size =     44227260
	Batch   5 pq = [   18810,   19306] index = [     176917455,186370471] size =      9453016
  Task number: 17
  Buffer size: 11059200
  Buffer per thread: 2
  We computed 9948350 shell quartets total.
  Whereas there are 10841496 unique shell quartets.

  ==> DiskJK: Disk-Based J/K Matrices <==

    J tasked:                  Yes
    K tasked:                  Yes
    wK tasked:                  No
    Memory [MiB]:              375
    Schwarz Cutoff:          1E-12

    OpenMP threads:              1

  Minimum eigenvalue in the overlap matrix is 3.1174067188E-04.
  Using Symmetric Orthogonalization.

  SCF Guess: Superposition of Atomic Densities via on-the-fly atomic UHF.

  ==> Iterations <==

                        Total Energy        Delta E     RMS |[F,P]|

   @RHF iter SAD:  -347.85865146387772   -3.47859e+02   0.00000e+00
   @RHF iter   1:  -348.76710102671103   -9.08450e-01   2.88879e-03 DIIS
   @RHF iter   2:  -348.95943406424010   -1.92333e-01   1.19390e-03 DIIS
   @RHF iter   3:  -348.98933703495521   -2.99030e-02   2.57825e-04 DIIS
   @RHF iter   4:  -348.99180502338254   -2.46799e-03   5.29110e-05 DIIS
   @RHF iter   5:  -348.99187779639834   -7.27730e-05   1.83760e-05 DIIS
   @RHF iter   6:  -348.99188601974777   -8.22335e-06   4.84156e-06 DIIS
   @RHF iter   7:  -348.99188668666466   -6.66917e-07   1.22810e-06 DIIS
   @RHF iter   8:  -348.99188674182705   -5.51624e-08   3.54777e-07 DIIS
   @RHF iter   9:  -348.99188675104756   -9.22051e-09   1.78130e-07 DIIS
   @RHF iter  10:  -348.99188675357743   -2.52987e-09   8.49497e-08 DIIS
   @RHF iter  11:  -348.99188675445151   -8.74081e-10   3.24875e-08 DIIS
   @RHF iter  12:  -348.99188675454729   -9.57812e-11   1.48452e-08 DIIS
   @RHF iter  13:  -348.99188675455991   -1.26192e-11   4.15558e-09 DIIS
   @RHF iter  14:  -348.99188675455872    1.19371e-12   1.12813e-09 DIIS
   @RHF iter  15:  -348.99188675455986   -1.13687e-12   3.71113e-10 DIIS
   @RHF iter  16:  -348.99188675456037   -5.11591e-13   1.30739e-10 DIIS
   @RHF iter  17:  -348.99188675456094   -5.68434e-13   5.61488e-11 DIIS
  Energy and wave function converged.

  ==> Post-Iterations <==

    Orbital Energies [Eh]
    ---------------------

    Doubly Occupied:

       1A    -11.241624     2A    -11.237114     3A    -11.235931
       4A    -11.232759     5A    -11.232252     6A    -11.230299
       7A    -11.230241     8A    -11.216322     9A    -11.214062
      10A     -1.151265    11A     -1.043825    12A     -1.018620
      13A     -1.010204    14A     -0.930861    15A     -0.834496
      16A     -0.824560    17A     -0.795027    18A     -0.690553
      19A     -0.631429    20A     -0.630094    21A     -0.599917
      22A     -0.596502    23A     -0.580268    24A     -0.577382
      25A     -0.561851    26A     -0.534310    27A     -0.499810
      28A     -0.489316    29A     -0.484823    30A     -0.483719
      31A     -0.481709    32A     -0.479393    33A     -0.331446
      34A     -0.321888

    Virtual:

      35A      0.133845    36A      0.139203    37A      0.170308
      38A      0.192518    39A      0.201310    40A      0.225288
      41A      0.229995    42A      0.236010    43A      0.253257
      44A      0.263259    45A      0.272783    46A      0.275218
      47A      0.280801    48A      0.296630    49A      0.322259
      50A      0.341797    51A      0.364760    52A      0.379531
      53A      0.403715    54A      0.451167    55A      0.462566
      56A      0.480811    57A      0.498309    58A      0.560367
      59A      0.589673    60A      0.602031    61A      0.606135
      62A      0.614102    63A      0.647803    64A      0.667634
      65A      0.679019    66A      0.692189    67A      0.700198
      68A      0.706943    69A      0.731266    70A      0.740551
      71A      0.744532    72A      0.749328    73A      0.760833
      74A      0.772703    75A      0.779358    76A      0.813893
      77A      0.845849    78A      0.849899    79A      0.859220
      80A      0.866974    81A      0.869675    82A      0.875961
      83A      0.890995    84A      0.897373    85A      0.903186
      86A      0.905078    87A      0.916564    88A      0.922059
      89A      0.936858    90A      0.947614    91A      0.962141
      92A      0.995579    93A      1.002142    94A      1.004589
      95A      1.036734    96A      1.073504    97A      1.118667
      98A      1.124802    99A      1.128639   100A      1.142904
     101A      1.155810   102A      1.158474   103A      1.197569
     104A      1.232767   105A      1.243996   106A      1.247877
     107A      1.253895   108A      1.276355   109A      1.301821
     110A      1.304879   111A      1.319392   112A      1.331520
     113A      1.411585   114A      1.473063   115A      1.482816
     116A      1.518196   117A      1.524129   118A      1.564881
     119A      1.578110   120A      1.602491   121A      1.670881
     122A      1.691108   123A      1.696707   124A      1.708342
     125A      1.741013   126A      1.747940   127A      1.757225
     128A      1.792194   129A      1.806489   130A      1.855434
     131A      1.859214   132A      1.877449   133A      1.886935
     134A      1.896202   135A      1.904216   136A      1.912554
     137A      1.919925   138A      1.922901   139A      1.936924
     140A      1.942491   141A      1.948544   142A      1.957073
     143A      1.965887   144A      1.975604   145A      1.979898
     146A      1.981879   147A      1.990749   148A      2.013668
     149A      2.042675   150A      2.063417   151A      2.065732
     152A      2.110898   153A      2.121593   154A      2.132849
     155A      2.148938   156A      2.158900   157A      2.162040
     158A      2.173257   159A      2.186652   160A      2.260610
     161A      2.281703   162A      2.290471   163A      2.294367
     164A      2.301801   165A      2.316004   166A      2.326126
     167A      2.336271   168A      2.451444   169A      2.453714
     170A      2.465976   171A      2.488083   172A      2.502920
     173A      2.540153   174A      2.574427   175A      2.586805
     176A      2.625563   177A      2.737856   178A      2.750718
     179A      2.763161   180A      2.773435   181A      2.784844
     182A      2.795317   183A      2.815271   184A      2.842436
     185A      2.854504   186A      2.866646   187A      2.883636
     188A      2.952882   189A      2.968032   190A      2.983297
     191A      3.006621   192A      3.030935   193A      3.146565
     194A      3.195670   195A      3.291588   196A      3.957012

    Final Occupation by Irrep:
              A
    DOCC [    34 ]

  @RHF Final Energy:  -348.99188675456094

   => Energetics <=

    Nuclear Repulsion Energy =            412.6948421078553793
    One-Electron Energy =               -1288.0657109926310113
    Two-Electron Energy =                 526.3789821302146947
    Total Energy =                       -348.9918867545609373

Computation Completed

Properties will be evaluated at   0.000000,   0.000000,   0.000000 [a0]

Properties computed using the SCF density matrix

  Nuclear Dipole Moment: [e a0]
     X:    -8.0904      Y:    -5.6004      Z:    -6.3698

  Electronic Dipole Moment: [e a0]
     X:     8.0433      Y:     5.5500      Z:     6.4690

  Dipole Moment: [e a0]
     X:    -0.0471      Y:    -0.0504      Z:     0.0993     Total:     0.1209

  Dipole Moment: [D]
     X:    -0.1196      Y:    -0.1282      Z:     0.2523     Total:     0.3073

*** tstop() called on ds3 at Tue Apr 28 12:18:27 2020
Module time:
	user time   =      66.88 seconds =       1.11 minutes
	system time =      24.34 seconds =       0.41 minutes
	total time  =        192 seconds =       3.20 minutes
Total time:
	user time   =      66.88 seconds =       1.11 minutes
	system time =      24.34 seconds =       0.41 minutes
	total time  =        192 seconds =       3.20 minutes
                                     G D M A

                                 by Anthony Stone

                           version 2.2.06, 22 June 2011

               Distributed Multipoles from Gaussian wavefunctions

Starting at 12:18:27 on 28 Apr 2020

Using SCF density matrix from file ./SSI/SSI-101VAL-132PHE-1-dimer.test.14653.fchk

                         Distributed Multipole Analysis

Standard DMA

Positions and radii in angstrom
Multipole moments in atomic units, ea_0^k for rank k

C          x = -2.356689  y = -0.780031  z = -2.755595 angstrom
           Maximum rank =  0   Radius =  0.650 angstrom
                   Q00  =  -0.241772

C          x = -1.221689  y = -1.753031  z = -2.464595 angstrom
           Maximum rank =  0   Radius =  0.650 angstrom
                   Q00  =  -0.228877

H          x = -3.159689  y = -0.910031  z = -2.030595 angstrom
           Maximum rank =  0   Radius =  0.325 angstrom
                   Q00  =   0.074963

H          x = -1.997689  y =  0.246969  z = -2.676595 angstrom
           Maximum rank =  0   Radius =  0.325 angstrom
                   Q00  =   0.073543

H          x = -2.752689  y = -0.941031  z = -3.756595 angstrom
           Maximum rank =  0   Radius =  0.325 angstrom
                   Q00  =   0.080482

H          x = -0.960689  y = -1.656031  z = -1.412595 angstrom
           Maximum rank =  0   Radius =  0.325 angstrom
                   Q00  =   0.085428

H          x = -1.526569  y = -2.791623  z = -2.660495 angstrom
           Maximum rank =  0   Radius =  0.325 angstrom
                   Q00  =   0.076866

H          x = -0.338059  y = -1.482631  z = -3.061295 angstrom
           Maximum rank =  0   Radius =  0.325 angstrom
                   Q00  =   0.079279

C          x = -1.085689  y = -0.792031  z =  2.180405 angstrom
           Maximum rank =  0   Radius =  0.650 angstrom
                   Q00  =  -0.202765

C          x = -0.420689  y =  0.540969  z =  0.162405 angstrom
           Maximum rank =  0   Radius =  0.650 angstrom
                   Q00  =  -0.089540

C          x = -0.058689  y = -0.038031  z =  1.376405 angstrom
           Maximum rank =  0   Radius =  0.650 angstrom
                   Q00  =  -0.095150

C          x =  0.523311  y =  1.216969  z = -0.601595 angstrom
           Maximum rank =  0   Radius =  0.650 angstrom
                   Q00  =   0.010576

C          x =  1.847311  y =  1.315969  z = -0.168595 angstrom
           Maximum rank =  0   Radius =  0.650 angstrom
                   Q00  =  -0.086711

C          x =  1.271311  y =  0.055969  z =  1.805405 angstrom
           Maximum rank =  0   Radius =  0.650 angstrom
                   Q00  =  -0.078476

C          x =  2.226311  y =  0.734969  z =  1.036405 angstrom
           Maximum rank =  0   Radius =  0.650 angstrom
                   Q00  =  -0.068362

H          x = -1.443689  y =  0.480969  z = -0.182595 angstrom
           Maximum rank =  0   Radius =  0.325 angstrom
                   Q00  =   0.058850

H          x =  0.229311  y =  1.675969  z = -1.537595 angstrom
           Maximum rank =  0   Radius =  0.325 angstrom
                   Q00  =   0.063697

H          x = -2.071689  y = -0.374031  z =  1.967405 angstrom
           Maximum rank =  0   Radius =  0.325 angstrom
                   Q00  =   0.095921

H          x = -0.896689  y = -0.639031  z =  3.244405 angstrom
           Maximum rank =  0   Radius =  0.325 angstrom
                   Q00  =   0.099995

H          x =  2.575311  y =  1.848969  z = -0.766595 angstrom
           Maximum rank =  0   Radius =  0.325 angstrom
                   Q00  =   0.062221

H          x =  1.569311  y = -0.381031  z =  2.748405 angstrom
           Maximum rank =  0   Radius =  0.325 angstrom
                   Q00  =   0.057734

H          x =  3.249311  y =  0.815969  z =  1.380405 angstrom
           Maximum rank =  0   Radius =  0.325 angstrom
                   Q00  =   0.066842

H          x = -1.105819  y = -1.867371  z =  1.949705 angstrom
           Maximum rank =  0   Radius =  0.325 angstrom
                   Q00  =   0.105256

Total multipoles referred to origin at
           x =   0.000000,  y =    0.000000,  z =    0.000000 angstrom
                   Q00  =  -0.000000

Finished at 12:18:27 on 28 Apr 2020

  DMA results are available in the Python driver through the
	  variable('DMA DISTRIBUTED MULTIPOLES')
  and
	  variable('DMA TOTAL MULTIPOLES')
  commands.

    Psi4 stopped on: Tuesday, 28 April 2020 12:18PM
    Psi4 wall time for execution: 0:03:11.65

*** Psi4 exiting successfully. Buy a developer a beer!
