                               Psi4 1.3.2 release

  ==> Input File <==

--------------------------------------------------------------------------
import numpy as np
set {scf_type pk
basis cc-pvdz
d_convergence 10
gdma_switch   0
gdma_limit    0
gdma_origin   [ 0.0,  0.0,  0.0 ]
}
molecule test {
    units Angstrom
    0 1
    --
    0 1
    C                1.978698555407562    -1.711938844548275    -1.761225795772124
    C               -0.498301444592438    -1.742938844548275    -1.249225795772124
    C                0.530698555407563    -1.670938844548275    -2.188225795772124
    C               -1.852301444592438    -1.685938844548275    -1.651225795772124
    C               -2.175301444592438    -1.603938844548276    -2.960225795772124
    C                0.175698555407562    -1.589938844548275    -3.521225795772124
    C               -1.155301444592437    -1.539938844548275    -3.900225795772124
    H               -0.261301444592437    -1.841938844548275    -0.200225795772124
    H               -2.636301444592437    -1.734938844548276    -0.906225795772124
    H                2.136698555407562    -0.953938844548275    -0.994225795772124
    H                2.591698555407562    -1.447938844548275    -2.618225795772124
    H               -3.210301444592438    -1.578938844548275    -3.272225795772124
    H                0.942698555407563    -1.548938844548275    -4.282225795772124
    H               -1.412301444592437    -1.471938844548275    -4.946225795772125
    H                2.318058555407562    -2.686108844548276    -1.379355795772124
    C                0.567698555407563     0.144061155451725     1.631774204227876
    C                0.834698555407563    -0.906938844548275     2.676774204227876
    C                1.098698555407563     1.263061155451724     3.709774204227876
    C               -0.479301444592437     2.641061155451724     0.495774204227876
    C                0.002698555407563     2.531061155451725     1.948774204227876
    O               -0.161301444592437     3.483061155451725     2.718774204227876
    N                0.587698555407563     1.410061155451725     2.351774204227876
    H                1.346698555407563     0.132061155451725     0.873774204227876
    H               -0.407301444592437    -0.045938844548275     1.182774204227876
    H                1.384698555407563    -1.753938844548276     2.272774204227876
    H               -0.113301444592437    -1.239938844548275     3.101774204227876
    H                0.280698555407563     1.384061155451724     4.419774204227876
    H               -0.505301444592437     1.664061155451725     0.022774204227876
    H                1.405898555407562    -0.363048844548275     3.443533204227875
    H                1.467518555407563     0.226741155451725     3.714113204227876
    H                1.919628555407563     1.967741155451725     3.908547204227875
    H               -1.494191444592438     3.065321155451724     0.494264204227876
    H                0.209168555407562     3.288941155451724    -0.066595795772124

}
e, wfn = energy('scf', return_wfn=True)
gdma(wfn)
dmavals = variable('DMA DISTRIBUTED MULTIPOLES')
charges = np.array(dmavals)
print(charges)
np.save('SSI-013PHE-063PRO-1-dimer.npy', np.array(charges))--------------------------------------------------------------------------

*** tstart() called on ds3
*** at Tue Apr 28 10:42:27 2020

   => Loading Basis Set <=

    Name: CC-PVDZ
    Role: ORBITAL
    Keyword: BASIS
    atoms 1-7, 16-20  entry C          line   138 file /theoryfs2/ds/metcalf/miniconda2/envs/tf2gpu/share/psi4/basis/cc-pvdz.gbs
    atoms 8-15, 23-33 entry H          line    22 file /theoryfs2/ds/metcalf/miniconda2/envs/tf2gpu/share/psi4/basis/cc-pvdz.gbs
    atoms 21          entry O          line   198 file /theoryfs2/ds/metcalf/miniconda2/envs/tf2gpu/share/psi4/basis/cc-pvdz.gbs
    atoms 22          entry N          line   168 file /theoryfs2/ds/metcalf/miniconda2/envs/tf2gpu/share/psi4/basis/cc-pvdz.gbs

         ---------------------------------------------------------
                                   SCF
               by Justin Turney, Rob Parrish, Andy Simmonett
                          and Daniel G. A. Smith
                              RHF Reference
                        1 Threads,    500 MiB Core
         ---------------------------------------------------------

  ==> Geometry <==

    Molecular point group: c1
    Full point group: C1

    Geometry (in Angstrom), charge = 0, multiplicity = 1:

       Center              X                  Y                   Z               Mass
    ------------   -----------------  -----------------  -----------------  -----------------
         C            1.978698555408    -1.711938844548    -1.761225795772    12.000000000000
         C           -0.498301444592    -1.742938844548    -1.249225795772    12.000000000000
         C            0.530698555408    -1.670938844548    -2.188225795772    12.000000000000
         C           -1.852301444592    -1.685938844548    -1.651225795772    12.000000000000
         C           -2.175301444592    -1.603938844548    -2.960225795772    12.000000000000
         C            0.175698555408    -1.589938844548    -3.521225795772    12.000000000000
         C           -1.155301444592    -1.539938844548    -3.900225795772    12.000000000000
         H           -0.261301444592    -1.841938844548    -0.200225795772     1.007825032230
         H           -2.636301444592    -1.734938844548    -0.906225795772     1.007825032230
         H            2.136698555408    -0.953938844548    -0.994225795772     1.007825032230
         H            2.591698555408    -1.447938844548    -2.618225795772     1.007825032230
         H           -3.210301444592    -1.578938844548    -3.272225795772     1.007825032230
         H            0.942698555408    -1.548938844548    -4.282225795772     1.007825032230
         H           -1.412301444592    -1.471938844548    -4.946225795772     1.007825032230
         H            2.318058555408    -2.686108844548    -1.379355795772     1.007825032230
         C            0.567698555408     0.144061155452     1.631774204228    12.000000000000
         C            0.834698555408    -0.906938844548     2.676774204228    12.000000000000
         C            1.098698555408     1.263061155452     3.709774204228    12.000000000000
         C           -0.479301444592     2.641061155452     0.495774204228    12.000000000000
         C            0.002698555408     2.531061155452     1.948774204228    12.000000000000
         O           -0.161301444592     3.483061155452     2.718774204228    15.994914619570
         N            0.587698555408     1.410061155452     2.351774204228    14.003074004430
         H            1.346698555408     0.132061155452     0.873774204228     1.007825032230
         H           -0.407301444592    -0.045938844548     1.182774204228     1.007825032230
         H            1.384698555408    -1.753938844548     2.272774204228     1.007825032230
         H           -0.113301444592    -1.239938844548     3.101774204228     1.007825032230
         H            0.280698555408     1.384061155452     4.419774204228     1.007825032230
         H           -0.505301444592     1.664061155452     0.022774204228     1.007825032230
         H            1.405898555408    -0.363048844548     3.443533204228     1.007825032230
         H            1.467518555408     0.226741155452     3.714113204228     1.007825032230
         H            1.919628555408     1.967741155452     3.908547204228     1.007825032230
         H           -1.494191444592     3.065321155452     0.494264204228     1.007825032230
         H            0.209168555408     3.288941155452    -0.066595795772     1.007825032230

  Running in c1 symmetry.

  Rotational constants: A =      0.03614  B =      0.00896  C =      0.00817 [cm^-1]
  Rotational constants: A =   1083.58165  B =    268.57438  C =    245.07118 [MHz]
  Nuclear repulsion =  854.002264234785343

  Charge       = 0
  Multiplicity = 1
  Electrons    = 106
  Nalpha       = 53
  Nbeta        = 53

  ==> Algorithm <==

  SCF Algorithm Type is PK.
  DIIS enabled.
  MOM disabled.
  Fractional occupation disabled.
  Guess Type is SAD.
  Energy threshold   = 1.00e-06
  Density threshold  = 1.00e-10
  Integral threshold = 0.00e+00

  ==> Primary Basis <==

  Basis Set: CC-PVDZ
    Blend: CC-PVDZ
    Number of shells: 141
    Number of basis function: 291
    Number of Cartesian functions: 305
    Spherical Harmonics?: true
    Max angular momentum: 2

  ==> Pre-Iterations <==

   -------------------------------------------------------
    Irrep   Nso     Nmo     Nalpha   Nbeta   Ndocc  Nsocc
   -------------------------------------------------------
     A        291     291       0       0       0       0
   -------------------------------------------------------
    Total     291     291      53      53      53       0
   -------------------------------------------------------

  ==> Integral Setup <==

  Using integral reordering PK algorithm.
  Sizing the integral batches needed.
  Building batch lookup table.
   Calculation information:
      Number of atoms:                  33
      Number of AO shells:             141
      Number of primitives:            403
      Number of atomic orbitals:       305
      Number of basis functions:       291

      Integral cutoff                 1.00e-12
      Number of threads:                 1

	Batch   1 pq = [       0,    9405] index = [             0,44231715] size =     44231715
	Batch   2 pq = [    9405,   13301] index = [      44231715,88464951] size =     44233236
	Batch   3 pq = [   13301,   16290] index = [      88464951,132690195] size =     44225244
	Batch   4 pq = [   16290,   18810] index = [     132690195,176917455] size =     44227260
	Batch   5 pq = [   18810,   21030] index = [     176917455,221140965] size =     44223510
	Batch   6 pq = [   21030,   23037] index = [     221140965,265363203] size =     44222238
	Batch   7 pq = [   23037,   24883] index = [     265363203,309594286] size =     44231083
	Batch   8 pq = [   24883,   26601] index = [     309594286,353819901] size =     44225615
	Batch   9 pq = [   26601,   28214] index = [     353819901,398029005] size =     44209104
	Batch  10 pq = [   28214,   29740] index = [     398029005,442248670] size =     44219665
	Batch  11 pq = [   29740,   31191] index = [     442248670,486454836] size =     44206166
	Batch  12 pq = [   31191,   32578] index = [     486454836,530679331] size =     44224495
	Batch  13 pq = [   32578,   33908] index = [     530679331,574893186] size =     44213855
	Batch  14 pq = [   33908,   35188] index = [     574893186,619115266] size =     44222080
	Batch  15 pq = [   35188,   36423] index = [     619115266,663335676] size =     44220410
	Batch  16 pq = [   36423,   37617] index = [     663335676,707538153] size =     44202477
	Batch  17 pq = [   37617,   38775] index = [     707538153,751769700] size =     44231547
	Batch  18 pq = [   38775,   39899] index = [     751769700,795985050] size =     44215350
	Batch  19 pq = [   39899,   40992] index = [     795985050,840192528] size =     44207478
	Batch  20 pq = [   40992,   42057] index = [     840192528,884416653] size =     44224125
	Batch  21 pq = [   42057,   42486] index = [     884416653,902551341] size =     18134688
  Task number: 82
  Buffer size: 11059200
  Buffer per thread: 2
  We computed 47813323 shell quartets total.
  Whereas there are 50115066 unique shell quartets.

  ==> DiskJK: Disk-Based J/K Matrices <==

    J tasked:                  Yes
    K tasked:                  Yes
    wK tasked:                  No
    Memory [MiB]:              375
    Schwarz Cutoff:          1E-12

    OpenMP threads:              1

  Minimum eigenvalue in the overlap matrix is 2.8499346240E-04.
  Using Symmetric Orthogonalization.

  SCF Guess: Superposition of Atomic Densities via on-the-fly atomic UHF.

  ==> Iterations <==

                        Total Energy        Delta E     RMS |[F,P]|

   @RHF iter SAD:  -594.05970383929889   -5.94060e+02   0.00000e+00
   @RHF iter   1:  -594.27517815886893   -2.15474e-01   2.62134e-03 DIIS
   @RHF iter   2:  -594.56347336623253   -2.88295e-01   1.39909e-03 DIIS
   @RHF iter   3:  -594.63043911140403   -6.69657e-02   3.55530e-04 DIIS
   @RHF iter   4:  -594.63666894667995   -6.22984e-03   1.36738e-04 DIIS
   @RHF iter   5:  -594.63760728409761   -9.38337e-04   2.27734e-05 DIIS
   @RHF iter   6:  -594.63766146102682   -5.41769e-05   1.14124e-05 DIIS
   @RHF iter   7:  -594.63767274932547   -1.12883e-05   4.10422e-06 DIIS
   @RHF iter   8:  -594.63767497873027   -2.22940e-06   1.67465e-06 DIIS
   @RHF iter   9:  -594.63767532614702   -3.47417e-07   5.09255e-07 DIIS
   @RHF iter  10:  -594.63767535214311   -2.59961e-08   1.47283e-07 DIIS
   @RHF iter  11:  -594.63767535468412   -2.54101e-09   5.16338e-08 DIIS
   @RHF iter  12:  -594.63767535490820   -2.24077e-10   2.27225e-08 DIIS
   @RHF iter  13:  -594.63767535495663   -4.84306e-11   7.10789e-09 DIIS
   @RHF iter  14:  -594.63767535497686   -2.02363e-11   2.67661e-09 DIIS
   @RHF iter  15:  -594.63767535496231    1.45519e-11   1.26896e-09 DIIS
   @RHF iter  16:  -594.63767535497516   -1.28466e-11   5.23670e-10 DIIS
   @RHF iter  17:  -594.63767535496527    9.89075e-12   1.93450e-10 DIIS
   @RHF iter  18:  -594.63767535497686   -1.15961e-11   7.69297e-11 DIIS
  Energy and wave function converged.

  ==> Post-Iterations <==

    Orbital Energies [Eh]
    ---------------------

    Doubly Occupied:

       1A    -20.491441     2A    -15.580613     3A    -11.335602
       4A    -11.275256     5A    -11.248562     6A    -11.245594
       7A    -11.241232     8A    -11.240081     9A    -11.239860
      10A    -11.238951    11A    -11.236068    12A    -11.233809
      13A    -11.233115    14A    -11.223277    15A     -1.358628
      16A     -1.256464    17A     -1.164803    18A     -1.072968
      19A     -1.057787    20A     -1.017081    21A     -1.007270
      22A     -0.967900    23A     -0.943336    24A     -0.857564
      25A     -0.835965    26A     -0.802503    27A     -0.759423
      28A     -0.727253    29A     -0.701532    30A     -0.677019
      31A     -0.649682    32A     -0.641658    33A     -0.636123
      34A     -0.615635    35A     -0.597489    36A     -0.587843
      37A     -0.585267    38A     -0.576058    39A     -0.573594
      40A     -0.546393    41A     -0.545675    42A     -0.536654
      43A     -0.530653    44A     -0.524208    45A     -0.498490
      46A     -0.492370    47A     -0.488174    48A     -0.480205
      49A     -0.398173    50A     -0.393068    51A     -0.360522
      52A     -0.341254    53A     -0.331897

    Virtual:

      54A      0.123683    55A      0.138385    56A      0.158899
      57A      0.172598    58A      0.188055    59A      0.196294
      60A      0.203258    61A      0.216126    62A      0.228243
      63A      0.237565    64A      0.240218    65A      0.246306
      66A      0.252562    67A      0.258191    68A      0.271729
      69A      0.276164    70A      0.283836    71A      0.288146
      72A      0.295569    73A      0.317111    74A      0.321900
      75A      0.350478    76A      0.358980    77A      0.363781
      78A      0.400539    79A      0.415475    80A      0.427323
      81A      0.448569    82A      0.458084    83A      0.463646
      84A      0.472430    85A      0.494991    86A      0.509947
      87A      0.519337    88A      0.552001    89A      0.566589
      90A      0.583780    91A      0.591971    92A      0.624762
      93A      0.638694    94A      0.645403    95A      0.660541
      96A      0.676569    97A      0.684799    98A      0.687426
      99A      0.693723   100A      0.697519   101A      0.711150
     102A      0.715481   103A      0.730392   104A      0.738756
     105A      0.742101   106A      0.742270   107A      0.751161
     108A      0.756876   109A      0.762820   110A      0.774618
     111A      0.779198   112A      0.794310   113A      0.818490
     114A      0.835473   115A      0.846386   116A      0.852030
     117A      0.854634   118A      0.860704   119A      0.866910
     120A      0.870362   121A      0.874154   122A      0.884851
     123A      0.890012   124A      0.895826   125A      0.901530
     126A      0.904978   127A      0.919783   128A      0.925056
     129A      0.933706   130A      0.941081   131A      0.955044
     132A      0.965944   133A      0.973152   134A      0.984483
     135A      1.004685   136A      1.017264   137A      1.028342
     138A      1.034322   139A      1.058625   140A      1.067536
     141A      1.079443   142A      1.093469   143A      1.114648
     144A      1.125490   145A      1.137697   146A      1.145378
     147A      1.159534   148A      1.180897   149A      1.187424
     150A      1.192795   151A      1.230133   152A      1.235595
     153A      1.243282   154A      1.254635   155A      1.259322
     156A      1.270267   157A      1.298878   158A      1.303460
     159A      1.326736   160A      1.327519   161A      1.369106
     162A      1.383294   163A      1.398393   164A      1.414955
     165A      1.431922   166A      1.458409   167A      1.468201
     168A      1.493313   169A      1.507011   170A      1.535419
     171A      1.540671   172A      1.544484   173A      1.565195
     174A      1.594348   175A      1.599601   176A      1.605841
     177A      1.625233   178A      1.654100   179A      1.671751
     180A      1.678324   181A      1.682322   182A      1.694152
     183A      1.729204   184A      1.733890   185A      1.756084
     186A      1.760472   187A      1.767408   188A      1.795796
     189A      1.807224   190A      1.817563   191A      1.828872
     192A      1.849890   193A      1.860179   194A      1.878884
     195A      1.888314   196A      1.892158   197A      1.894858
     198A      1.900956   199A      1.906949   200A      1.913113
     201A      1.917246   202A      1.925984   203A      1.933032
     204A      1.940244   205A      1.950873   206A      1.959000
     207A      1.965045   208A      1.972457   209A      1.981776
     210A      1.998278   211A      2.006803   212A      2.027987
     213A      2.028592   214A      2.045781   215A      2.060628
     216A      2.062076   217A      2.074353   218A      2.077485
     219A      2.092850   220A      2.107284   221A      2.120228
     222A      2.134331   223A      2.141064   224A      2.148050
     225A      2.157081   226A      2.167580   227A      2.184796
     228A      2.194741   229A      2.199711   230A      2.222684
     231A      2.233474   232A      2.250026   233A      2.258703
     234A      2.278915   235A      2.280234   236A      2.292634
     237A      2.304515   238A      2.315606   239A      2.321220
     240A      2.346596   241A      2.353986   242A      2.363863
     243A      2.427363   244A      2.442189   245A      2.453933
     246A      2.482920   247A      2.498706   248A      2.511205
     249A      2.512153   250A      2.526970   251A      2.540257
     252A      2.561561   253A      2.625881   254A      2.635960
     255A      2.642176   256A      2.714402   257A      2.729092
     258A      2.749567   259A      2.760348   260A      2.769733
     261A      2.776301   262A      2.786872   263A      2.793765
     264A      2.794924   265A      2.807626   266A      2.832148
     267A      2.834308   268A      2.843788   269A      2.855406
     270A      2.873508   271A      2.878070   272A      2.952325
     273A      2.981692   274A      3.001012   275A      3.020165
     276A      3.022891   277A      3.038041   278A      3.099799
     279A      3.117172   280A      3.161495   281A      3.176805
     282A      3.206193   283A      3.243805   284A      3.306469
     285A      3.348660   286A      3.375844   287A      3.520550
     288A      3.839207   289A      3.908781   290A      3.977327
     291A      5.178287

    Final Occupation by Irrep:
              A
    DOCC [    53 ]

  @RHF Final Energy:  -594.63767535497686

   => Energetics <=

    Nuclear Repulsion Energy =            854.0022642347853434
    One-Electron Energy =               -2500.8758015986850296
    Two-Electron Energy =                1052.2358620089228225
    Total Energy =                       -594.6376753549768637

Computation Completed

Properties will be evaluated at   0.000000,   0.000000,   0.000000 [a0]

Properties computed using the SCF density matrix

  Nuclear Dipole Moment: [e a0]
     X:     5.5878      Y:    -4.6172      Z:     4.4766

  Electronic Dipole Moment: [e a0]
     X:    -5.1525      Y:     2.9603      Z:    -5.1740

  Dipole Moment: [e a0]
     X:     0.4353      Y:    -1.6568      Z:    -0.6973     Total:     1.8495

  Dipole Moment: [D]
     X:     1.1063      Y:    -4.2112      Z:    -1.7725     Total:     4.7011

*** tstop() called on ds3 at Tue Apr 28 10:53:04 2020
Module time:
	user time   =     360.17 seconds =       6.00 minutes
	system time =     142.19 seconds =       2.37 minutes
	total time  =        637 seconds =      10.62 minutes
Total time:
	user time   =     360.17 seconds =       6.00 minutes
	system time =     142.19 seconds =       2.37 minutes
	total time  =        637 seconds =      10.62 minutes
                                     G D M A

                                 by Anthony Stone

                           version 2.2.06, 22 June 2011

               Distributed Multipoles from Gaussian wavefunctions

Starting at 10:53:4 on 28 Apr 2020

Using SCF density matrix from file ./SSI/SSI-013PHE-063PRO-1-dimer.test.12000.fchk

                         Distributed Multipole Analysis

Standard DMA

Positions and radii in angstrom
Multipole moments in atomic units, ea_0^k for rank k

C          x =  1.978699  y = -1.711939  z = -1.761226 angstrom
           Maximum rank =  0   Radius =  0.650 angstrom
                   Q00  =  -0.214618

C          x = -0.498301  y = -1.742939  z = -1.249226 angstrom
           Maximum rank =  0   Radius =  0.650 angstrom
                   Q00  =  -0.051286

C          x =  0.530699  y = -1.670939  z = -2.188226 angstrom
           Maximum rank =  0   Radius =  0.650 angstrom
                   Q00  =  -0.095501

C          x = -1.852301  y = -1.685939  z = -1.651226 angstrom
           Maximum rank =  0   Radius =  0.650 angstrom
                   Q00  =  -0.074980

C          x = -2.175301  y = -1.603939  z = -2.960226 angstrom
           Maximum rank =  0   Radius =  0.650 angstrom
                   Q00  =  -0.079153

C          x =  0.175699  y = -1.589939  z = -3.521226 angstrom
           Maximum rank =  0   Radius =  0.650 angstrom
                   Q00  =  -0.093148

C          x = -1.155301  y = -1.539939  z = -3.900226 angstrom
           Maximum rank =  0   Radius =  0.650 angstrom
                   Q00  =   0.002186

H          x = -0.261301  y = -1.841939  z = -0.200226 angstrom
           Maximum rank =  0   Radius =  0.325 angstrom
                   Q00  =   0.053003

H          x = -2.636301  y = -1.734939  z = -0.906226 angstrom
           Maximum rank =  0   Radius =  0.325 angstrom
                   Q00  =   0.060815

H          x =  2.136699  y = -0.953939  z = -0.994226 angstrom
           Maximum rank =  0   Radius =  0.325 angstrom
                   Q00  =   0.098282

H          x =  2.591699  y = -1.447939  z = -2.618226 angstrom
           Maximum rank =  0   Radius =  0.325 angstrom
                   Q00  =   0.102598

H          x = -3.210301  y = -1.578939  z = -3.272226 angstrom
           Maximum rank =  0   Radius =  0.325 angstrom
                   Q00  =   0.061202

H          x =  0.942699  y = -1.548939  z = -4.282226 angstrom
           Maximum rank =  0   Radius =  0.325 angstrom
                   Q00  =   0.057636

H          x = -1.412301  y = -1.471939  z = -4.946226 angstrom
           Maximum rank =  0   Radius =  0.325 angstrom
                   Q00  =   0.064851

H          x =  2.318059  y = -2.686109  z = -1.379356 angstrom
           Maximum rank =  0   Radius =  0.325 angstrom
                   Q00  =   0.106607

C          x =  0.567699  y =  0.144061  z =  1.631774 angstrom
           Maximum rank =  0   Radius =  0.650 angstrom
                   Q00  =   0.000015

C          x =  0.834699  y = -0.906939  z =  2.676774 angstrom
           Maximum rank =  0   Radius =  0.650 angstrom
                   Q00  =  -0.233694

C          x =  1.098699  y =  1.263061  z =  3.709774 angstrom
           Maximum rank =  0   Radius =  0.650 angstrom
                   Q00  =  -0.101500

C          x = -0.479301  y =  2.641061  z =  0.495774 angstrom
           Maximum rank =  0   Radius =  0.650 angstrom
                   Q00  =  -0.258490

C          x =  0.002699  y =  2.531061  z =  1.948774 angstrom
           Maximum rank =  0   Radius =  0.650 angstrom
                   Q00  =   0.733154

O          x = -0.161301  y =  3.483061  z =  2.718774 angstrom
           Maximum rank =  0   Radius =  0.650 angstrom
                   Q00  =  -0.794094

N          x =  0.587699  y =  1.410061  z =  2.351774 angstrom
           Maximum rank =  0   Radius =  0.650 angstrom
                   Q00  =  -0.445816

H          x =  1.346699  y =  0.132061  z =  0.873774 angstrom
           Maximum rank =  0   Radius =  0.325 angstrom
                   Q00  =   0.062571

H          x = -0.407301  y = -0.045939  z =  1.182774 angstrom
           Maximum rank =  0   Radius =  0.325 angstrom
                   Q00  =   0.083203

H          x =  1.384699  y = -1.753939  z =  2.272774 angstrom
           Maximum rank =  0   Radius =  0.325 angstrom
                   Q00  =   0.090122

H          x = -0.113301  y = -1.239939  z =  3.101774 angstrom
           Maximum rank =  0   Radius =  0.325 angstrom
                   Q00  =   0.099691

H          x =  0.280699  y =  1.384061  z =  4.419774 angstrom
           Maximum rank =  0   Radius =  0.325 angstrom
                   Q00  =   0.107016

H          x = -0.505301  y =  1.664061  z =  0.022774 angstrom
           Maximum rank =  0   Radius =  0.325 angstrom
                   Q00  =   0.088750

H          x =  1.405899  y = -0.363049  z =  3.443533 angstrom
           Maximum rank =  0   Radius =  0.325 angstrom
                   Q00  =   0.113014

H          x =  1.467519  y =  0.226741  z =  3.714113 angstrom
           Maximum rank =  0   Radius =  0.325 angstrom
                   Q00  =   0.094923

H          x =  1.919629  y =  1.967741  z =  3.908547 angstrom
           Maximum rank =  0   Radius =  0.325 angstrom
                   Q00  =   0.104495

H          x = -1.494191  y =  3.065321  z =  0.494264 angstrom
           Maximum rank =  0   Radius =  0.325 angstrom
                   Q00  =   0.126881

H          x =  0.209169  y =  3.288941  z = -0.066596 angstrom
           Maximum rank =  0   Radius =  0.325 angstrom
                   Q00  =   0.131265

Total multipoles referred to origin at
           x =   0.000000,  y =    0.000000,  z =    0.000000 angstrom
                   Q00  =  -0.000000

Finished at 10:53:4 on 28 Apr 2020

  DMA results are available in the Python driver through the
	  variable('DMA DISTRIBUTED MULTIPOLES')
  and
	  variable('DMA TOTAL MULTIPOLES')
  commands.

    Psi4 stopped on: Tuesday, 28 April 2020 10:53AM
    Psi4 wall time for execution: 0:10:37.33

*** Psi4 exiting successfully. Buy a developer a beer!
