                               Psi4 1.3.2 release

  ==> Input File <==

--------------------------------------------------------------------------
import numpy as np
set {scf_type pk
basis cc-pvdz
d_convergence 10
gdma_switch   0
gdma_limit    0
gdma_origin   [ 0.0,  0.0,  0.0 ]
}
molecule test {
    units Angstrom
    0 1
    --
    0 1
    C               -0.386885277188172     2.215465946772794     2.322694125348303
    C               -1.007885277188172     0.940465946772794     1.886694125348303
    C               -2.111885277188172     1.028465946772794     1.048694125348303
    C               -0.538885277188172    -0.292534053227206     2.297694125348303
    C               -2.769885277188171    -0.080534053227206     0.596694125348303
    C               -1.202885277188172    -1.440534053227206     1.819694125348303
    C               -2.334885277188171    -1.320534053227207     0.975694125348303
    O               -2.951885277188171    -2.449534053227207     0.518694125348303
    H               -0.603885277188172     2.979465946772794     1.575694125348303
    H                0.694114722811828     2.106465946772794     2.334694125348303
    H               -2.470885277188171     2.000465946772794     0.739694125348303
    H                0.320114722811828    -0.375534053227206     2.948694125348303
    H               -3.636885277188171     0.019465946772794    -0.035305874651697
    H               -0.860885277188172    -2.423534053227206     2.104694125348303
    H               -3.766885277188172    -2.189534053227206     0.041694125348303
    H               -0.757384277188172     2.565225946772794     3.297574125348303
    C                0.964114722811828    -1.242534053227206    -3.323305874651697
    C                2.046114722811828     0.278465946772794     0.013694125348303
    C                1.459114722811828    -0.585534053227206    -0.923305874651697
    C                2.762114722811829     1.376465946772794    -0.419305874651697
    C                1.586114722811828    -0.355534053227206    -2.288305874651697
    C                2.883114722811829     1.623465946772794    -1.774305874651697
    C                2.319114722811829     0.747465946772794    -2.691305874651697
    H                1.949114722811828     0.081465946772794     1.070694125348303
    H                0.896114722811828    -1.438534053227206    -0.572305874651697
    H                3.218114722811829     2.044465946772794     0.295694125348303
    H                3.432114722811829     2.488465946772794    -2.120305874651697
    H                0.636114722811828    -0.626534053227206    -4.162305874651697
    H                0.092114722811828    -1.704534053227206    -2.861305874651697
    H                2.428114722811828     0.952465946772794    -3.743305874651697
    H                1.621688722811828    -2.044645053227206    -3.689655874651697

}
e, wfn = energy('scf', return_wfn=True)
gdma(wfn)
dmavals = variable('DMA DISTRIBUTED MULTIPOLES')
charges = np.array(dmavals)
print(charges)
np.save('SSI-062TYR-077PHE-1-dimer.npy', np.array(charges))--------------------------------------------------------------------------

*** tstart() called on ds3
*** at Sun Apr 26 21:03:51 2020

   => Loading Basis Set <=

    Name: CC-PVDZ
    Role: ORBITAL
    Keyword: BASIS
    atoms 1-7, 17-23  entry C          line   138 file /theoryfs2/ds/metcalf/miniconda2/envs/tf2gpu/share/psi4/basis/cc-pvdz.gbs
    atoms 8           entry O          line   198 file /theoryfs2/ds/metcalf/miniconda2/envs/tf2gpu/share/psi4/basis/cc-pvdz.gbs
    atoms 9-16, 24-31 entry H          line    22 file /theoryfs2/ds/metcalf/miniconda2/envs/tf2gpu/share/psi4/basis/cc-pvdz.gbs

         ---------------------------------------------------------
                                   SCF
               by Justin Turney, Rob Parrish, Andy Simmonett
                          and Daniel G. A. Smith
                              RHF Reference
                        1 Threads,    500 MiB Core
         ---------------------------------------------------------

  ==> Geometry <==

    Molecular point group: c1
    Full point group: C1

    Geometry (in Angstrom), charge = 0, multiplicity = 1:

       Center              X                  Y                   Z               Mass
    ------------   -----------------  -----------------  -----------------  -----------------
         C           -0.386885277188     2.215465946773     2.322694125348    12.000000000000
         C           -1.007885277188     0.940465946773     1.886694125348    12.000000000000
         C           -2.111885277188     1.028465946773     1.048694125348    12.000000000000
         C           -0.538885277188    -0.292534053227     2.297694125348    12.000000000000
         C           -2.769885277188    -0.080534053227     0.596694125348    12.000000000000
         C           -1.202885277188    -1.440534053227     1.819694125348    12.000000000000
         C           -2.334885277188    -1.320534053227     0.975694125348    12.000000000000
         O           -2.951885277188    -2.449534053227     0.518694125348    15.994914619570
         H           -0.603885277188     2.979465946773     1.575694125348     1.007825032230
         H            0.694114722812     2.106465946773     2.334694125348     1.007825032230
         H           -2.470885277188     2.000465946773     0.739694125348     1.007825032230
         H            0.320114722812    -0.375534053227     2.948694125348     1.007825032230
         H           -3.636885277188     0.019465946773    -0.035305874652     1.007825032230
         H           -0.860885277188    -2.423534053227     2.104694125348     1.007825032230
         H           -3.766885277188    -2.189534053227     0.041694125348     1.007825032230
         H           -0.757384277188     2.565225946773     3.297574125348     1.007825032230
         C            0.964114722812    -1.242534053227    -3.323305874652    12.000000000000
         C            2.046114722812     0.278465946773     0.013694125348    12.000000000000
         C            1.459114722812    -0.585534053227    -0.923305874652    12.000000000000
         C            2.762114722812     1.376465946773    -0.419305874652    12.000000000000
         C            1.586114722812    -0.355534053227    -2.288305874652    12.000000000000
         C            2.883114722812     1.623465946773    -1.774305874652    12.000000000000
         C            2.319114722812     0.747465946773    -2.691305874652    12.000000000000
         H            1.949114722812     0.081465946773     1.070694125348     1.007825032230
         H            0.896114722812    -1.438534053227    -0.572305874652     1.007825032230
         H            3.218114722812     2.044465946773     0.295694125348     1.007825032230
         H            3.432114722812     2.488465946773    -2.120305874652     1.007825032230
         H            0.636114722812    -0.626534053227    -4.162305874652     1.007825032230
         H            0.092114722812    -1.704534053227    -2.861305874652     1.007825032230
         H            2.428114722812     0.952465946773    -3.743305874652     1.007825032230
         H            1.621688722812    -2.044645053227    -3.689655874652     1.007825032230

  Running in c1 symmetry.

  Rotational constants: A =      0.02676  B =      0.01235  C =      0.00970 [cm^-1]
  Rotational constants: A =    802.28566  B =    370.30246  C =    290.90272 [MHz]
  Nuclear repulsion =  907.270552286781026

  Charge       = 0
  Multiplicity = 1
  Electrons    = 108
  Nalpha       = 54
  Nbeta        = 54

  ==> Algorithm <==

  SCF Algorithm Type is PK.
  DIIS enabled.
  MOM disabled.
  Fractional occupation disabled.
  Guess Type is SAD.
  Energy threshold   = 1.00e-06
  Density threshold  = 1.00e-10
  Integral threshold = 0.00e+00

  ==> Primary Basis <==

  Basis Set: CC-PVDZ
    Blend: CC-PVDZ
    Number of shells: 138
    Number of basis function: 290
    Number of Cartesian functions: 305
    Spherical Harmonics?: true
    Max angular momentum: 2

  ==> Pre-Iterations <==

   -------------------------------------------------------
    Irrep   Nso     Nmo     Nalpha   Nbeta   Ndocc  Nsocc
   -------------------------------------------------------
     A        290     290       0       0       0       0
   -------------------------------------------------------
    Total     290     290      54      54      54       0
   -------------------------------------------------------

  ==> Integral Setup <==

  Using integral reordering PK algorithm.
  Sizing the integral batches needed.
  Building batch lookup table.
   Calculation information:
      Number of atoms:                  31
      Number of AO shells:             138
      Number of primitives:            410
      Number of atomic orbitals:       305
      Number of basis functions:       290

      Integral cutoff                 1.00e-12
      Number of threads:                 1

	Batch   1 pq = [       0,    9405] index = [             0,44231715] size =     44231715
	Batch   2 pq = [    9405,   13301] index = [      44231715,88464951] size =     44233236
	Batch   3 pq = [   13301,   16290] index = [      88464951,132690195] size =     44225244
	Batch   4 pq = [   16290,   18810] index = [     132690195,176917455] size =     44227260
	Batch   5 pq = [   18810,   21030] index = [     176917455,221140965] size =     44223510
	Batch   6 pq = [   21030,   23037] index = [     221140965,265363203] size =     44222238
	Batch   7 pq = [   23037,   24883] index = [     265363203,309594286] size =     44231083
	Batch   8 pq = [   24883,   26601] index = [     309594286,353819901] size =     44225615
	Batch   9 pq = [   26601,   28214] index = [     353819901,398029005] size =     44209104
	Batch  10 pq = [   28214,   29740] index = [     398029005,442248670] size =     44219665
	Batch  11 pq = [   29740,   31191] index = [     442248670,486454836] size =     44206166
	Batch  12 pq = [   31191,   32578] index = [     486454836,530679331] size =     44224495
	Batch  13 pq = [   32578,   33908] index = [     530679331,574893186] size =     44213855
	Batch  14 pq = [   33908,   35188] index = [     574893186,619115266] size =     44222080
	Batch  15 pq = [   35188,   36423] index = [     619115266,663335676] size =     44220410
	Batch  16 pq = [   36423,   37617] index = [     663335676,707538153] size =     44202477
	Batch  17 pq = [   37617,   38775] index = [     707538153,751769700] size =     44231547
	Batch  18 pq = [   38775,   39899] index = [     751769700,795985050] size =     44215350
	Batch  19 pq = [   39899,   40992] index = [     795985050,840192528] size =     44207478
	Batch  20 pq = [   40992,   42057] index = [     840192528,884416653] size =     44224125
	Batch  21 pq = [   42057,   42195] index = [     884416653,890230110] size =      5813457
  Task number: 81
  Buffer size: 11059200
  Buffer per thread: 2
  We computed 47963285 shell quartets total.
  Whereas there are 45998436 unique shell quartets.
     4.27 percent of shell quartets recomputed by reordering.

  ==> DiskJK: Disk-Based J/K Matrices <==

    J tasked:                  Yes
    K tasked:                  Yes
    wK tasked:                  No
    Memory [MiB]:              375
    Schwarz Cutoff:          1E-12

    OpenMP threads:              1

  Minimum eigenvalue in the overlap matrix is 2.9096338971E-04.
  Using Symmetric Orthogonalization.

  SCF Guess: Superposition of Atomic Densities via on-the-fly atomic UHF.

  ==> Iterations <==

                        Total Energy        Delta E     RMS |[F,P]|

   @RHF iter SAD:  -613.37951426078780   -6.13380e+02   0.00000e+00
   @RHF iter   1:  -614.04547406082577   -6.65960e-01   2.41220e-03 DIIS
   @RHF iter   2:  -614.32617560539347   -2.80702e-01   1.02930e-03 DIIS
   @RHF iter   3:  -614.37141449234559   -4.52389e-02   2.44055e-04 DIIS
   @RHF iter   4:  -614.37520276252940   -3.78827e-03   9.76465e-05 DIIS
   @RHF iter   5:  -614.37567461698586   -4.71854e-04   1.76936e-05 DIIS
   @RHF iter   6:  -614.37569694170986   -2.23247e-05   6.07436e-06 DIIS
   @RHF iter   7:  -614.37569951640705   -2.57470e-06   1.74421e-06 DIIS
   @RHF iter   8:  -614.37569982726200   -3.10855e-07   7.22043e-07 DIIS
   @RHF iter   9:  -614.37569987851202   -5.12500e-08   2.71438e-07 DIIS
   @RHF iter  10:  -614.37569988818120   -9.66918e-09   1.07312e-07 DIIS
   @RHF iter  11:  -614.37569989067003   -2.48883e-09   5.12261e-08 DIIS
   @RHF iter  12:  -614.37569989128679   -6.16751e-10   2.48051e-08 DIIS
   @RHF iter  13:  -614.37569989141116   -1.24373e-10   7.21897e-09 DIIS
   @RHF iter  14:  -614.37569989142798   -1.68257e-11   2.13330e-09 DIIS
   @RHF iter  15:  -614.37569989142526    2.72848e-12   7.46686e-10 DIIS
   @RHF iter  16:  -614.37569989142730   -2.04636e-12   3.15995e-10 DIIS
   @RHF iter  17:  -614.37569989142128    6.02540e-12   1.58540e-10 DIIS
   @RHF iter  18:  -614.37569989142639   -5.11591e-12   7.19813e-11 DIIS
  Energy and wave function converged.

  ==> Post-Iterations <==

    Orbital Energies [Eh]
    ---------------------

    Doubly Occupied:

       1A    -20.586016     2A    -11.298200     3A    -11.239969
       4A    -11.234816     5A    -11.232559     6A    -11.232047
       7A    -11.228395     8A    -11.228323     9A    -11.228091
      10A    -11.227675    11A    -11.224494    12A    -11.223789
      13A    -11.223606    14A    -11.222179    15A    -11.221711
      16A     -1.397964    17A     -1.155369    18A     -1.149611
      19A     -1.043396    20A     -1.041784    21A     -1.019240
      22A     -1.003905    23A     -0.927977    24A     -0.924041
      25A     -0.845989    26A     -0.821070    27A     -0.800533
      28A     -0.789467    29A     -0.728975    30A     -0.686875
      31A     -0.673554    32A     -0.641461    33A     -0.627824
      34A     -0.624243    35A     -0.604796    36A     -0.590825
      37A     -0.587368    38A     -0.575181    39A     -0.572993
      40A     -0.571236    41A     -0.569032    42A     -0.558643
      43A     -0.531699    44A     -0.522111    45A     -0.496349
      46A     -0.487774    47A     -0.483453    48A     -0.478835
      49A     -0.475623    50A     -0.467714    51A     -0.341784
      52A     -0.323659    53A     -0.319428    54A     -0.299732

    Virtual:

      55A      0.127733    56A      0.142365    57A      0.147418
      58A      0.156034    59A      0.175157    60A      0.178931
      61A      0.196129    62A      0.207427    63A      0.212087
      64A      0.221057    65A      0.241951    66A      0.245612
      67A      0.259822    68A      0.260613    69A      0.265988
      70A      0.282417    71A      0.292932    72A      0.298065
      73A      0.309126    74A      0.332355    75A      0.369017
      76A      0.375666    77A      0.379143    78A      0.386341
      79A      0.428028    80A      0.449633    81A      0.463550
      82A      0.474447    83A      0.481604    84A      0.487670
      85A      0.497922    86A      0.502485    87A      0.515319
      88A      0.569143    89A      0.597724    90A      0.610069
      91A      0.624514    92A      0.638175    93A      0.651717
      94A      0.666179    95A      0.679410    96A      0.682016
      97A      0.684675    98A      0.697179    99A      0.701379
     100A      0.711710   101A      0.722230   102A      0.723667
     103A      0.735934   104A      0.738382   105A      0.744475
     106A      0.749641   107A      0.754142   108A      0.765495
     109A      0.772446   110A      0.777979   111A      0.778944
     112A      0.789930   113A      0.798653   114A      0.810444
     115A      0.828100   116A      0.833156   117A      0.847352
     118A      0.849405   119A      0.857844   120A      0.873036
     121A      0.876047   122A      0.879215   123A      0.884191
     124A      0.889017   125A      0.896390   126A      0.901867
     127A      0.908279   128A      0.921170   129A      0.926283
     130A      0.934962   131A      0.944654   132A      0.947293
     133A      0.956392   134A      0.967550   135A      0.985358
     136A      0.989943   137A      1.003528   138A      1.020888
     139A      1.025081   140A      1.029553   141A      1.058842
     142A      1.066933   143A      1.111514   144A      1.137766
     145A      1.144607   146A      1.149164   147A      1.150911
     148A      1.162380   149A      1.174561   150A      1.188168
     151A      1.194594   152A      1.211439   153A      1.242220
     154A      1.244537   155A      1.250925   156A      1.259773
     157A      1.266846   158A      1.276652   159A      1.285038
     160A      1.286408   161A      1.306110   162A      1.312728
     163A      1.317683   164A      1.319229   165A      1.329109
     166A      1.335893   167A      1.354717   168A      1.363481
     169A      1.371463   170A      1.393220   171A      1.422666
     172A      1.466298   173A      1.501976   174A      1.524153
     175A      1.529534   176A      1.546104   177A      1.559522
     178A      1.575725   179A      1.610172   180A      1.611512
     181A      1.618771   182A      1.678899   183A      1.692952
     184A      1.707796   185A      1.709869   186A      1.738301
     187A      1.746443   188A      1.752323   189A      1.759885
     190A      1.773756   191A      1.789985   192A      1.796338
     193A      1.810597   194A      1.817804   195A      1.828970
     196A      1.869019   197A      1.877090   198A      1.892216
     199A      1.893635   200A      1.900536   201A      1.906939
     202A      1.909904   203A      1.918254   204A      1.924426
     205A      1.927135   206A      1.935168   207A      1.942812
     208A      1.952664   209A      1.960081   210A      1.964534
     211A      1.981197   212A      1.982493   213A      1.987184
     214A      1.995615   215A      2.004253   216A      2.014698
     217A      2.046634   218A      2.048399   219A      2.057766
     220A      2.061080   221A      2.069344   222A      2.079024
     223A      2.081641   224A      2.095259   225A      2.123320
     226A      2.146258   227A      2.154586   228A      2.156875
     229A      2.167275   230A      2.174086   231A      2.180990
     232A      2.193601   233A      2.199637   234A      2.213233
     235A      2.237723   236A      2.259744   237A      2.276714
     238A      2.283456   239A      2.292097   240A      2.303910
     241A      2.310075   242A      2.315368   243A      2.326792
     244A      2.337943   245A      2.350635   246A      2.375201
     247A      2.429804   248A      2.441835   249A      2.473746
     250A      2.492121   251A      2.493619   252A      2.499772
     253A      2.510476   254A      2.544540   255A      2.551661
     256A      2.560501   257A      2.616363   258A      2.631462
     259A      2.645404   260A      2.750737   261A      2.760547
     262A      2.772229   263A      2.776634   264A      2.785018
     265A      2.802471   266A      2.808557   267A      2.821758
     268A      2.838167   269A      2.855073   270A      2.862275
     271A      2.884283   272A      2.919996   273A      2.971805
     274A      2.997369   275A      3.012834   276A      3.021920
     277A      3.040809   278A      3.094870   279A      3.143540
     280A      3.167216   281A      3.219467   282A      3.258346
     283A      3.296451   284A      3.316455   285A      3.331704
     286A      3.584161   287A      3.685573   288A      3.969068
     289A      3.987580   290A      4.166352

    Final Occupation by Irrep:
              A
    DOCC [    54 ]

  @RHF Final Energy:  -614.37569989142639

   => Energetics <=

    Nuclear Repulsion Energy =            907.2705522867810259
    One-Electron Energy =               -2634.0657454008273817
    Two-Electron Energy =                1112.4194932226200763
    Total Energy =                       -614.3756998914263932

Computation Completed

Properties will be evaluated at   0.000000,   0.000000,   0.000000 [a0]

Properties computed using the SCF density matrix

  Nuclear Dipole Moment: [e a0]
     X:     2.9772      Y:     4.1460      Z:    -2.5993

  Electronic Dipole Moment: [e a0]
     X:    -3.4434      Y:    -3.7286      Z:     2.3827

  Dipole Moment: [e a0]
     X:    -0.4662      Y:     0.4175      Z:    -0.2166     Total:     0.6622

  Dipole Moment: [D]
     X:    -1.1849      Y:     1.0611      Z:    -0.5505     Total:     1.6831

*** tstop() called on ds3 at Sun Apr 26 21:17:54 2020
Module time:
	user time   =     401.11 seconds =       6.69 minutes
	system time =     137.32 seconds =       2.29 minutes
	total time  =        843 seconds =      14.05 minutes
Total time:
	user time   =     401.11 seconds =       6.69 minutes
	system time =     137.32 seconds =       2.29 minutes
	total time  =        843 seconds =      14.05 minutes
                                     G D M A

                                 by Anthony Stone

                           version 2.2.06, 22 June 2011

               Distributed Multipoles from Gaussian wavefunctions

Starting at 21:17:55 on 26 Apr 2020

Using SCF density matrix from file ./SSI/SSI-062TYR-077PHE-1-dimer.test.10914.fchk

                         Distributed Multipole Analysis

Standard DMA

Positions and radii in angstrom
Multipole moments in atomic units, ea_0^k for rank k

C          x = -0.386885  y =  2.215466  z =  2.322694 angstrom
           Maximum rank =  0   Radius =  0.650 angstrom
                   Q00  =  -0.193121

C          x = -1.007885  y =  0.940466  z =  1.886694 angstrom
           Maximum rank =  0   Radius =  0.650 angstrom
                   Q00  =  -0.101568

C          x = -2.111885  y =  1.028466  z =  1.048694 angstrom
           Maximum rank =  0   Radius =  0.650 angstrom
                   Q00  =   0.063976

C          x = -0.538885  y = -0.292534  z =  2.297694 angstrom
           Maximum rank =  0   Radius =  0.650 angstrom
                   Q00  =  -0.067339

C          x = -2.769885  y = -0.080534  z =  0.596694 angstrom
           Maximum rank =  0   Radius =  0.650 angstrom
                   Q00  =  -0.195774

C          x = -1.202885  y = -1.440534  z =  1.819694 angstrom
           Maximum rank =  0   Radius =  0.650 angstrom
                   Q00  =  -0.119829

C          x = -2.334885  y = -1.320534  z =  0.975694 angstrom
           Maximum rank =  0   Radius =  0.650 angstrom
                   Q00  =   0.315864

O          x = -2.951885  y = -2.449534  z =  0.518694 angstrom
           Maximum rank =  0   Radius =  0.650 angstrom
                   Q00  =  -0.676016

H          x = -0.603885  y =  2.979466  z =  1.575694 angstrom
           Maximum rank =  0   Radius =  0.325 angstrom
                   Q00  =   0.094712

H          x =  0.694115  y =  2.106466  z =  2.334694 angstrom
           Maximum rank =  0   Radius =  0.325 angstrom
                   Q00  =   0.091963

H          x = -2.470885  y =  2.000466  z =  0.739694 angstrom
           Maximum rank =  0   Radius =  0.325 angstrom
                   Q00  =   0.064092

H          x =  0.320115  y = -0.375534  z =  2.948694 angstrom
           Maximum rank =  0   Radius =  0.325 angstrom
                   Q00  =   0.066730

H          x = -3.636885  y =  0.019466  z = -0.035306 angstrom
           Maximum rank =  0   Radius =  0.325 angstrom
                   Q00  =   0.068717

H          x = -0.860885  y = -2.423534  z =  2.104694 angstrom
           Maximum rank =  0   Radius =  0.325 angstrom
                   Q00  =   0.081933

H          x = -3.766885  y = -2.189534  z =  0.041694 angstrom
           Maximum rank =  0   Radius =  0.325 angstrom
                   Q00  =   0.407324

H          x = -0.757384  y =  2.565226  z =  3.297574 angstrom
           Maximum rank =  0   Radius =  0.325 angstrom
                   Q00  =   0.095648

C          x =  0.964115  y = -1.242534  z = -3.323306 angstrom
           Maximum rank =  0   Radius =  0.650 angstrom
                   Q00  =  -0.205020

C          x =  2.046115  y =  0.278466  z =  0.013694 angstrom
           Maximum rank =  0   Radius =  0.650 angstrom
                   Q00  =  -0.070970

C          x =  1.459115  y = -0.585534  z = -0.923306 angstrom
           Maximum rank =  0   Radius =  0.650 angstrom
                   Q00  =  -0.045913

C          x =  2.762115  y =  1.376466  z = -0.419306 angstrom
           Maximum rank =  0   Radius =  0.650 angstrom
                   Q00  =  -0.098489

C          x =  1.586115  y = -0.355534  z = -2.288306 angstrom
           Maximum rank =  0   Radius =  0.650 angstrom
                   Q00  =  -0.101800

C          x =  2.883115  y =  1.623466  z = -1.774306 angstrom
           Maximum rank =  0   Radius =  0.650 angstrom
                   Q00  =  -0.058031

C          x =  2.319115  y =  0.747466  z = -2.691306 angstrom
           Maximum rank =  0   Radius =  0.650 angstrom
                   Q00  =  -0.004953

H          x =  1.949115  y =  0.081466  z =  1.070694 angstrom
           Maximum rank =  0   Radius =  0.325 angstrom
                   Q00  =   0.058655

H          x =  0.896115  y = -1.438534  z = -0.572306 angstrom
           Maximum rank =  0   Radius =  0.325 angstrom
                   Q00  =   0.064237

H          x =  3.218115  y =  2.044466  z =  0.295694 angstrom
           Maximum rank =  0   Radius =  0.325 angstrom
                   Q00  =   0.054357

H          x =  3.432115  y =  2.488466  z = -2.120306 angstrom
           Maximum rank =  0   Radius =  0.325 angstrom
                   Q00  =   0.059911

H          x =  0.636115  y = -0.626534  z = -4.162306 angstrom
           Maximum rank =  0   Radius =  0.325 angstrom
                   Q00  =   0.096923

H          x =  0.092115  y = -1.704534  z = -2.861306 angstrom
           Maximum rank =  0   Radius =  0.325 angstrom
                   Q00  =   0.099734

H          x =  2.428115  y =  0.952466  z = -3.743306 angstrom
           Maximum rank =  0   Radius =  0.325 angstrom
                   Q00  =   0.049223

H          x =  1.621689  y = -2.044645  z = -3.689656 angstrom
           Maximum rank =  0   Radius =  0.325 angstrom
                   Q00  =   0.104823

Total multipoles referred to origin at
           x =   0.000000,  y =    0.000000,  z =    0.000000 angstrom
                   Q00  =  -0.000000

Finished at 21:17:55 on 26 Apr 2020

  DMA results are available in the Python driver through the
	  variable('DMA DISTRIBUTED MULTIPOLES')
  and
	  variable('DMA TOTAL MULTIPOLES')
  commands.

    Psi4 stopped on: Sunday, 26 April 2020 09:17PM
    Psi4 wall time for execution: 0:14:03.57

*** Psi4 exiting successfully. Buy a developer a beer!
