                               Psi4 1.3.2 release

  ==> Input File <==

--------------------------------------------------------------------------
import numpy as np
set {scf_type pk
basis cc-pvdz
d_convergence 10
gdma_switch   0
gdma_limit    0
gdma_origin   [ 0.0,  0.0,  0.0 ]
}
molecule test {
    units Angstrom
    0 1
    --
    0 1
    C                0.391263125493191     2.000509838920525     0.471194906251645
    C                1.763263125493191     2.416509838920526    -0.032805093748355
    C               -0.208736874506809     2.964509838920526     1.487194906251645
    H               -0.296736874506809     1.900509838920525    -0.368805093748355
    H                0.479263125493191     1.026509838920525     0.953194906251645
    H                2.138263125493191     1.588509838920525    -0.637805093748355
    H               -0.266736874506809     3.972509838920525     1.076194906251645
    H               -1.219736874506809     2.635509838920525     1.725194906251645
    H                0.366263125493191     2.972509838920526     2.413194906251645
    H                1.751053125493191     3.345599838920525    -0.621565093748355
    H                2.434663125493191     2.560119838920525     0.826613906251645
    C               -0.506736874506809    -1.430490161079475    -0.429805093748355
    C               -0.745736874506809    -2.093490161079475     0.939194906251645
    C                0.887263125493191    -1.767490161079475    -0.936805093748355
    O               -1.441736874506809    -1.961490161079475    -1.371805093748355
    H               -0.629736874506809    -0.353490161079475    -0.365805093748355
    H                0.108263125493191    -1.843490161079475     1.569194906251645
    H                0.980263125493191    -2.843490161079475    -1.087805093748355
    H                1.057263125493191    -1.254490161079475    -1.881805093748355
    H                1.638263125493191    -1.433490161079475    -0.222805093748355
    H               -2.005736874506809    -1.227490161079475    -1.701805093748355
    H               -0.849776874506809    -3.185570161079474     0.858355906251645
    H               -1.623366874506809    -1.615970161079475     1.399351906251645

}
e, wfn = energy('scf', return_wfn=True)
gdma(wfn)
dmavals = variable('DMA DISTRIBUTED MULTIPOLES')
charges = np.array(dmavals)
print(charges)
np.save('SSI-144ILE-155THR-1-dimer.npy', np.array(charges))--------------------------------------------------------------------------

*** tstart() called on ds3
*** at Mon Apr 27 05:41:22 2020

   => Loading Basis Set <=

    Name: CC-PVDZ
    Role: ORBITAL
    Keyword: BASIS
    atoms 1-3, 12-14  entry C          line   138 file /theoryfs2/ds/metcalf/miniconda2/envs/tf2gpu/share/psi4/basis/cc-pvdz.gbs
    atoms 4-11, 16-23 entry H          line    22 file /theoryfs2/ds/metcalf/miniconda2/envs/tf2gpu/share/psi4/basis/cc-pvdz.gbs
    atoms 15          entry O          line   198 file /theoryfs2/ds/metcalf/miniconda2/envs/tf2gpu/share/psi4/basis/cc-pvdz.gbs

         ---------------------------------------------------------
                                   SCF
               by Justin Turney, Rob Parrish, Andy Simmonett
                          and Daniel G. A. Smith
                              RHF Reference
                        1 Threads,    500 MiB Core
         ---------------------------------------------------------

  ==> Geometry <==

    Molecular point group: c1
    Full point group: C1

    Geometry (in Angstrom), charge = 0, multiplicity = 1:

       Center              X                  Y                   Z               Mass
    ------------   -----------------  -----------------  -----------------  -----------------
         C            0.391263125493     2.000509838921     0.471194906252    12.000000000000
         C            1.763263125493     2.416509838921    -0.032805093748    12.000000000000
         C           -0.208736874507     2.964509838921     1.487194906252    12.000000000000
         H           -0.296736874507     1.900509838921    -0.368805093748     1.007825032230
         H            0.479263125493     1.026509838921     0.953194906252     1.007825032230
         H            2.138263125493     1.588509838921    -0.637805093748     1.007825032230
         H           -0.266736874507     3.972509838921     1.076194906252     1.007825032230
         H           -1.219736874507     2.635509838921     1.725194906252     1.007825032230
         H            0.366263125493     2.972509838921     2.413194906252     1.007825032230
         H            1.751053125493     3.345599838921    -0.621565093748     1.007825032230
         H            2.434663125493     2.560119838921     0.826613906252     1.007825032230
         C           -0.506736874507    -1.430490161079    -0.429805093748    12.000000000000
         C           -0.745736874507    -2.093490161079     0.939194906252    12.000000000000
         C            0.887263125493    -1.767490161079    -0.936805093748    12.000000000000
         O           -1.441736874507    -1.961490161079    -1.371805093748    15.994914619570
         H           -0.629736874507    -0.353490161079    -0.365805093748     1.007825032230
         H            0.108263125493    -1.843490161079     1.569194906252     1.007825032230
         H            0.980263125493    -2.843490161079    -1.087805093748     1.007825032230
         H            1.057263125493    -1.254490161079    -1.881805093748     1.007825032230
         H            1.638263125493    -1.433490161079    -0.222805093748     1.007825032230
         H           -2.005736874507    -1.227490161079    -1.701805093748     1.007825032230
         H           -0.849776874507    -3.185570161079     0.858355906252     1.007825032230
         H           -1.623366874507    -1.615970161079     1.399351906252     1.007825032230

  Running in c1 symmetry.

  Rotational constants: A =      0.10621  B =      0.02766  C =      0.02546 [cm^-1]
  Rotational constants: A =   3184.13027  B =    829.16534  C =    763.28370 [MHz]
  Nuclear repulsion =  316.063705266860097

  Charge       = 0
  Multiplicity = 1
  Electrons    = 60
  Nalpha       = 30
  Nbeta        = 30

  ==> Algorithm <==

  SCF Algorithm Type is PK.
  DIIS enabled.
  MOM disabled.
  Fractional occupation disabled.
  Guess Type is SAD.
  Energy threshold   = 1.00e-06
  Density threshold  = 1.00e-10
  Integral threshold = 0.00e+00

  ==> Primary Basis <==

  Basis Set: CC-PVDZ
    Blend: CC-PVDZ
    Number of shells: 90
    Number of basis function: 178
    Number of Cartesian functions: 185
    Spherical Harmonics?: true
    Max angular momentum: 2

  ==> Pre-Iterations <==

   -------------------------------------------------------
    Irrep   Nso     Nmo     Nalpha   Nbeta   Ndocc  Nsocc
   -------------------------------------------------------
     A        178     178       0       0       0       0
   -------------------------------------------------------
    Total     178     178      30      30      30       0
   -------------------------------------------------------

  ==> Integral Setup <==

  Using integral reordering PK algorithm.
  Sizing the integral batches needed.
  Building batch lookup table.
   Calculation information:
      Number of atoms:                  23
      Number of AO shells:              90
      Number of primitives:            234
      Number of atomic orbitals:       185
      Number of basis functions:       178

      Integral cutoff                 1.00e-12
      Number of threads:                 1

	Batch   1 pq = [       0,    9405] index = [             0,44231715] size =     44231715
	Batch   2 pq = [    9405,   13301] index = [      44231715,88464951] size =     44233236
	Batch   3 pq = [   13301,   15931] index = [      88464951,126906346] size =     38441395
  Task number: 12
  Buffer size: 11059200
  Buffer per thread: 2
  We computed 7597004 shell quartets total.
  Whereas there are 8386560 unique shell quartets.

  ==> DiskJK: Disk-Based J/K Matrices <==

    J tasked:                  Yes
    K tasked:                  Yes
    wK tasked:                  No
    Memory [MiB]:              375
    Schwarz Cutoff:          1E-12

    OpenMP threads:              1

  Minimum eigenvalue in the overlap matrix is 4.4236280109E-03.
  Using Symmetric Orthogonalization.

  SCF Guess: Superposition of Atomic Densities via on-the-fly atomic UHF.

  ==> Iterations <==

                        Total Energy        Delta E     RMS |[F,P]|

   @RHF iter SAD:  -310.11396440431321   -3.10114e+02   0.00000e+00
   @RHF iter   1:  -311.13843409976619   -1.02447e+00   3.60933e-03 DIIS
   @RHF iter   2:  -311.35167564848274   -2.13242e-01   1.66815e-03 DIIS
   @RHF iter   3:  -311.39231277871352   -4.06371e-02   3.28248e-04 DIIS
   @RHF iter   4:  -311.39525154454196   -2.93877e-03   1.06161e-04 DIIS
   @RHF iter   5:  -311.39543909180338   -1.87547e-04   2.06430e-05 DIIS
   @RHF iter   6:  -311.39544934885515   -1.02571e-05   4.67897e-06 DIIS
   @RHF iter   7:  -311.39544991991903   -5.71064e-07   1.23129e-06 DIIS
   @RHF iter   8:  -311.39544996145418   -4.15351e-08   3.24292e-07 DIIS
   @RHF iter   9:  -311.39544996560653   -4.15235e-09   7.85096e-08 DIIS
   @RHF iter  10:  -311.39544996586949   -2.62958e-10   1.98682e-08 DIIS
   @RHF iter  11:  -311.39544996588671   -1.72236e-11   5.06889e-09 DIIS
   @RHF iter  12:  -311.39544996588666    5.68434e-14   1.70385e-09 DIIS
   @RHF iter  13:  -311.39544996588631    3.41061e-13   4.47361e-10 DIIS
   @RHF iter  14:  -311.39544996588717   -8.52651e-13   8.97405e-11 DIIS
  Energy and wave function converged.

  ==> Post-Iterations <==

    Orbital Energies [Eh]
    ---------------------

    Doubly Occupied:

       1A    -20.543978     2A    -11.274531     3A    -11.226102
       4A    -11.222209     5A    -11.219520     6A    -11.216828
       7A    -11.211841     8A     -1.343345     9A     -1.062394
      10A     -1.036828    11A     -0.931954    12A     -0.929079
      13A     -0.804781    14A     -0.789145    15A     -0.699978
      16A     -0.633392    17A     -0.601984    18A     -0.599960
      19A     -0.587224    20A     -0.559916    21A     -0.553874
      22A     -0.539878    23A     -0.537805    24A     -0.516376
      25A     -0.496437    26A     -0.486229    27A     -0.476606
      28A     -0.471626    29A     -0.459749    30A     -0.419553

    Virtual:

      31A      0.157342    32A      0.185273    33A      0.198661
      34A      0.203746    35A      0.228565    36A      0.240844
      37A      0.245403    38A      0.253824    39A      0.263012
      40A      0.271745    41A      0.289879    42A      0.295901
      43A      0.297021    44A      0.312900    45A      0.324460
      46A      0.330336    47A      0.363009    48A      0.399749
      49A      0.410161    50A      0.422811    51A      0.442505
      52A      0.563039    53A      0.587956    54A      0.589021
      55A      0.597872    56A      0.615151    57A      0.646466
      58A      0.673295    59A      0.688976    60A      0.707679
      61A      0.738158    62A      0.770430    63A      0.784677
      64A      0.798900    65A      0.819859    66A      0.824496
      67A      0.853732    68A      0.856281    69A      0.865347
      70A      0.871585    71A      0.886259    72A      0.890892
      73A      0.894784    74A      0.898299    75A      0.899377
      76A      0.907122    77A      0.914460    78A      0.920478
      79A      0.935610    80A      0.943220    81A      0.958733
      82A      0.966223    83A      0.986037    84A      1.007292
      85A      1.036422    86A      1.116989    87A      1.125102
      88A      1.155341    89A      1.162931    90A      1.212942
      91A      1.249838    92A      1.263541    93A      1.341914
      94A      1.375836    95A      1.389715    96A      1.405808
      97A      1.453582    98A      1.459323    99A      1.471050
     100A      1.522823   101A      1.549658   102A      1.559078
     103A      1.640556   104A      1.660785   105A      1.677314
     106A      1.678730   107A      1.687267   108A      1.693199
     109A      1.697068   110A      1.714410   111A      1.729070
     112A      1.820104   113A      1.837764   114A      1.850951
     115A      1.869994   116A      1.873218   117A      1.879019
     118A      1.889762   119A      1.908982   120A      1.919118
     121A      1.927283   122A      1.944084   123A      1.962444
     124A      1.970694   125A      1.977649   126A      1.986277
     127A      1.991962   128A      1.997690   129A      2.009698
     130A      2.022149   131A      2.037142   132A      2.041662
     133A      2.055887   134A      2.060670   135A      2.117680
     136A      2.134196   137A      2.144655   138A      2.148055
     139A      2.197507   140A      2.270661   141A      2.284127
     142A      2.297076   143A      2.312877   144A      2.333370
     145A      2.344158   146A      2.351116   147A      2.360193
     148A      2.441766   149A      2.495808   150A      2.498635
     151A      2.522045   152A      2.533331   153A      2.565839
     154A      2.577732   155A      2.600769   156A      2.607183
     157A      2.633065   158A      2.660838   159A      2.751087
     160A      2.755728   161A      2.771100   162A      2.779208
     163A      2.785487   164A      2.802634   165A      2.826215
     166A      2.838658   167A      2.882237   168A      2.901839
     169A      2.913664   170A      2.971824   171A      2.988959
     172A      3.035179   173A      3.087171   174A      3.286284
     175A      3.419208   176A      3.482678   177A      3.663512
     178A      4.105304

    Final Occupation by Irrep:
              A
    DOCC [    30 ]

  @RHF Final Energy:  -311.39544996588717

   => Energetics <=

    Nuclear Repulsion Energy =            316.0637052668600973
    One-Electron Energy =               -1048.0120697211150400
    Two-Electron Energy =                 420.5529144883677759
    Total Energy =                       -311.3954499658871669

Computation Completed

Properties will be evaluated at   0.000000,   0.000000,   0.000000 [a0]

Properties computed using the SCF density matrix

  Nuclear Dipole Moment: [e a0]
     X:     3.8008      Y:     5.8444      Z:     3.6806

  Electronic Dipole Moment: [e a0]
     X:    -3.7845      Y:    -5.1501      Z:    -3.5160

  Dipole Moment: [e a0]
     X:     0.0163      Y:     0.6943      Z:     0.1646     Total:     0.7137

  Dipole Moment: [D]
     X:     0.0415      Y:     1.7647      Z:     0.4183     Total:     1.8141

*** tstop() called on ds3 at Mon Apr 27 05:42:15 2020
Module time:
	user time   =      38.83 seconds =       0.65 minutes
	system time =      15.38 seconds =       0.26 minutes
	total time  =         53 seconds =       0.88 minutes
Total time:
	user time   =      38.83 seconds =       0.65 minutes
	system time =      15.38 seconds =       0.26 minutes
	total time  =         53 seconds =       0.88 minutes
                                     G D M A

                                 by Anthony Stone

                           version 2.2.06, 22 June 2011

               Distributed Multipoles from Gaussian wavefunctions

Starting at 5:42:15 on 27 Apr 2020

Using SCF density matrix from file ./SSI/SSI-144ILE-155THR-1-dimer.test.29989.fchk

                         Distributed Multipole Analysis

Standard DMA

Positions and radii in angstrom
Multipole moments in atomic units, ea_0^k for rank k

C          x =  0.391263  y =  2.000510  z =  0.471195 angstrom
           Maximum rank =  0   Radius =  0.650 angstrom
                   Q00  =  -0.066585

C          x =  1.763263  y =  2.416510  z = -0.032805 angstrom
           Maximum rank =  0   Radius =  0.650 angstrom
                   Q00  =  -0.240208

C          x = -0.208737  y =  2.964510  z =  1.487195 angstrom
           Maximum rank =  0   Radius =  0.650 angstrom
                   Q00  =  -0.248477

H          x = -0.296737  y =  1.900510  z = -0.368805 angstrom
           Maximum rank =  0   Radius =  0.325 angstrom
                   Q00  =   0.038386

H          x =  0.479263  y =  1.026510  z =  0.953195 angstrom
           Maximum rank =  0   Radius =  0.325 angstrom
                   Q00  =   0.041559

H          x =  2.138263  y =  1.588510  z = -0.637805 angstrom
           Maximum rank =  0   Radius =  0.325 angstrom
                   Q00  =   0.082929

H          x = -0.266737  y =  3.972510  z =  1.076195 angstrom
           Maximum rank =  0   Radius =  0.325 angstrom
                   Q00  =   0.077679

H          x = -1.219737  y =  2.635510  z =  1.725195 angstrom
           Maximum rank =  0   Radius =  0.325 angstrom
                   Q00  =   0.080082

H          x =  0.366263  y =  2.972510  z =  2.413195 angstrom
           Maximum rank =  0   Radius =  0.325 angstrom
                   Q00  =   0.080006

H          x =  1.751053  y =  3.345600  z = -0.621565 angstrom
           Maximum rank =  0   Radius =  0.325 angstrom
                   Q00  =   0.081340

H          x =  2.434663  y =  2.560120  z =  0.826614 angstrom
           Maximum rank =  0   Radius =  0.325 angstrom
                   Q00  =   0.075380

C          x = -0.506737  y = -1.430490  z = -0.429805 angstrom
           Maximum rank =  0   Radius =  0.650 angstrom
                   Q00  =   0.154487

C          x = -0.745737  y = -2.093490  z =  0.939195 angstrom
           Maximum rank =  0   Radius =  0.650 angstrom
                   Q00  =  -0.260287

C          x =  0.887263  y = -1.767490  z = -0.936805 angstrom
           Maximum rank =  0   Radius =  0.650 angstrom
                   Q00  =  -0.259070

O          x = -1.441737  y = -1.961490  z = -1.371805 angstrom
           Maximum rank =  0   Radius =  0.650 angstrom
                   Q00  =  -0.567403

H          x = -0.629737  y = -0.353490  z = -0.365805 angstrom
           Maximum rank =  0   Radius =  0.325 angstrom
                   Q00  =   0.024088

H          x =  0.108263  y = -1.843490  z =  1.569195 angstrom
           Maximum rank =  0   Radius =  0.325 angstrom
                   Q00  =   0.069793

H          x =  0.980263  y = -2.843490  z = -1.087805 angstrom
           Maximum rank =  0   Radius =  0.325 angstrom
                   Q00  =   0.095913

H          x =  1.057263  y = -1.254490  z = -1.881805 angstrom
           Maximum rank =  0   Radius =  0.325 angstrom
                   Q00  =   0.084397

H          x =  1.638263  y = -1.433490  z = -0.222805 angstrom
           Maximum rank =  0   Radius =  0.325 angstrom
                   Q00  =   0.071403

H          x = -2.005737  y = -1.227490  z = -1.701805 angstrom
           Maximum rank =  0   Radius =  0.325 angstrom
                   Q00  =   0.399847

H          x = -0.849777  y = -3.185570  z =  0.858356 angstrom
           Maximum rank =  0   Radius =  0.325 angstrom
                   Q00  =   0.104222

H          x = -1.623367  y = -1.615970  z =  1.399352 angstrom
           Maximum rank =  0   Radius =  0.325 angstrom
                   Q00  =   0.080518

Total multipoles referred to origin at
           x =   0.000000,  y =    0.000000,  z =    0.000000 angstrom
                   Q00  =  -0.000000

Finished at 5:42:15 on 27 Apr 2020

  DMA results are available in the Python driver through the
	  variable('DMA DISTRIBUTED MULTIPOLES')
  and
	  variable('DMA TOTAL MULTIPOLES')
  commands.

    Psi4 stopped on: Monday, 27 April 2020 05:42AM
    Psi4 wall time for execution: 0:00:53.00

*** Psi4 exiting successfully. Buy a developer a beer!
