                               Psi4 1.3.2 release

  ==> Input File <==

--------------------------------------------------------------------------
import numpy as np
set {scf_type pk
basis cc-pvdz
d_convergence 10
gdma_switch   0
gdma_limit    0
gdma_origin   [ 0.0,  0.0,  0.0 ]
}
molecule test {
    units Angstrom
    -1 1
    --
    -1 1
    C                1.403250905768602    -1.378875688009548    -0.999787714766283
    C                1.943250905768602    -0.214875688009548    -1.846787714766283
    C                2.324250905768602    -2.588875688009547    -1.056787714766283
    O                1.292250905768602    -0.952875688009548     0.355212285233717
    H                0.424250905768602    -1.670875688009548    -1.371787714766283
    H                2.940250905768601     0.029124311990452    -1.478787714766283
    H                3.322250905768601    -2.314875688009548    -0.715787714766283
    H                1.931250905768602    -3.376875688009548    -0.414787714766283
    H                2.387250905768601    -2.970875688009547    -2.075787714766283
    H                0.488250905768602    -0.386875688009548     0.383212285233717
    H                1.293934905768602     0.665204311990452    -1.729141714766283
    H                2.039668905768601    -0.478945688009548    -2.910259014766283
    C               -1.881749094231398     1.171124311990452     2.298212285233717
    C               -1.747749094231398     1.292124311990452     0.789212285233717
    O               -0.935749094231398     0.546124311990452     0.191212285233717
    O               -2.458749094231398     2.141124311990453     0.210212285233717
    H               -2.866749094231399     0.769124311990452     2.542212285233717
    H               -1.792749094231398     2.163124311990452     2.747212285233717
    H               -1.108289094231398     0.519334311990452     2.730567285233717

}
e, wfn = energy('scf', return_wfn=True)
gdma(wfn)
dmavals = variable('DMA DISTRIBUTED MULTIPOLES')
charges = np.array(dmavals)
print(charges)
np.save('SSI-036THR-090GLU-1-dimer.npy', np.array(charges))--------------------------------------------------------------------------

*** tstart() called on ds3
*** at Sun Apr 26 17:40:33 2020

   => Loading Basis Set <=

    Name: CC-PVDZ
    Role: ORBITAL
    Keyword: BASIS
    atoms 1-3, 13-14  entry C          line   138 file /theoryfs2/ds/metcalf/miniconda2/envs/tf2gpu/share/psi4/basis/cc-pvdz.gbs
    atoms 4, 15-16    entry O          line   198 file /theoryfs2/ds/metcalf/miniconda2/envs/tf2gpu/share/psi4/basis/cc-pvdz.gbs
    atoms 5-12, 17-19 entry H          line    22 file /theoryfs2/ds/metcalf/miniconda2/envs/tf2gpu/share/psi4/basis/cc-pvdz.gbs

         ---------------------------------------------------------
                                   SCF
               by Justin Turney, Rob Parrish, Andy Simmonett
                          and Daniel G. A. Smith
                              RHF Reference
                        1 Threads,    500 MiB Core
         ---------------------------------------------------------

  ==> Geometry <==

    Molecular point group: c1
    Full point group: C1

    Geometry (in Angstrom), charge = -1, multiplicity = 1:

       Center              X                  Y                   Z               Mass
    ------------   -----------------  -----------------  -----------------  -----------------
         C            1.403250905769    -1.378875688010    -0.999787714766    12.000000000000
         C            1.943250905769    -0.214875688010    -1.846787714766    12.000000000000
         C            2.324250905769    -2.588875688010    -1.056787714766    12.000000000000
         O            1.292250905769    -0.952875688010     0.355212285234    15.994914619570
         H            0.424250905769    -1.670875688010    -1.371787714766     1.007825032230
         H            2.940250905769     0.029124311990    -1.478787714766     1.007825032230
         H            3.322250905769    -2.314875688010    -0.715787714766     1.007825032230
         H            1.931250905769    -3.376875688010    -0.414787714766     1.007825032230
         H            2.387250905769    -2.970875688010    -2.075787714766     1.007825032230
         H            0.488250905769    -0.386875688010     0.383212285234     1.007825032230
         H            1.293934905769     0.665204311990    -1.729141714766     1.007825032230
         H            2.039668905769    -0.478945688010    -2.910259014766     1.007825032230
         C           -1.881749094231     1.171124311990     2.298212285234    12.000000000000
         C           -1.747749094231     1.292124311990     0.789212285234    12.000000000000
         O           -0.935749094231     0.546124311990     0.191212285234    15.994914619570
         O           -2.458749094231     2.141124311990     0.210212285234    15.994914619570
         H           -2.866749094231     0.769124311990     2.542212285234     1.007825032230
         H           -1.792749094231     2.163124311990     2.747212285234     1.007825032230
         H           -1.108289094231     0.519334311990     2.730567285234     1.007825032230

  Running in c1 symmetry.

  Rotational constants: A =      0.14501  B =      0.02236  C =      0.02033 [cm^-1]
  Rotational constants: A =   4347.32876  B =    670.33415  C =    609.59141 [MHz]
  Nuclear repulsion =  369.285098404367773

  Charge       = -1
  Multiplicity = 1
  Electrons    = 66
  Nalpha       = 33
  Nbeta        = 33

  ==> Algorithm <==

  SCF Algorithm Type is PK.
  DIIS enabled.
  MOM disabled.
  Fractional occupation disabled.
  Guess Type is SAD.
  Energy threshold   = 1.00e-06
  Density threshold  = 1.00e-10
  Integral threshold = 0.00e+00

  ==> Primary Basis <==

  Basis Set: CC-PVDZ
    Blend: CC-PVDZ
    Number of shells: 81
    Number of basis function: 167
    Number of Cartesian functions: 175
    Spherical Harmonics?: true
    Max angular momentum: 2

  ==> Pre-Iterations <==

   -------------------------------------------------------
    Irrep   Nso     Nmo     Nalpha   Nbeta   Ndocc  Nsocc
   -------------------------------------------------------
     A        167     167       0       0       0       0
   -------------------------------------------------------
    Total     167     167      33      33      33       0
   -------------------------------------------------------

  ==> Integral Setup <==

  Using integral reordering PK algorithm.
  Sizing the integral batches needed.
  Building batch lookup table.
   Calculation information:
      Number of atoms:                  19
      Number of AO shells:              81
      Number of primitives:            231
      Number of atomic orbitals:       175
      Number of basis functions:       167

      Integral cutoff                 1.00e-12
      Number of threads:                 1

	Batch   1 pq = [       0,    9405] index = [             0,44231715] size =     44231715
	Batch   2 pq = [    9405,   13301] index = [      44231715,88464951] size =     44233236
	Batch   3 pq = [   13301,   14028] index = [      88464951,98399406] size =      9934455
  Task number: 9
  Buffer size: 11059200
  Buffer per thread: 2
  We computed 4179912 shell quartets total.
  Whereas there are 5516181 unique shell quartets.

  ==> DiskJK: Disk-Based J/K Matrices <==

    J tasked:                  Yes
    K tasked:                  Yes
    wK tasked:                  No
    Memory [MiB]:              375
    Schwarz Cutoff:          1E-12

    OpenMP threads:              1

  Minimum eigenvalue in the overlap matrix is 4.5256319562E-03.
  Using Symmetric Orthogonalization.

  SCF Guess: Superposition of Atomic Densities via on-the-fly atomic UHF.

  ==> Iterations <==

                        Total Energy        Delta E     RMS |[F,P]|

   @RHF iter SAD:  -418.64741841249503   -4.18647e+02   0.00000e+00
   @RHF iter   1:  -420.09462693135976   -1.44721e+00   4.69084e-03 DIIS
   @RHF iter   2:  -420.33392584465491   -2.39299e-01   2.54935e-03 DIIS
   @RHF iter   3:  -420.39989565772714   -6.59698e-02   4.04838e-04 DIIS
   @RHF iter   4:  -420.40297021596990   -3.07456e-03   1.52546e-04 DIIS
   @RHF iter   5:  -420.40339316774487   -4.22952e-04   2.79929e-05 DIIS
   @RHF iter   6:  -420.40340814364669   -1.49759e-05   1.19097e-05 DIIS
   @RHF iter   7:  -420.40341034931924   -2.20567e-06   2.84653e-06 DIIS
   @RHF iter   8:  -420.40341059586791   -2.46549e-07   1.27883e-06 DIIS
   @RHF iter   9:  -420.40341063914650   -4.32786e-08   4.96415e-07 DIIS
   @RHF iter  10:  -420.40341064934830   -1.02018e-08   1.88512e-07 DIIS
   @RHF iter  11:  -420.40341065071868   -1.37038e-09   6.34566e-08 DIIS
   @RHF iter  12:  -420.40341065085312   -1.34435e-10   1.97951e-08 DIIS
   @RHF iter  13:  -420.40341065086568   -1.25624e-11   4.76589e-09 DIIS
   @RHF iter  14:  -420.40341065086602   -3.41061e-13   1.24417e-09 DIIS
   @RHF iter  15:  -420.40341065086614   -1.13687e-13   3.39646e-10 DIIS
   @RHF iter  16:  -420.40341065086255    3.58114e-12   1.03372e-10 DIIS
   @RHF iter  17:  -420.40341065086454   -1.98952e-12   3.80245e-11 DIIS
  Energy and wave function converged.

  ==> Post-Iterations <==

    Orbital Energies [Eh]
    ---------------------

    Doubly Occupied:

       1A    -20.373073     2A    -20.293706     3A    -20.279060
       4A    -11.141689     5A    -11.138458     6A    -11.101954
       7A    -11.088957     8A    -11.063966     9A     -1.185299
      10A     -1.173171    11A     -1.063411    12A     -0.906174
      13A     -0.811503    14A     -0.809148    15A     -0.657048
      16A     -0.557757    17A     -0.518447    18A     -0.480822
      19A     -0.462764    20A     -0.437193    21A     -0.427624
      22A     -0.424003    23A     -0.416381    24A     -0.403094
      25A     -0.383089    26A     -0.370791    27A     -0.362327
      28A     -0.329305    29A     -0.320717    30A     -0.274195
      31A     -0.210666    32A     -0.196187    33A     -0.189310

    Virtual:

      34A      0.300845    35A      0.343503    36A      0.347762
      37A      0.351450    38A      0.370836    39A      0.380967
      40A      0.391916    41A      0.405269    42A      0.412342
      43A      0.423688    44A      0.466364    45A      0.482567
      46A      0.507625    47A      0.546288    48A      0.557707
      49A      0.604137    50A      0.677116    51A      0.697225
      52A      0.720160    53A      0.741156    54A      0.795427
      55A      0.806798    56A      0.811580    57A      0.856427
      58A      0.860894    59A      0.887145    60A      0.917949
      61A      0.927073    62A      0.947566    63A      0.961581
      64A      0.977127    65A      1.001948    66A      1.010076
      67A      1.015759    68A      1.019226    69A      1.022826
      70A      1.024005    71A      1.031217    72A      1.042888
      73A      1.052561    74A      1.066925    75A      1.089021
      76A      1.095340    77A      1.144995    78A      1.201494
      79A      1.262689    80A      1.278298    81A      1.291587
      82A      1.329597    83A      1.331851    84A      1.421856
      85A      1.458882    86A      1.477265    87A      1.526864
      88A      1.531870    89A      1.550932    90A      1.580497
      91A      1.595845    92A      1.605064    93A      1.636850
      94A      1.677564    95A      1.697523    96A      1.711931
      97A      1.721331    98A      1.780951    99A      1.799932
     100A      1.804511   101A      1.823275   102A      1.828786
     103A      1.835336   104A      1.838752   105A      1.887871
     106A      1.969513   107A      1.986804   108A      2.012462
     109A      2.014200   110A      2.031414   111A      2.054880
     112A      2.065731   113A      2.083751   114A      2.103819
     115A      2.111736   116A      2.122365   117A      2.126893
     118A      2.136605   119A      2.154581   120A      2.179965
     121A      2.194900   122A      2.238358   123A      2.257580
     124A      2.288611   125A      2.305905   126A      2.341760
     127A      2.376015   128A      2.389535   129A      2.414563
     130A      2.426990   131A      2.446721   132A      2.515435
     133A      2.563142   134A      2.621757   135A      2.640123
     136A      2.660626   137A      2.684135   138A      2.711982
     139A      2.724387   140A      2.742877   141A      2.783875
     142A      2.868502   143A      2.893966   144A      2.905912
     145A      2.910128   146A      2.936701   147A      2.949629
     148A      2.959743   149A      2.994248   150A      3.001005
     151A      3.034473   152A      3.126586   153A      3.224578
     154A      3.266419   155A      3.281571   156A      3.345225
     157A      3.510101   158A      3.572468   159A      3.609323
     160A      3.661687   161A      3.763901   162A      3.801887
     163A      3.817360   164A      4.024899   165A      4.063246
     166A      4.167649   167A      4.386960

    Final Occupation by Irrep:
              A
    DOCC [    33 ]

  @RHF Final Energy:  -420.40341065086454

   => Energetics <=

    Nuclear Repulsion Energy =            369.2850984043677727
    One-Electron Energy =               -1319.6744411260610832
    Two-Electron Energy =                 529.9859320708287669
    Total Energy =                       -420.4034106508645436

Computation Completed

Properties will be evaluated at   0.000000,   0.000000,   0.000000 [a0]

Properties computed using the SCF density matrix

  Nuclear Dipole Moment: [e a0]
     X:     8.4827      Y:    -6.6040      Z:    -2.1461

  Electronic Dipole Moment: [e a0]
     X:    -6.6451      Y:     4.8614      Z:     1.9159

  Dipole Moment: [e a0]
     X:     1.8376      Y:    -1.7427      Z:    -0.2302     Total:     2.5430

  Dipole Moment: [D]
     X:     4.6707      Y:    -4.4294      Z:    -0.5852     Total:     6.4636

*** tstop() called on ds3 at Sun Apr 26 17:41:25 2020
Module time:
	user time   =      30.67 seconds =       0.51 minutes
	system time =      13.71 seconds =       0.23 minutes
	total time  =         52 seconds =       0.87 minutes
Total time:
	user time   =      30.67 seconds =       0.51 minutes
	system time =      13.71 seconds =       0.23 minutes
	total time  =         52 seconds =       0.87 minutes
                                     G D M A

                                 by Anthony Stone

                           version 2.2.06, 22 June 2011

               Distributed Multipoles from Gaussian wavefunctions

Starting at 17:41:25 on 26 Apr 2020

Using SCF density matrix from file ./SSI/SSI-036THR-090GLU-1-dimer.test.32059.fchk

                         Distributed Multipole Analysis

Standard DMA

Positions and radii in angstrom
Multipole moments in atomic units, ea_0^k for rank k

C          x =  1.403251  y = -1.378876  z = -0.999788 angstrom
           Maximum rank =  0   Radius =  0.650 angstrom
                   Q00  =   0.168307

C          x =  1.943251  y = -0.214876  z = -1.846788 angstrom
           Maximum rank =  0   Radius =  0.650 angstrom
                   Q00  =  -0.240921

C          x =  2.324251  y = -2.588876  z = -1.056788 angstrom
           Maximum rank =  0   Radius =  0.650 angstrom
                   Q00  =  -0.243372

O          x =  1.292251  y = -0.952876  z =  0.355212 angstrom
           Maximum rank =  0   Radius =  0.650 angstrom
                   Q00  =  -0.645116

H          x =  0.424251  y = -1.670876  z = -1.371788 angstrom
           Maximum rank =  0   Radius =  0.325 angstrom
                   Q00  =   0.005014

H          x =  2.940251  y =  0.029124  z = -1.478788 angstrom
           Maximum rank =  0   Radius =  0.325 angstrom
                   Q00  =   0.059740

H          x =  3.322251  y = -2.314876  z = -0.715788 angstrom
           Maximum rank =  0   Radius =  0.325 angstrom
                   Q00  =   0.071103

H          x =  1.931251  y = -3.376876  z = -0.414788 angstrom
           Maximum rank =  0   Radius =  0.325 angstrom
                   Q00  =   0.077722

H          x =  2.387251  y = -2.970876  z = -2.075788 angstrom
           Maximum rank =  0   Radius =  0.325 angstrom
                   Q00  =   0.051869

H          x =  0.488251  y = -0.386876  z =  0.383212 angstrom
           Maximum rank =  0   Radius =  0.325 angstrom
                   Q00  =   0.525517

H          x =  1.293935  y =  0.665204  z = -1.729142 angstrom
           Maximum rank =  0   Radius =  0.325 angstrom
                   Q00  =   0.112159

H          x =  2.039669  y = -0.478946  z = -2.910259 angstrom
           Maximum rank =  0   Radius =  0.325 angstrom
                   Q00  =   0.037434

C          x = -1.881749  y =  1.171124  z =  2.298212 angstrom
           Maximum rank =  0   Radius =  0.650 angstrom
                   Q00  =  -0.291486

C          x = -1.747749  y =  1.292124  z =  0.789212 angstrom
           Maximum rank =  0   Radius =  0.650 angstrom
                   Q00  =   0.945053

O          x = -0.935749  y =  0.546124  z =  0.191212 angstrom
           Maximum rank =  0   Radius =  0.650 angstrom
                   Q00  =  -0.951032

O          x = -2.458749  y =  2.141124  z =  0.210212 angstrom
           Maximum rank =  0   Radius =  0.650 angstrom
                   Q00  =  -0.901639

H          x = -2.866749  y =  0.769124  z =  2.542212 angstrom
           Maximum rank =  0   Radius =  0.325 angstrom
                   Q00  =   0.081537

H          x = -1.792749  y =  2.163124  z =  2.747212 angstrom
           Maximum rank =  0   Radius =  0.325 angstrom
                   Q00  =   0.072884

H          x = -1.108289  y =  0.519334  z =  2.730567 angstrom
           Maximum rank =  0   Radius =  0.325 angstrom
                   Q00  =   0.065226

Total multipoles referred to origin at
           x =   0.000000,  y =    0.000000,  z =    0.000000 angstrom
                   Q00  =  -1.000000

Finished at 17:41:25 on 26 Apr 2020

  DMA results are available in the Python driver through the
	  variable('DMA DISTRIBUTED MULTIPOLES')
  and
	  variable('DMA TOTAL MULTIPOLES')
  commands.

    Psi4 stopped on: Sunday, 26 April 2020 05:41PM
    Psi4 wall time for execution: 0:00:51.88

*** Psi4 exiting successfully. Buy a developer a beer!
