                               Psi4 1.3.2 release

  ==> Input File <==

--------------------------------------------------------------------------
import numpy as np
set {scf_type pk
basis cc-pvdz
d_convergence 10
gdma_switch   0
gdma_limit    0
gdma_origin   [ 0.0,  0.0,  0.0 ]
}
molecule test {
    units Angstrom
    0 1
    --
    0 1
    C                0.329822944852447    -2.339324172609963     0.805114799606291
    C               -0.478177055147553    -3.233324172609963    -0.140885200393709
    C                1.838822944852447    -2.568324172609963     0.760114799606291
    H                0.195822944852447    -1.305324172609963     0.575114799606291
    H               -0.011177055147553    -2.510324172609963     1.829114799606291
    H               -0.228177055147553    -4.275324172609963     0.070114799606291
    H                2.049822944852447    -3.613324172609963     0.987114799606291
    H                2.216822944852447    -2.343324172609963    -0.237885200393709
    H               -0.258847055147553    -2.975284172609963    -1.187455200393709
    H               -1.558257055147553    -3.121764172609963     0.035144799606291
    H                2.348042944852446    -1.929824172609963     1.497014799606291
    C               -1.214177055147553     0.992675827390037    -0.246885200393709
    C               -1.727177055147553     1.201675827390037    -1.668885200393709
    C                0.039822944852447     1.802675827390037     0.041114799606291
    O                0.266822944852447     2.850675827390037    -0.561885200393709
    N                0.855822944852447     1.336675827390037     0.974114799606291
    H               -1.978177055147553     1.338675827390037     0.451114799606291
    H               -1.109177055147553    -0.059324172609963    -0.085885200393709
    H               -1.852177055147553     2.275675827390037    -1.820885200393709
    H                1.629822944852447     1.929675827390037     1.245114799606291
    H                0.539822944852447     0.597675827390037     1.582114799606291
    H               -2.692887055147553     0.689745827390037    -1.792715200393709
    H               -0.997147055147553     0.829075827390037    -2.402525200393709

}
e, wfn = energy('scf', return_wfn=True)
gdma(wfn)
dmavals = variable('DMA DISTRIBUTED MULTIPOLES')
charges = np.array(dmavals)
print(charges)
np.save('SSI-073ARG-163ASN-1-dimer.npy', np.array(charges))--------------------------------------------------------------------------

*** tstart() called on ds3
*** at Tue Apr 28 00:20:07 2020

   => Loading Basis Set <=

    Name: CC-PVDZ
    Role: ORBITAL
    Keyword: BASIS
    atoms 1-3, 12-14  entry C          line   138 file /theoryfs2/ds/metcalf/miniconda2/envs/tf2gpu/share/psi4/basis/cc-pvdz.gbs
    atoms 4-11, 17-23 entry H          line    22 file /theoryfs2/ds/metcalf/miniconda2/envs/tf2gpu/share/psi4/basis/cc-pvdz.gbs
    atoms 15          entry O          line   198 file /theoryfs2/ds/metcalf/miniconda2/envs/tf2gpu/share/psi4/basis/cc-pvdz.gbs
    atoms 16          entry N          line   168 file /theoryfs2/ds/metcalf/miniconda2/envs/tf2gpu/share/psi4/basis/cc-pvdz.gbs

         ---------------------------------------------------------
                                   SCF
               by Justin Turney, Rob Parrish, Andy Simmonett
                          and Daniel G. A. Smith
                              RHF Reference
                        1 Threads,    500 MiB Core
         ---------------------------------------------------------

  ==> Geometry <==

    Molecular point group: c1
    Full point group: C1

    Geometry (in Angstrom), charge = 0, multiplicity = 1:

       Center              X                  Y                   Z               Mass
    ------------   -----------------  -----------------  -----------------  -----------------
         C            0.329822944852    -2.339324172610     0.805114799606    12.000000000000
         C           -0.478177055148    -3.233324172610    -0.140885200394    12.000000000000
         C            1.838822944852    -2.568324172610     0.760114799606    12.000000000000
         H            0.195822944852    -1.305324172610     0.575114799606     1.007825032230
         H           -0.011177055148    -2.510324172610     1.829114799606     1.007825032230
         H           -0.228177055148    -4.275324172610     0.070114799606     1.007825032230
         H            2.049822944852    -3.613324172610     0.987114799606     1.007825032230
         H            2.216822944852    -2.343324172610    -0.237885200394     1.007825032230
         H           -0.258847055148    -2.975284172610    -1.187455200394     1.007825032230
         H           -1.558257055148    -3.121764172610     0.035144799606     1.007825032230
         H            2.348042944852    -1.929824172610     1.497014799606     1.007825032230
         C           -1.214177055148     0.992675827390    -0.246885200394    12.000000000000
         C           -1.727177055148     1.201675827390    -1.668885200394    12.000000000000
         C            0.039822944852     1.802675827390     0.041114799606    12.000000000000
         O            0.266822944852     2.850675827390    -0.561885200394    15.994914619570
         N            0.855822944852     1.336675827390     0.974114799606    14.003074004430
         H           -1.978177055148     1.338675827390     0.451114799606     1.007825032230
         H           -1.109177055148    -0.059324172610    -0.085885200394     1.007825032230
         H           -1.852177055148     2.275675827390    -1.820885200394     1.007825032230
         H            1.629822944852     1.929675827390     1.245114799606     1.007825032230
         H            0.539822944852     0.597675827390     1.582114799606     1.007825032230
         H           -2.692887055148     0.689745827390    -1.792715200394     1.007825032230
         H           -0.997147055148     0.829075827390    -2.402525200394     1.007825032230

  Running in c1 symmetry.

  Rotational constants: A =      0.08135  B =      0.02661  C =      0.02148 [cm^-1]
  Rotational constants: A =   2438.73803  B =    797.87601  C =    643.81669 [MHz]
  Nuclear repulsion =  378.827219506689971

  Charge       = 0
  Multiplicity = 1
  Electrons    = 66
  Nalpha       = 33
  Nbeta        = 33

  ==> Algorithm <==

  SCF Algorithm Type is PK.
  DIIS enabled.
  MOM disabled.
  Fractional occupation disabled.
  Guess Type is SAD.
  Energy threshold   = 1.00e-06
  Density threshold  = 1.00e-10
  Integral threshold = 0.00e+00

  ==> Primary Basis <==

  Basis Set: CC-PVDZ
    Blend: CC-PVDZ
    Number of shells: 93
    Number of basis function: 187
    Number of Cartesian functions: 195
    Spherical Harmonics?: true
    Max angular momentum: 2

  ==> Pre-Iterations <==

   -------------------------------------------------------
    Irrep   Nso     Nmo     Nalpha   Nbeta   Ndocc  Nsocc
   -------------------------------------------------------
     A        187     187       0       0       0       0
   -------------------------------------------------------
    Total     187     187      33      33      33       0
   -------------------------------------------------------

  ==> Integral Setup <==

  Using integral reordering PK algorithm.
  Sizing the integral batches needed.
  Building batch lookup table.
   Calculation information:
      Number of atoms:                  23
      Number of AO shells:              93
      Number of primitives:            251
      Number of atomic orbitals:       195
      Number of basis functions:       187

      Integral cutoff                 1.00e-12
      Number of threads:                 1

	Batch   1 pq = [       0,    9405] index = [             0,44231715] size =     44231715
	Batch   2 pq = [    9405,   13301] index = [      44231715,88464951] size =     44233236
	Batch   3 pq = [   13301,   16290] index = [      88464951,132690195] size =     44225244
	Batch   4 pq = [   16290,   17578] index = [     132690195,154501831] size =     21811636
  Task number: 14
  Buffer size: 11059200
  Buffer per thread: 2
  We computed 8475899 shell quartets total.
  Whereas there are 9555006 unique shell quartets.

  ==> DiskJK: Disk-Based J/K Matrices <==

    J tasked:                  Yes
    K tasked:                  Yes
    wK tasked:                  No
    Memory [MiB]:              375
    Schwarz Cutoff:          1E-12

    OpenMP threads:              1

  Minimum eigenvalue in the overlap matrix is 3.3294004948E-03.
  Using Symmetric Orthogonalization.

  SCF Guess: Superposition of Atomic Densities via on-the-fly atomic UHF.

  ==> Iterations <==

                        Total Energy        Delta E     RMS |[F,P]|

   @RHF iter SAD:  -364.01335278135457   -3.64013e+02   0.00000e+00
   @RHF iter   1:  -365.01060897100137   -9.97256e-01   3.75673e-03 DIIS
   @RHF iter   2:  -365.23301731610758   -2.22408e-01   2.04002e-03 DIIS
   @RHF iter   3:  -365.29187941890893   -5.88621e-02   4.51886e-04 DIIS
   @RHF iter   4:  -365.29615695889515   -4.27754e-03   1.90439e-04 DIIS
   @RHF iter   5:  -365.29690881173144   -7.51853e-04   2.73365e-05 DIIS
   @RHF iter   6:  -365.29694428852292   -3.54768e-05   1.11096e-05 DIIS
   @RHF iter   7:  -365.29694924254511   -4.95402e-06   4.63897e-06 DIIS
   @RHF iter   8:  -365.29695030693199   -1.06439e-06   1.72996e-06 DIIS
   @RHF iter   9:  -365.29695046365975   -1.56728e-07   4.14849e-07 DIIS
   @RHF iter  10:  -365.29695047063547   -6.97571e-09   1.40254e-07 DIIS
   @RHF iter  11:  -365.29695047138011   -7.44649e-10   3.72169e-08 DIIS
   @RHF iter  12:  -365.29695047143559   -5.54792e-11   9.30517e-09 DIIS
   @RHF iter  13:  -365.29695047144224   -6.65068e-12   2.91340e-09 DIIS
   @RHF iter  14:  -365.29695047144321   -9.66338e-13   1.31942e-09 DIIS
   @RHF iter  15:  -365.29695047144253    6.82121e-13   6.31598e-10 DIIS
   @RHF iter  16:  -365.29695047144293   -3.97904e-13   2.07666e-10 DIIS
   @RHF iter  17:  -365.29695047144156    1.36424e-12   7.84025e-11 DIIS
  Energy and wave function converged.

  ==> Post-Iterations <==

    Orbital Energies [Eh]
    ---------------------

    Doubly Occupied:

       1A    -20.506246     2A    -15.589408     3A    -11.345248
       4A    -11.236184     5A    -11.229420     6A    -11.228810
       7A    -11.225308     8A    -11.221132     9A     -1.369362
      10A     -1.218643    11A     -1.065310    12A     -1.047579
      13A     -0.934856    14A     -0.884793    15A     -0.810779
      16A     -0.783604    17A     -0.725267    18A     -0.670611
      19A     -0.643105    20A     -0.627246    21A     -0.604542
      22A     -0.588254    23A     -0.556529    24A     -0.553331
      25A     -0.544073    26A     -0.518113    27A     -0.505205
      28A     -0.492716    29A     -0.485695    30A     -0.477733
      31A     -0.472068    32A     -0.411486    33A     -0.405288

    Virtual:

      34A      0.156891    35A      0.177520    36A      0.187820
      37A      0.212304    38A      0.216800    39A      0.230248
      40A      0.241054    41A      0.243751    42A      0.249562
      43A      0.265269    44A      0.271443    45A      0.286414
      46A      0.290663    47A      0.296388    48A      0.317347
      49A      0.343583    50A      0.369555    51A      0.388841
      52A      0.414425    53A      0.432002    54A      0.473468
      55A      0.547590    56A      0.564273    57A      0.598993
      58A      0.606018    59A      0.613743    60A      0.628615
      61A      0.647595    62A      0.656798    63A      0.677829
      64A      0.720100    65A      0.735744    66A      0.758534
      67A      0.782786    68A      0.793458    69A      0.806254
      70A      0.833923    71A      0.851204    72A      0.857264
      73A      0.872152    74A      0.877170    75A      0.883794
      76A      0.888390    77A      0.893377    78A      0.893943
      79A      0.897739    80A      0.904073    81A      0.912885
      82A      0.913037    83A      0.926442    84A      0.940299
      85A      0.955151    86A      0.963062    87A      0.990633
      88A      1.010002    89A      1.045780    90A      1.093042
      91A      1.096083    92A      1.112490    93A      1.121399
      94A      1.135682    95A      1.164735    96A      1.245506
      97A      1.295637    98A      1.321688    99A      1.350271
     100A      1.379333   101A      1.398734   102A      1.409367
     103A      1.434334   104A      1.466938   105A      1.478930
     106A      1.503358   107A      1.508044   108A      1.519574
     109A      1.584493   110A      1.627092   111A      1.664085
     112A      1.680388   113A      1.682793   114A      1.687041
     115A      1.705656   116A      1.737263   117A      1.747896
     118A      1.794083   119A      1.839682   120A      1.853043
     121A      1.870423   122A      1.873288   123A      1.877170
     124A      1.904224   125A      1.908020   126A      1.909851
     127A      1.929844   128A      1.945312   129A      1.952192
     130A      1.953350   131A      1.960014   132A      1.966772
     133A      1.978921   134A      1.987616   135A      1.995530
     136A      2.009576   137A      2.018739   138A      2.025705
     139A      2.028104   140A      2.043044   141A      2.076666
     142A      2.111894   143A      2.115729   144A      2.151878
     145A      2.228612   146A      2.234606   147A      2.274149
     148A      2.279185   149A      2.295841   150A      2.311735
     151A      2.324462   152A      2.340552   153A      2.377625
     154A      2.398420   155A      2.481918   156A      2.486059
     157A      2.497352   158A      2.528996   159A      2.537595
     160A      2.574472   161A      2.596436   162A      2.612546
     163A      2.621278   164A      2.660430   165A      2.691534
     166A      2.742611   167A      2.762098   168A      2.770641
     169A      2.771544   170A      2.786676   171A      2.796919
     172A      2.843879   173A      2.891769   174A      2.908081
     175A      2.921813   176A      2.954699   177A      2.958864
     178A      2.987107   179A      3.000122   180A      3.100423
     181A      3.120001   182A      3.149164   183A      3.295997
     184A      3.511770   185A      3.542084   186A      3.861454
     187A      3.898398

    Final Occupation by Irrep:
              A
    DOCC [    33 ]

  @RHF Final Energy:  -365.29695047144156

   => Energetics <=

    Nuclear Repulsion Energy =            378.8272195066899712
    One-Electron Energy =               -1246.2924521535817348
    Two-Electron Energy =                 502.1682821754502015
    Total Energy =                       -365.2969504714415621

Computation Completed

Properties will be evaluated at   0.000000,   0.000000,   0.000000 [a0]

Properties computed using the SCF density matrix

  Nuclear Dipole Moment: [e a0]
     X:    -1.6004      Y:   -13.5585      Z:     0.6925

  Electronic Dipole Moment: [e a0]
     X:     1.4612      Y:    12.3421      Z:     0.3648

  Dipole Moment: [e a0]
     X:    -0.1392      Y:    -1.2164      Z:     1.0573     Total:     1.6177

  Dipole Moment: [D]
     X:    -0.3538      Y:    -3.0917      Z:     2.6875     Total:     4.1117

*** tstop() called on ds3 at Tue Apr 28 00:22:23 2020
Module time:
	user time   =      54.64 seconds =       0.91 minutes
	system time =      22.22 seconds =       0.37 minutes
	total time  =        136 seconds =       2.27 minutes
Total time:
	user time   =      54.64 seconds =       0.91 minutes
	system time =      22.22 seconds =       0.37 minutes
	total time  =        136 seconds =       2.27 minutes
                                     G D M A

                                 by Anthony Stone

                           version 2.2.06, 22 June 2011

               Distributed Multipoles from Gaussian wavefunctions

Starting at 0:22:23 on 28 Apr 2020

Using SCF density matrix from file ./SSI/SSI-073ARG-163ASN-1-dimer.test.5152.fchk

                         Distributed Multipole Analysis

Standard DMA

Positions and radii in angstrom
Multipole moments in atomic units, ea_0^k for rank k

C          x =  0.329823  y = -2.339324  z =  0.805115 angstrom
           Maximum rank =  0   Radius =  0.650 angstrom
                   Q00  =  -0.059705

C          x = -0.478177  y = -3.233324  z = -0.140885 angstrom
           Maximum rank =  0   Radius =  0.650 angstrom
                   Q00  =  -0.245155

C          x =  1.838823  y = -2.568324  z =  0.760115 angstrom
           Maximum rank =  0   Radius =  0.650 angstrom
                   Q00  =  -0.249723

H          x =  0.195823  y = -1.305324  z =  0.575115 angstrom
           Maximum rank =  0   Radius =  0.325 angstrom
                   Q00  =   0.010405

H          x = -0.011177  y = -2.510324  z =  1.829115 angstrom
           Maximum rank =  0   Radius =  0.325 angstrom
                   Q00  =   0.041674

H          x = -0.228177  y = -4.275324  z =  0.070115 angstrom
           Maximum rank =  0   Radius =  0.325 angstrom
                   Q00  =   0.083351

H          x =  2.049823  y = -3.613324  z =  0.987115 angstrom
           Maximum rank =  0   Radius =  0.325 angstrom
                   Q00  =   0.078857

H          x =  2.216823  y = -2.343324  z = -0.237885 angstrom
           Maximum rank =  0   Radius =  0.325 angstrom
                   Q00  =   0.081671

H          x = -0.258847  y = -2.975284  z = -1.187455 angstrom
           Maximum rank =  0   Radius =  0.325 angstrom
                   Q00  =   0.081414

H          x = -1.558257  y = -3.121764  z =  0.035145 angstrom
           Maximum rank =  0   Radius =  0.325 angstrom
                   Q00  =   0.084884

H          x =  2.348043  y = -1.929824  z =  1.497015 angstrom
           Maximum rank =  0   Radius =  0.325 angstrom
                   Q00  =   0.079489

C          x = -1.214177  y =  0.992676  z = -0.246885 angstrom
           Maximum rank =  0   Radius =  0.650 angstrom
                   Q00  =  -0.184464

C          x = -1.727177  y =  1.201676  z = -1.668885 angstrom
           Maximum rank =  0   Radius =  0.650 angstrom
                   Q00  =  -0.213224

C          x =  0.039823  y =  1.802676  z =  0.041115 angstrom
           Maximum rank =  0   Radius =  0.650 angstrom
                   Q00  =   0.870136

O          x =  0.266823  y =  2.850676  z = -0.561885 angstrom
           Maximum rank =  0   Radius =  0.650 angstrom
                   Q00  =  -0.810903

N          x =  0.855823  y =  1.336676  z =  0.974115 angstrom
           Maximum rank =  0   Radius =  0.650 angstrom
                   Q00  =  -0.530280

H          x = -1.978177  y =  1.338676  z =  0.451115 angstrom
           Maximum rank =  0   Radius =  0.325 angstrom
                   Q00  =   0.104646

H          x = -1.109177  y = -0.059324  z = -0.085885 angstrom
           Maximum rank =  0   Radius =  0.325 angstrom
                   Q00  =   0.076996

H          x = -1.852177  y =  2.275676  z = -1.820885 angstrom
           Maximum rank =  0   Radius =  0.325 angstrom
                   Q00  =   0.113890

H          x =  1.629823  y =  1.929676  z =  1.245115 angstrom
           Maximum rank =  0   Radius =  0.325 angstrom
                   Q00  =   0.215514

H          x =  0.539823  y =  0.597676  z =  1.582115 angstrom
           Maximum rank =  0   Radius =  0.325 angstrom
                   Q00  =   0.205545

H          x = -2.692887  y =  0.689746  z = -1.792715 angstrom
           Maximum rank =  0   Radius =  0.325 angstrom
                   Q00  =   0.078394

H          x = -0.997147  y =  0.829076  z = -2.402525 angstrom
           Maximum rank =  0   Radius =  0.325 angstrom
                   Q00  =   0.086586

Total multipoles referred to origin at
           x =   0.000000,  y =    0.000000,  z =    0.000000 angstrom
                   Q00  =  -0.000000

Finished at 0:22:23 on 28 Apr 2020

  DMA results are available in the Python driver through the
	  variable('DMA DISTRIBUTED MULTIPOLES')
  and
	  variable('DMA TOTAL MULTIPOLES')
  commands.

    Psi4 stopped on: Tuesday, 28 April 2020 12:22AM
    Psi4 wall time for execution: 0:02:15.71

*** Psi4 exiting successfully. Buy a developer a beer!
