                               Psi4 1.3.2 release

  ==> Input File <==

--------------------------------------------------------------------------
import numpy as np
set {scf_type pk
basis cc-pvdz
d_convergence 10
gdma_switch   0
gdma_limit    0
gdma_origin   [ 0.0,  0.0,  0.0 ]
}
molecule test {
    units Angstrom
    0 1
    --
    0 1
    C               -0.209629048970810    -1.765231230593916     0.493327426438211
    C               -0.830629048970810    -3.148231230593916     0.718327426438211
    C                1.131370951029190    -1.831231230593916    -0.289672573561789
    H               -0.917629048970810    -1.150231230593916    -0.064672573561789
    H               -0.039629048970810    -1.282231230593916     1.454327426438211
    H               -0.059629048970810    -3.803231230593916     1.116327426438211
    H                0.935370951029190    -2.259231230593916    -1.271672573561789
    H                1.507370951029190    -0.820231230593916    -0.438672573561789
    H               -1.212349048970810    -3.550981230593916    -0.231452573561789
    H               -1.630249048970810    -3.051701230593916     1.467517426438211
    H                1.924760951029190    -2.413261230593916     0.202037426438211
    C               -0.265629048970810     1.819768769406084    -0.598672573561789
    C               -0.547629048970810     2.178768769406084     0.839327426438211
    C                0.685370951029190     2.738768769406084    -1.163672573561789
    H               -1.190629048970810     1.824768769406084    -1.177672573561789
    H                0.155370951029190     0.820768769406084    -0.635672573561789
    H               -1.591629048970810     2.470768769406084     0.956327426438211
    H               -0.297629048970810     1.340768769406084     1.493327426438211
    H                0.152370951029190     3.430768769406084    -1.819672573561789
    H                1.447370951029190     2.217768769406085    -1.739672573561789
    H                0.122160951029190     3.032658769406084     1.018937426438211
    H                1.132460951029191     3.280788769406084    -0.317312573561789

}
e, wfn = energy('scf', return_wfn=True)
gdma(wfn)
dmavals = variable('DMA DISTRIBUTED MULTIPOLES')
charges = np.array(dmavals)
print(charges)
np.save('SSI-238MET-247PRO-1-dimer.npy', np.array(charges))--------------------------------------------------------------------------

*** tstart() called on ds3
*** at Tue Apr 28 09:15:49 2020

   => Loading Basis Set <=

    Name: CC-PVDZ
    Role: ORBITAL
    Keyword: BASIS
    atoms 1-3, 12-14  entry C          line   138 file /theoryfs2/ds/metcalf/miniconda2/envs/tf2gpu/share/psi4/basis/cc-pvdz.gbs
    atoms 4-11, 15-22 entry H          line    22 file /theoryfs2/ds/metcalf/miniconda2/envs/tf2gpu/share/psi4/basis/cc-pvdz.gbs

         ---------------------------------------------------------
                                   SCF
               by Justin Turney, Rob Parrish, Andy Simmonett
                          and Daniel G. A. Smith
                              RHF Reference
                        1 Threads,    500 MiB Core
         ---------------------------------------------------------

  ==> Geometry <==

    Molecular point group: c1
    Full point group: C1

    Geometry (in Angstrom), charge = 0, multiplicity = 1:

       Center              X                  Y                   Z               Mass
    ------------   -----------------  -----------------  -----------------  -----------------
         C           -0.209629048971    -1.765231230594     0.493327426438    12.000000000000
         C           -0.830629048971    -3.148231230594     0.718327426438    12.000000000000
         C            1.131370951029    -1.831231230594    -0.289672573562    12.000000000000
         H           -0.917629048971    -1.150231230594    -0.064672573562     1.007825032230
         H           -0.039629048971    -1.282231230594     1.454327426438     1.007825032230
         H           -0.059629048971    -3.803231230594     1.116327426438     1.007825032230
         H            0.935370951029    -2.259231230594    -1.271672573562     1.007825032230
         H            1.507370951029    -0.820231230594    -0.438672573562     1.007825032230
         H           -1.212349048971    -3.550981230594    -0.231452573562     1.007825032230
         H           -1.630249048971    -3.051701230594     1.467517426438     1.007825032230
         H            1.924760951029    -2.413261230594     0.202037426438     1.007825032230
         C           -0.265629048971     1.819768769406    -0.598672573562    12.000000000000
         C           -0.547629048971     2.178768769406     0.839327426438    12.000000000000
         C            0.685370951029     2.738768769406    -1.163672573562    12.000000000000
         H           -1.190629048971     1.824768769406    -1.177672573562     1.007825032230
         H            0.155370951029     0.820768769406    -0.635672573562     1.007825032230
         H           -1.591629048971     2.470768769406     0.956327426438     1.007825032230
         H           -0.297629048971     1.340768769406     1.493327426438     1.007825032230
         H            0.152370951029     3.430768769406    -1.819672573562     1.007825032230
         H            1.447370951029     2.217768769406    -1.739672573562     1.007825032230
         H            0.122160951029     3.032658769406     1.018937426438     1.007825032230
         H            1.132460951029     3.280788769406    -0.317312573562     1.007825032230

  Running in c1 symmetry.

  Rotational constants: A =      0.17007  B =      0.03259  C =      0.02924 [cm^-1]
  Rotational constants: A =   5098.69205  B =    977.15252  C =    876.68315 [MHz]
  Nuclear repulsion =  244.314874428474667

  Charge       = 0
  Multiplicity = 1
  Electrons    = 52
  Nalpha       = 26
  Nbeta        = 26

  ==> Algorithm <==

  SCF Algorithm Type is PK.
  DIIS enabled.
  MOM disabled.
  Fractional occupation disabled.
  Guess Type is SAD.
  Energy threshold   = 1.00e-06
  Density threshold  = 1.00e-10
  Integral threshold = 0.00e+00

  ==> Primary Basis <==

  Basis Set: CC-PVDZ
    Blend: CC-PVDZ
    Number of shells: 84
    Number of basis function: 164
    Number of Cartesian functions: 170
    Spherical Harmonics?: true
    Max angular momentum: 2

  ==> Pre-Iterations <==

   -------------------------------------------------------
    Irrep   Nso     Nmo     Nalpha   Nbeta   Ndocc  Nsocc
   -------------------------------------------------------
     A        164     164       0       0       0       0
   -------------------------------------------------------
    Total     164     164      26      26      26       0
   -------------------------------------------------------

  ==> Integral Setup <==

  Using integral reordering PK algorithm.
  Sizing the integral batches needed.
  Building batch lookup table.
   Calculation information:
      Number of atoms:                  22
      Number of AO shells:              84
      Number of primitives:            212
      Number of atomic orbitals:       170
      Number of basis functions:       164

      Integral cutoff                 1.00e-12
      Number of threads:                 1

	Batch   1 pq = [       0,    9405] index = [             0,44231715] size =     44231715
	Batch   2 pq = [    9405,   13530] index = [      44231715,91537215] size =     47305500
  Task number: 9
  Buffer size: 11059200
  Buffer per thread: 2
  We computed 5659330 shell quartets total.
  Whereas there are 6374235 unique shell quartets.

  ==> DiskJK: Disk-Based J/K Matrices <==

    J tasked:                  Yes
    K tasked:                  Yes
    wK tasked:                  No
    Memory [MiB]:              375
    Schwarz Cutoff:          1E-12

    OpenMP threads:              1

  Minimum eigenvalue in the overlap matrix is 3.8958663778E-03.
  Using Symmetric Orthogonalization.

  SCF Guess: Superposition of Atomic Densities via on-the-fly atomic UHF.

  ==> Iterations <==

                        Total Energy        Delta E     RMS |[F,P]|

   @RHF iter SAD:  -235.63990496747090   -2.35640e+02   0.00000e+00
   @RHF iter   1:  -236.27644280353499   -6.36538e-01   3.59754e-03 DIIS
   @RHF iter   2:  -236.46970988586676   -1.93267e-01   1.58539e-03 DIIS
   @RHF iter   3:  -236.50578136735217   -3.60715e-02   3.11097e-04 DIIS
   @RHF iter   4:  -236.50843499701145   -2.65363e-03   5.18544e-05 DIIS
   @RHF iter   5:  -236.50849106273455   -5.60657e-05   1.41815e-05 DIIS
   @RHF iter   6:  -236.50849564725257   -4.58452e-06   2.35823e-06 DIIS
   @RHF iter   7:  -236.50849578827797   -1.41025e-07   4.99577e-07 DIIS
   @RHF iter   8:  -236.50849579548839   -7.21042e-09   1.21918e-07 DIIS
   @RHF iter   9:  -236.50849579590064   -4.12257e-10   4.15974e-08 DIIS
   @RHF iter  10:  -236.50849579595172   -5.10738e-11   8.85204e-09 DIIS
   @RHF iter  11:  -236.50849579595635   -4.63274e-12   2.13217e-09 DIIS
   @RHF iter  12:  -236.50849579595547    8.81073e-13   6.39629e-10 DIIS
   @RHF iter  13:  -236.50849579595601   -5.40012e-13   1.20262e-10 DIIS
   @RHF iter  14:  -236.50849579595689   -8.81073e-13   3.32959e-11 DIIS
  Energy and wave function converged.

  ==> Post-Iterations <==

    Orbital Energies [Eh]
    ---------------------

    Doubly Occupied:

       1A    -11.222503     2A    -11.218681     3A    -11.217864
       4A    -11.210106     5A    -11.205324     6A    -11.202654
       7A     -1.079617     8A     -1.049458     9A     -0.924489
      10A     -0.923011    11A     -0.799011    12A     -0.791954
      13A     -0.638823    14A     -0.625604    15A     -0.623922
      16A     -0.591286    17A     -0.549347    18A     -0.541791
      19A     -0.534878    20A     -0.526263    21A     -0.482502
      22A     -0.473160    23A     -0.472270    24A     -0.464302
      25A     -0.462103    26A     -0.447952

    Virtual:

      27A      0.168854    28A      0.194892    29A      0.210323
      30A      0.213817    31A      0.228201    32A      0.234800
      33A      0.240545    34A      0.265171    35A      0.267591
      36A      0.275728    37A      0.300906    38A      0.305099
      39A      0.312703    40A      0.334188    41A      0.338548
      42A      0.366154    43A      0.383969    44A      0.410909
      45A      0.417826    46A      0.469506    47A      0.562955
      48A      0.578336    49A      0.586045    50A      0.603087
      51A      0.619997    52A      0.627221    53A      0.667899
      54A      0.681041    55A      0.713340    56A      0.725467
      57A      0.746091    58A      0.770777    59A      0.794184
      60A      0.816046    61A      0.839956    62A      0.856056
      63A      0.873094    64A      0.882314    65A      0.889961
      66A      0.896146    67A      0.898455    68A      0.902070
      69A      0.915506    70A      0.917090    71A      0.922688
      72A      0.926672    73A      0.932906    74A      0.939845
      75A      0.954122    76A      0.958587    77A      0.968702
      78A      0.996004    79A      1.004668    80A      1.035112
      81A      1.061487    82A      1.098560    83A      1.121976
      84A      1.148620    85A      1.209065    86A      1.266568
      87A      1.389674    88A      1.433392    89A      1.451603
      90A      1.486760    91A      1.502299    92A      1.530557
      93A      1.555509    94A      1.621122    95A      1.630099
      96A      1.637369    97A      1.658599    98A      1.673319
      99A      1.689853   100A      1.703655   101A      1.716207
     102A      1.735607   103A      1.791692   104A      1.843301
     105A      1.867226   106A      1.874719   107A      1.880658
     108A      1.896755   109A      1.899877   110A      1.914948
     111A      1.921598   112A      1.939491   113A      1.949862
     114A      1.956184   115A      1.964119   116A      1.967195
     117A      1.971411   118A      1.984666   119A      1.995442
     120A      2.006750   121A      2.011135   122A      2.030594
     123A      2.044082   124A      2.048547   125A      2.077459
     126A      2.102401   127A      2.141300   128A      2.152321
     129A      2.189672   130A      2.278132   131A      2.288439
     132A      2.301486   133A      2.324169   134A      2.348178
     135A      2.355490   136A      2.365620   137A      2.396587
     138A      2.410253   139A      2.448474   140A      2.483779
     141A      2.486331   142A      2.533876   143A      2.566782
     144A      2.599469   145A      2.603295   146A      2.647063
     147A      2.690293   148A      2.742812   149A      2.755987
     150A      2.763667   151A      2.778708   152A      2.785781
     153A      2.799881   154A      2.814592   155A      2.827949
     156A      2.838719   157A      2.845343   158A      2.870188
     159A      2.898521   160A      2.951734   161A      2.970450
     162A      2.974632   163A      3.056796   164A      3.089900

    Final Occupation by Irrep:
              A
    DOCC [    26 ]

  @RHF Final Energy:  -236.50849579595689

   => Energetics <=

    Nuclear Repulsion Energy =            244.3148744284746670
    One-Electron Energy =                -801.0889946975012208
    Two-Electron Energy =                 320.2656244730696358
    Total Energy =                       -236.5084957959568897

Computation Completed

Properties will be evaluated at   0.000000,   0.000000,   0.000000 [a0]

Properties computed using the SCF density matrix

  Nuclear Dipole Moment: [e a0]
     X:     0.4105      Y:     0.0825      Z:     0.0116

  Electronic Dipole Moment: [e a0]
     X:    -0.4400      Y:    -0.1158      Z:    -0.0300

  Dipole Moment: [e a0]
     X:    -0.0295      Y:    -0.0333      Z:    -0.0184     Total:     0.0482

  Dipole Moment: [D]
     X:    -0.0751      Y:    -0.0846      Z:    -0.0469     Total:     0.1225

*** tstop() called on ds3 at Tue Apr 28 09:16:37 2020
Module time:
	user time   =      34.95 seconds =       0.58 minutes
	system time =      15.27 seconds =       0.25 minutes
	total time  =         48 seconds =       0.80 minutes
Total time:
	user time   =      34.95 seconds =       0.58 minutes
	system time =      15.27 seconds =       0.25 minutes
	total time  =         48 seconds =       0.80 minutes
                                     G D M A

                                 by Anthony Stone

                           version 2.2.06, 22 June 2011

               Distributed Multipoles from Gaussian wavefunctions

Starting at 9:16:37 on 28 Apr 2020

Using SCF density matrix from file ./SSI/SSI-238MET-247PRO-1-dimer.test.9887.fchk

                         Distributed Multipole Analysis

Standard DMA

Positions and radii in angstrom
Multipole moments in atomic units, ea_0^k for rank k

C          x = -0.209629  y = -1.765231  z =  0.493327 angstrom
           Maximum rank =  0   Radius =  0.650 angstrom
                   Q00  =  -0.090957

C          x = -0.830629  y = -3.148231  z =  0.718327 angstrom
           Maximum rank =  0   Radius =  0.650 angstrom
                   Q00  =  -0.235338

C          x =  1.131371  y = -1.831231  z = -0.289673 angstrom
           Maximum rank =  0   Radius =  0.650 angstrom
                   Q00  =  -0.256691

H          x = -0.917629  y = -1.150231  z = -0.064673 angstrom
           Maximum rank =  0   Radius =  0.325 angstrom
                   Q00  =   0.053096

H          x = -0.039629  y = -1.282231  z =  1.454327 angstrom
           Maximum rank =  0   Radius =  0.325 angstrom
                   Q00  =   0.050197

H          x = -0.059629  y = -3.803231  z =  1.116327 angstrom
           Maximum rank =  0   Radius =  0.325 angstrom
                   Q00  =   0.076587

H          x =  0.935371  y = -2.259231  z = -1.271673 angstrom
           Maximum rank =  0   Radius =  0.325 angstrom
                   Q00  =   0.077580

H          x =  1.507371  y = -0.820231  z = -0.438673 angstrom
           Maximum rank =  0   Radius =  0.325 angstrom
                   Q00  =   0.082934

H          x = -1.212349  y = -3.550981  z = -0.231453 angstrom
           Maximum rank =  0   Radius =  0.325 angstrom
                   Q00  =   0.079173

H          x = -1.630249  y = -3.051701  z =  1.467517 angstrom
           Maximum rank =  0   Radius =  0.325 angstrom
                   Q00  =   0.083437

H          x =  1.924761  y = -2.413261  z =  0.202037 angstrom
           Maximum rank =  0   Radius =  0.325 angstrom
                   Q00  =   0.083021

C          x = -0.265629  y =  1.819769  z = -0.598673 angstrom
           Maximum rank =  0   Radius =  0.650 angstrom
                   Q00  =  -0.108127

C          x = -0.547629  y =  2.178769  z =  0.839327 angstrom
           Maximum rank =  0   Radius =  0.650 angstrom
                   Q00  =  -0.225914

C          x =  0.685371  y =  2.738769  z = -1.163673 angstrom
           Maximum rank =  0   Radius =  0.650 angstrom
                   Q00  =  -0.209179

H          x = -1.190629  y =  1.824769  z = -1.177673 angstrom
           Maximum rank =  0   Radius =  0.325 angstrom
                   Q00  =   0.050520

H          x =  0.155371  y =  0.820769  z = -0.635673 angstrom
           Maximum rank =  0   Radius =  0.325 angstrom
                   Q00  =   0.048718

H          x = -1.591629  y =  2.470769  z =  0.956327 angstrom
           Maximum rank =  0   Radius =  0.325 angstrom
                   Q00  =   0.086954

H          x = -0.297629  y =  1.340769  z =  1.493327 angstrom
           Maximum rank =  0   Radius =  0.325 angstrom
                   Q00  =   0.090088

H          x =  0.152371  y =  3.430769  z = -1.819673 angstrom
           Maximum rank =  0   Radius =  0.325 angstrom
                   Q00  =   0.078252

H          x =  1.447371  y =  2.217769  z = -1.739673 angstrom
           Maximum rank =  0   Radius =  0.325 angstrom
                   Q00  =   0.081316

H          x =  0.122161  y =  3.032659  z =  1.018937 angstrom
           Maximum rank =  0   Radius =  0.325 angstrom
                   Q00  =   0.057592

H          x =  1.132461  y =  3.280789  z = -0.317313 angstrom
           Maximum rank =  0   Radius =  0.325 angstrom
                   Q00  =   0.046741

Total multipoles referred to origin at
           x =   0.000000,  y =    0.000000,  z =    0.000000 angstrom
                   Q00  =  -0.000000

Finished at 9:16:37 on 28 Apr 2020

  DMA results are available in the Python driver through the
	  variable('DMA DISTRIBUTED MULTIPOLES')
  and
	  variable('DMA TOTAL MULTIPOLES')
  commands.

    Psi4 stopped on: Tuesday, 28 April 2020 09:16AM
    Psi4 wall time for execution: 0:00:48.61

*** Psi4 exiting successfully. Buy a developer a beer!
