                               Psi4 1.3.2 release

  ==> Input File <==

--------------------------------------------------------------------------
import numpy as np
set {scf_type pk
basis cc-pvdz
d_convergence 10
gdma_switch   0
gdma_limit    0
gdma_origin   [ 0.0,  0.0,  0.0 ]
}
molecule test {
    units Angstrom
    0 1
    --
    0 1
    C               -0.563215333732411    -1.138995127090834     2.651214417273492
    C                0.598784666267589     0.104004872909167     0.813214417273492
    C               -0.559215333732411    -0.116995127090833     1.557214417273492
    C                0.627784666267589     1.087004872909167    -0.169785582726508
    C               -0.505215333732411     1.850004872909167    -0.414785582726508
    C               -1.693215333732411     0.655004872909167     1.309214417273492
    C               -1.665215333732411     1.641004872909167     0.319214417273492
    H                1.484784666267589    -0.482995127090833     1.005214417273492
    H                1.531784666267589     1.258004872909166    -0.736785582726508
    H                0.059784666267589    -1.977995127090833     2.340214417273492
    H               -1.577215333732411    -1.517995127090833     2.778214417273492
    H               -0.488215333732411     2.605004872909167    -1.186785582726508
    H               -2.593215333732410     0.500004872909167     1.887214417273492
    H               -2.545215333732411     2.241004872909167     0.126214417273492
    H               -0.187078333732411    -0.750635127090833     3.609174417273492
    C                1.303784666267589    -1.409995127090834    -2.137785582726508
    C                1.991784666267589    -1.973995127090833    -3.364785582726508
    H                0.742784666267589    -0.516995127090833    -2.398785582726508
    H                0.603784666267589    -2.143995127090833    -1.738785582726508
    H                2.047784666267589    -1.166995127090833    -1.379785582726508
    H                1.229784666267589    -2.220995127090833    -4.099785582726508
    H                2.675921666267589    -1.232545127090834    -3.803205582726508
    H                2.538555666267590    -2.892455127090833    -3.105035582726508

}
e, wfn = energy('scf', return_wfn=True)
gdma(wfn)
dmavals = variable('DMA DISTRIBUTED MULTIPOLES')
charges = np.array(dmavals)
print(charges)
np.save('SSI-007PHE-024VAL-1-dimer.npy', np.array(charges))--------------------------------------------------------------------------

*** tstart() called on ds3
*** at Tue Apr 28 09:42:08 2020

   => Loading Basis Set <=

    Name: CC-PVDZ
    Role: ORBITAL
    Keyword: BASIS
    atoms 1-7, 16-17  entry C          line   138 file /theoryfs2/ds/metcalf/miniconda2/envs/tf2gpu/share/psi4/basis/cc-pvdz.gbs
    atoms 8-15, 18-23 entry H          line    22 file /theoryfs2/ds/metcalf/miniconda2/envs/tf2gpu/share/psi4/basis/cc-pvdz.gbs

         ---------------------------------------------------------
                                   SCF
               by Justin Turney, Rob Parrish, Andy Simmonett
                          and Daniel G. A. Smith
                              RHF Reference
                        1 Threads,    500 MiB Core
         ---------------------------------------------------------

  ==> Geometry <==

    Molecular point group: c1
    Full point group: C1

    Geometry (in Angstrom), charge = 0, multiplicity = 1:

       Center              X                  Y                   Z               Mass
    ------------   -----------------  -----------------  -----------------  -----------------
         C           -0.563215333732    -1.138995127091     2.651214417273    12.000000000000
         C            0.598784666268     0.104004872909     0.813214417273    12.000000000000
         C           -0.559215333732    -0.116995127091     1.557214417273    12.000000000000
         C            0.627784666268     1.087004872909    -0.169785582727    12.000000000000
         C           -0.505215333732     1.850004872909    -0.414785582727    12.000000000000
         C           -1.693215333732     0.655004872909     1.309214417273    12.000000000000
         C           -1.665215333732     1.641004872909     0.319214417273    12.000000000000
         H            1.484784666268    -0.482995127091     1.005214417273     1.007825032230
         H            1.531784666268     1.258004872909    -0.736785582727     1.007825032230
         H            0.059784666268    -1.977995127091     2.340214417273     1.007825032230
         H           -1.577215333732    -1.517995127091     2.778214417273     1.007825032230
         H           -0.488215333732     2.605004872909    -1.186785582727     1.007825032230
         H           -2.593215333732     0.500004872909     1.887214417273     1.007825032230
         H           -2.545215333732     2.241004872909     0.126214417273     1.007825032230
         H           -0.187078333732    -0.750635127091     3.609174417273     1.007825032230
         C            1.303784666268    -1.409995127091    -2.137785582727    12.000000000000
         C            1.991784666268    -1.973995127091    -3.364785582727    12.000000000000
         H            0.742784666268    -0.516995127091    -2.398785582727     1.007825032230
         H            0.603784666268    -2.143995127091    -1.738785582727     1.007825032230
         H            2.047784666268    -1.166995127091    -1.379785582727     1.007825032230
         H            1.229784666268    -2.220995127091    -4.099785582727     1.007825032230
         H            2.675921666268    -1.232545127091    -3.803205582727     1.007825032230
         H            2.538555666268    -2.892455127091    -3.105035582727     1.007825032230

  Running in c1 symmetry.

  Rotational constants: A =      0.07205  B =      0.02598  C =      0.02120 [cm^-1]
  Rotational constants: A =   2159.91924  B =    778.99160  C =    635.61757 [MHz]
  Nuclear repulsion =  410.800560959682684

  Charge       = 0
  Multiplicity = 1
  Electrons    = 68
  Nalpha       = 34
  Nbeta        = 34

  ==> Algorithm <==

  SCF Algorithm Type is PK.
  DIIS enabled.
  MOM disabled.
  Fractional occupation disabled.
  Guess Type is SAD.
  Energy threshold   = 1.00e-06
  Density threshold  = 1.00e-10
  Integral threshold = 0.00e+00

  ==> Primary Basis <==

  Basis Set: CC-PVDZ
    Blend: CC-PVDZ
    Number of shells: 96
    Number of basis function: 196
    Number of Cartesian functions: 205
    Spherical Harmonics?: true
    Max angular momentum: 2

  ==> Pre-Iterations <==

   -------------------------------------------------------
    Irrep   Nso     Nmo     Nalpha   Nbeta   Ndocc  Nsocc
   -------------------------------------------------------
     A        196     196       0       0       0       0
   -------------------------------------------------------
    Total     196     196      34      34      34       0
   -------------------------------------------------------

  ==> Integral Setup <==

  Using integral reordering PK algorithm.
  Sizing the integral batches needed.
  Building batch lookup table.
   Calculation information:
      Number of atoms:                  23
      Number of AO shells:              96
      Number of primitives:            268
      Number of atomic orbitals:       205
      Number of basis functions:       196

      Integral cutoff                 1.00e-12
      Number of threads:                 1

	Batch   1 pq = [       0,    9405] index = [             0,44231715] size =     44231715
	Batch   2 pq = [    9405,   13301] index = [      44231715,88464951] size =     44233236
	Batch   3 pq = [   13301,   16290] index = [      88464951,132690195] size =     44225244
	Batch   4 pq = [   16290,   18810] index = [     132690195,176917455] size =     44227260
	Batch   5 pq = [   18810,   19306] index = [     176917455,186370471] size =      9453016
  Task number: 17
  Buffer size: 11059200
  Buffer per thread: 2
  We computed 9615027 shell quartets total.
  Whereas there are 10841496 unique shell quartets.

  ==> DiskJK: Disk-Based J/K Matrices <==

    J tasked:                  Yes
    K tasked:                  Yes
    wK tasked:                  No
    Memory [MiB]:              375
    Schwarz Cutoff:          1E-12

    OpenMP threads:              1

  Minimum eigenvalue in the overlap matrix is 3.1158445666E-04.
  Using Symmetric Orthogonalization.

  SCF Guess: Superposition of Atomic Densities via on-the-fly atomic UHF.

  ==> Iterations <==

                        Total Energy        Delta E     RMS |[F,P]|

   @RHF iter SAD:  -347.94730079720296   -3.47947e+02   0.00000e+00
   @RHF iter   1:  -348.76089451209810   -8.13594e-01   2.91627e-03 DIIS
   @RHF iter   2:  -348.95633618092921   -1.95442e-01   1.20425e-03 DIIS
   @RHF iter   3:  -348.98670023367106   -3.03641e-02   2.59992e-04 DIIS
   @RHF iter   4:  -348.98919345723459   -2.49322e-03   5.48530e-05 DIIS
   @RHF iter   5:  -348.98927087675730   -7.74195e-05   1.83313e-05 DIIS
   @RHF iter   6:  -348.98927908749181   -8.21073e-06   4.89279e-06 DIIS
   @RHF iter   7:  -348.98927976366838   -6.76177e-07   1.23810e-06 DIIS
   @RHF iter   8:  -348.98927980956393   -4.58955e-08   2.80119e-07 DIIS
   @RHF iter   9:  -348.98927981325460   -3.69067e-09   1.04727e-07 DIIS
   @RHF iter  10:  -348.98927981386481   -6.10214e-10   4.73795e-08 DIIS
   @RHF iter  11:  -348.98927981405166   -1.86844e-10   1.97988e-08 DIIS
   @RHF iter  12:  -348.98927981409150   -3.98472e-11   9.65989e-09 DIIS
   @RHF iter  13:  -348.98927981410048   -8.98126e-12   4.35524e-09 DIIS
   @RHF iter  14:  -348.98927981410276   -2.27374e-12   1.17991e-09 DIIS
   @RHF iter  15:  -348.98927981410179    9.66338e-13   3.44309e-10 DIIS
   @RHF iter  16:  -348.98927981410168    1.13687e-13   7.64339e-11 DIIS
  Energy and wave function converged.

  ==> Post-Iterations <==

    Orbital Energies [Eh]
    ---------------------

    Doubly Occupied:

       1A    -11.238567     2A    -11.234871     3A    -11.233351
       4A    -11.229616     5A    -11.228714     6A    -11.228022
       7A    -11.227518     8A    -11.214033     9A    -11.209510
      10A     -1.152116    11A     -1.044958    12A     -1.018670
      13A     -1.009980    14A     -0.930010    15A     -0.832265
      16A     -0.824567    17A     -0.793214    18A     -0.690012
      19A     -0.630888    20A     -0.630007    21A     -0.597803
      22A     -0.595296    23A     -0.581595    24A     -0.577454
      25A     -0.560976    26A     -0.533806    27A     -0.502471
      28A     -0.486367    29A     -0.483963    30A     -0.481237
      31A     -0.479454    32A     -0.476525    33A     -0.329493
      34A     -0.321017

    Virtual:

      35A      0.135566    36A      0.142731    37A      0.174344
      38A      0.195127    39A      0.203620    40A      0.219943
      41A      0.234850    42A      0.245608    43A      0.255576
      44A      0.263485    45A      0.270893    46A      0.274016
      47A      0.285393    48A      0.287935    49A      0.301498
      50A      0.320929    51A      0.367379    52A      0.385645
      53A      0.404956    54A      0.454733    55A      0.464786
      56A      0.482068    57A      0.495578    58A      0.564617
      59A      0.580949    60A      0.598969    61A      0.607742
      62A      0.610814    63A      0.647040    64A      0.669722
      65A      0.682371    66A      0.683600    67A      0.700990
      68A      0.706750    69A      0.726827    70A      0.739240
      71A      0.743585    72A      0.752142    73A      0.765001
      74A      0.776547    75A      0.789756    76A      0.810703
      77A      0.845447    78A      0.860441    79A      0.864808
      80A      0.874356    81A      0.881560    82A      0.892787
      83A      0.895457    84A      0.896476    85A      0.902170
      86A      0.906503    87A      0.919698    88A      0.925708
      89A      0.936867    90A      0.949330    91A      0.953109
      92A      0.974896    93A      0.990814    94A      1.004897
      95A      1.034821    96A      1.058666    97A      1.117052
      98A      1.126507    99A      1.136897   100A      1.146859
     101A      1.164817   102A      1.180160   103A      1.191367
     104A      1.226342   105A      1.250850   106A      1.251114
     107A      1.262500   108A      1.290932   109A      1.308497
     110A      1.319963   111A      1.328384   112A      1.351354
     113A      1.411903   114A      1.483193   115A      1.489636
     116A      1.511023   117A      1.529021   118A      1.564907
     119A      1.584386   120A      1.612777   121A      1.680222
     122A      1.683333   123A      1.696885   124A      1.705978
     125A      1.739466   126A      1.751061   127A      1.771644
     128A      1.793210   129A      1.809105   130A      1.863626
     131A      1.868854   132A      1.877149   133A      1.892347
     134A      1.902083   135A      1.914667   136A      1.917221
     137A      1.922113   138A      1.931198   139A      1.944762
     140A      1.948721   141A      1.955105   142A      1.958292
     143A      1.967080   144A      1.974164   145A      1.996904
     146A      1.999771   147A      2.009920   148A      2.042722
     149A      2.052265   150A      2.067522   151A      2.078371
     152A      2.099283   153A      2.117664   154A      2.126503
     155A      2.149205   156A      2.154802   157A      2.173556
     158A      2.180908   159A      2.191947   160A      2.265205
     161A      2.281934   162A      2.289948   163A      2.301706
     164A      2.311013   165A      2.314786   166A      2.336812
     167A      2.365560   168A      2.465486   169A      2.476941
     170A      2.483036   171A      2.490841   172A      2.504750
     173A      2.545735   174A      2.570363   175A      2.584861
     176A      2.624708   177A      2.743303   178A      2.761965
     179A      2.768184   180A      2.770125   181A      2.796149
     182A      2.802928   183A      2.815360   184A      2.849521
     185A      2.860340   186A      2.867540   187A      2.879936
     188A      2.964586   189A      2.973389   190A      2.983937
     191A      3.022425   192A      3.032884   193A      3.155468
     194A      3.208257   195A      3.300738   196A      3.977169

    Final Occupation by Irrep:
              A
    DOCC [    34 ]

  @RHF Final Energy:  -348.98927981410168

   => Energetics <=

    Nuclear Repulsion Energy =            410.8005609596826844
    One-Electron Energy =               -1284.3629867880049460
    Two-Electron Energy =                 524.5731460142205833
    Total Energy =                       -348.9892798141016783

Computation Completed

Properties will be evaluated at   0.000000,   0.000000,   0.000000 [a0]

Properties computed using the SCF density matrix

  Nuclear Dipole Moment: [e a0]
     X:     5.1786      Y:    -7.7806      Z:    -6.2836

  Electronic Dipole Moment: [e a0]
     X:    -5.2068      Y:     7.7185      Z:     6.3917

  Dipole Moment: [e a0]
     X:    -0.0282      Y:    -0.0621      Z:     0.1081     Total:     0.1278

  Dipole Moment: [D]
     X:    -0.0717      Y:    -0.1578      Z:     0.2748     Total:     0.3249

*** tstop() called on ds3 at Tue Apr 28 09:44:05 2020
Module time:
	user time   =      66.79 seconds =       1.11 minutes
	system time =      25.85 seconds =       0.43 minutes
	total time  =        117 seconds =       1.95 minutes
Total time:
	user time   =      66.79 seconds =       1.11 minutes
	system time =      25.85 seconds =       0.43 minutes
	total time  =        117 seconds =       1.95 minutes
                                     G D M A

                                 by Anthony Stone

                           version 2.2.06, 22 June 2011

               Distributed Multipoles from Gaussian wavefunctions

Starting at 9:44:5 on 28 Apr 2020

Using SCF density matrix from file ./SSI/SSI-007PHE-024VAL-1-dimer.test.18076.fchk

                         Distributed Multipole Analysis

Standard DMA

Positions and radii in angstrom
Multipole moments in atomic units, ea_0^k for rank k

C          x = -0.563215  y = -1.138995  z =  2.651214 angstrom
           Maximum rank =  0   Radius =  0.650 angstrom
                   Q00  =  -0.196387

C          x =  0.598785  y =  0.104005  z =  0.813214 angstrom
           Maximum rank =  0   Radius =  0.650 angstrom
                   Q00  =  -0.016493

C          x = -0.559215  y = -0.116995  z =  1.557214 angstrom
           Maximum rank =  0   Radius =  0.650 angstrom
                   Q00  =  -0.100802

C          x =  0.627785  y =  1.087005  z = -0.169786 angstrom
           Maximum rank =  0   Radius =  0.650 angstrom
                   Q00  =  -0.065899

C          x = -0.505215  y =  1.850005  z = -0.414786 angstrom
           Maximum rank =  0   Radius =  0.650 angstrom
                   Q00  =  -0.060839

C          x = -1.693215  y =  0.655005  z =  1.309214 angstrom
           Maximum rank =  0   Radius =  0.650 angstrom
                   Q00  =  -0.091829

C          x = -1.665215  y =  1.641005  z =  0.319214 angstrom
           Maximum rank =  0   Radius =  0.650 angstrom
                   Q00  =  -0.068685

H          x =  1.484785  y = -0.482995  z =  1.005214 angstrom
           Maximum rank =  0   Radius =  0.325 angstrom
                   Q00  =   0.055137

H          x =  1.531785  y =  1.258005  z = -0.736786 angstrom
           Maximum rank =  0   Radius =  0.325 angstrom
                   Q00  =   0.064838

H          x =  0.059785  y = -1.977995  z =  2.340214 angstrom
           Maximum rank =  0   Radius =  0.325 angstrom
                   Q00  =   0.096142

H          x = -1.577215  y = -1.517995  z =  2.778214 angstrom
           Maximum rank =  0   Radius =  0.325 angstrom
                   Q00  =   0.096871

H          x = -0.488215  y =  2.605005  z = -1.186786 angstrom
           Maximum rank =  0   Radius =  0.325 angstrom
                   Q00  =   0.058554

H          x = -2.593215  y =  0.500005  z =  1.887214 angstrom
           Maximum rank =  0   Radius =  0.325 angstrom
                   Q00  =   0.057574

H          x = -2.545215  y =  2.241005  z =  0.126214 angstrom
           Maximum rank =  0   Radius =  0.325 angstrom
                   Q00  =   0.064992

H          x = -0.187078  y = -0.750635  z =  3.609174 angstrom
           Maximum rank =  0   Radius =  0.325 angstrom
                   Q00  =   0.104836

C          x =  1.303785  y = -1.409995  z = -2.137786 angstrom
           Maximum rank =  0   Radius =  0.650 angstrom
                   Q00  =  -0.220048

C          x =  1.991785  y = -1.973995  z = -3.364786 angstrom
           Maximum rank =  0   Radius =  0.650 angstrom
                   Q00  =  -0.232444

H          x =  0.742785  y = -0.516995  z = -2.398786 angstrom
           Maximum rank =  0   Radius =  0.325 angstrom
                   Q00  =   0.082741

H          x =  0.603785  y = -2.143995  z = -1.738786 angstrom
           Maximum rank =  0   Radius =  0.325 angstrom
                   Q00  =   0.079626

H          x =  2.047785  y = -1.166995  z = -1.379786 angstrom
           Maximum rank =  0   Radius =  0.325 angstrom
                   Q00  =   0.064486

H          x =  1.229785  y = -2.220995  z = -4.099786 angstrom
           Maximum rank =  0   Radius =  0.325 angstrom
                   Q00  =   0.077299

H          x =  2.675922  y = -1.232545  z = -3.803206 angstrom
           Maximum rank =  0   Radius =  0.325 angstrom
                   Q00  =   0.074932

H          x =  2.538556  y = -2.892455  z = -3.105036 angstrom
           Maximum rank =  0   Radius =  0.325 angstrom
                   Q00  =   0.075397

Total multipoles referred to origin at
           x =   0.000000,  y =    0.000000,  z =    0.000000 angstrom
                   Q00  =  -0.000000

Finished at 9:44:5 on 28 Apr 2020

  DMA results are available in the Python driver through the
	  variable('DMA DISTRIBUTED MULTIPOLES')
  and
	  variable('DMA TOTAL MULTIPOLES')
  commands.

    Psi4 stopped on: Tuesday, 28 April 2020 09:44AM
    Psi4 wall time for execution: 0:01:56.77

*** Psi4 exiting successfully. Buy a developer a beer!
