                               Psi4 1.3.2 release

  ==> Input File <==

--------------------------------------------------------------------------
import numpy as np
set {scf_type pk
basis cc-pvdz
d_convergence 10
gdma_switch   0
gdma_limit    0
gdma_origin   [ 0.0,  0.0,  0.0 ]
}
molecule test {
    units Angstrom
    0 1
    --
    0 1
    C               -0.835702547806874    -0.557094849184025    -0.860086587093806
    C               -2.198702547806874    -1.121094849184025    -0.468086587093806
    C               -0.735702547806874    -0.221094849184025    -2.339086587093806
    H               -0.653702547806874     0.349905150815975    -0.286086587093806
    H               -0.069702547806874    -1.292094849184025    -0.603086587093806
    H               -2.333702547806874    -2.061094849184026    -1.009086587093807
    H               -1.113702547806874    -1.049094849184025    -2.941086587093806
    H               -1.327702547806874     0.670905150815975    -2.545086587093806
    H               -3.006942547806874    -0.416608849184025    -0.713946587093806
    H               -2.211052547806874    -1.344210849184025     0.608973412906194
    H                0.314837452193126    -0.033340849184025    -2.605736587093806
    C                1.884297452193126     1.180905150815975     1.085913412906193
    C                1.828297452193126     0.684905150815975     2.521913412906194
    H                2.249297452193126     0.384905150815975     0.436913412906194
    H                0.885297452193126     1.469905150815975     0.766913412906194
    H                2.532297452193126     2.054905150815975     1.010913412906194
    H                1.358297452193126    -0.283094849184025     2.521913412906194
    H                2.846547452193126     0.589916150815975     2.927053412906194
    H                1.214727452193126     1.357670150815975     3.139093412906194

}
e, wfn = energy('scf', return_wfn=True)
gdma(wfn)
dmavals = variable('DMA DISTRIBUTED MULTIPOLES')
charges = np.array(dmavals)
print(charges)
np.save('SSI-056ARG-061LEU-1-dimer.npy', np.array(charges))--------------------------------------------------------------------------

*** tstart() called on ds3
*** at Mon Apr 27 23:40:43 2020

   => Loading Basis Set <=

    Name: CC-PVDZ
    Role: ORBITAL
    Keyword: BASIS
    atoms 1-3, 12-13  entry C          line   138 file /theoryfs2/ds/metcalf/miniconda2/envs/tf2gpu/share/psi4/basis/cc-pvdz.gbs
    atoms 4-11, 14-19 entry H          line    22 file /theoryfs2/ds/metcalf/miniconda2/envs/tf2gpu/share/psi4/basis/cc-pvdz.gbs

         ---------------------------------------------------------
                                   SCF
               by Justin Turney, Rob Parrish, Andy Simmonett
                          and Daniel G. A. Smith
                              RHF Reference
                        1 Threads,    500 MiB Core
         ---------------------------------------------------------

  ==> Geometry <==

    Molecular point group: c1
    Full point group: C1

    Geometry (in Angstrom), charge = 0, multiplicity = 1:

       Center              X                  Y                   Z               Mass
    ------------   -----------------  -----------------  -----------------  -----------------
         C           -0.835702547807    -0.557094849184    -0.860086587094    12.000000000000
         C           -2.198702547807    -1.121094849184    -0.468086587094    12.000000000000
         C           -0.735702547807    -0.221094849184    -2.339086587094    12.000000000000
         H           -0.653702547807     0.349905150816    -0.286086587094     1.007825032230
         H           -0.069702547807    -1.292094849184    -0.603086587094     1.007825032230
         H           -2.333702547807    -2.061094849184    -1.009086587094     1.007825032230
         H           -1.113702547807    -1.049094849184    -2.941086587094     1.007825032230
         H           -1.327702547807     0.670905150816    -2.545086587094     1.007825032230
         H           -3.006942547807    -0.416608849184    -0.713946587094     1.007825032230
         H           -2.211052547807    -1.344210849184     0.608973412906     1.007825032230
         H            0.314837452193    -0.033340849184    -2.605736587094     1.007825032230
         C            1.884297452193     1.180905150816     1.085913412906    12.000000000000
         C            1.828297452193     0.684905150816     2.521913412906    12.000000000000
         H            2.249297452193     0.384905150816     0.436913412906     1.007825032230
         H            0.885297452193     1.469905150816     0.766913412906     1.007825032230
         H            2.532297452193     2.054905150816     1.010913412906     1.007825032230
         H            1.358297452193    -0.283094849184     2.521913412906     1.007825032230
         H            2.846547452193     0.589916150816     2.927053412906     1.007825032230
         H            1.214727452193     1.357670150816     3.139093412906     1.007825032230

  Running in c1 symmetry.

  Rotational constants: A =      0.21017  B =      0.04106  C =      0.03567 [cm^-1]
  Rotational constants: A =   6300.62256  B =   1230.86679  C =   1069.30199 [MHz]
  Nuclear repulsion =  177.742647412087365

  Charge       = 0
  Multiplicity = 1
  Electrons    = 44
  Nalpha       = 22
  Nbeta        = 22

  ==> Algorithm <==

  SCF Algorithm Type is PK.
  DIIS enabled.
  MOM disabled.
  Fractional occupation disabled.
  Guess Type is SAD.
  Energy threshold   = 1.00e-06
  Density threshold  = 1.00e-10
  Integral threshold = 0.00e+00

  ==> Primary Basis <==

  Basis Set: CC-PVDZ
    Blend: CC-PVDZ
    Number of shells: 72
    Number of basis function: 140
    Number of Cartesian functions: 145
    Spherical Harmonics?: true
    Max angular momentum: 2

  ==> Pre-Iterations <==

   -------------------------------------------------------
    Irrep   Nso     Nmo     Nalpha   Nbeta   Ndocc  Nsocc
   -------------------------------------------------------
     A        140     140       0       0       0       0
   -------------------------------------------------------
    Total     140     140      22      22      22       0
   -------------------------------------------------------

  ==> Integral Setup <==

  Using integral reordering PK algorithm.
  Sizing the integral batches needed.
  Building batch lookup table.
   Calculation information:
      Number of atoms:                  19
      Number of AO shells:              72
      Number of primitives:            180
      Number of atomic orbitals:       145
      Number of basis functions:       140

      Integral cutoff                 1.00e-12
      Number of threads:                 1

	Batch   1 pq = [       0,    9405] index = [             0,44231715] size =     44231715
	Batch   2 pq = [    9405,    9870] index = [      44231715,48713385] size =      4481670
  Task number: 5
  Buffer size: 11059200
  Buffer per thread: 2
  We computed 2836243 shell quartets total.
  Whereas there are 3454506 unique shell quartets.

  ==> DiskJK: Disk-Based J/K Matrices <==

    J tasked:                  Yes
    K tasked:                  Yes
    wK tasked:                  No
    Memory [MiB]:              375
    Schwarz Cutoff:          1E-12

    OpenMP threads:              1

  Minimum eigenvalue in the overlap matrix is 5.3277709882E-03.
  Using Symmetric Orthogonalization.

  SCF Guess: Superposition of Atomic Densities via on-the-fly atomic UHF.

  ==> Iterations <==

                        Total Energy        Delta E     RMS |[F,P]|

   @RHF iter SAD:  -196.40092735558545   -1.96401e+02   0.00000e+00
   @RHF iter   1:  -197.30828662167096   -9.07359e-01   3.83371e-03 DIIS
   @RHF iter   2:  -197.47010596724863   -1.61819e-01   1.65826e-03 DIIS
   @RHF iter   3:  -197.49908110354170   -2.89751e-02   3.26938e-04 DIIS
   @RHF iter   4:  -197.50130901241894   -2.22791e-03   4.92253e-05 DIIS
   @RHF iter   5:  -197.50134818308254   -3.91707e-05   1.50666e-05 DIIS
   @RHF iter   6:  -197.50135159562396   -3.41254e-06   2.35411e-06 DIIS
   @RHF iter   7:  -197.50135169610081   -1.00477e-07   4.32202e-07 DIIS
   @RHF iter   8:  -197.50135169978449   -3.68368e-09   1.11674e-07 DIIS
   @RHF iter   9:  -197.50135170001602   -2.31523e-10   3.38551e-08 DIIS
   @RHF iter  10:  -197.50135170004268   -2.66596e-11   7.75457e-09 DIIS
   @RHF iter  11:  -197.50135170004478   -2.10321e-12   1.52455e-09 DIIS
   @RHF iter  12:  -197.50135170004458    1.98952e-13   3.02502e-10 DIIS
   @RHF iter  13:  -197.50135170004455    2.84217e-14   6.34947e-11 DIIS
  Energy and wave function converged.

  ==> Post-Iterations <==

    Orbital Energies [Eh]
    ---------------------

    Doubly Occupied:

       1A    -11.217795     2A    -11.217119     3A    -11.216688
       4A    -11.215302     5A    -11.214950     6A     -1.055486
       7A     -1.021119     8A     -0.923967     9A     -0.836162
      10A     -0.794234    11A     -0.629577    12A     -0.601866
      13A     -0.600326    14A     -0.592959    15A     -0.548276
      16A     -0.533443    17A     -0.500469    18A     -0.488911
      19A     -0.485482    20A     -0.469794    21A     -0.468665
      22A     -0.463444

    Virtual:

      23A      0.167776    24A      0.195393    25A      0.213259
      26A      0.219092    27A      0.237313    28A      0.250542
      29A      0.255619    30A      0.267561    31A      0.273425
      32A      0.285664    33A      0.291060    34A      0.305547
      35A      0.313040    36A      0.365858    37A      0.387511
      38A      0.403616    39A      0.426750    40A      0.570558
      41A      0.579703    42A      0.591228    43A      0.599846
      44A      0.611819    45A      0.621492    46A      0.624593
      47A      0.642138    48A      0.688793    49A      0.775252
      50A      0.799607    51A      0.806661    52A      0.846055
      53A      0.861906    54A      0.878960    55A      0.885405
      56A      0.890464    57A      0.894163    58A      0.897607
      59A      0.900928    60A      0.902380    61A      0.909157
      62A      0.920765    63A      0.929218    64A      0.944635
      65A      0.957308    66A      0.963717    67A      0.988969
      68A      1.009186    69A      1.118422    70A      1.121824
      71A      1.127946    72A      1.149238    73A      1.202957
      74A      1.260623    75A      1.387332    76A      1.472813
      77A      1.482692    78A      1.485791    79A      1.499292
      80A      1.530410    81A      1.551660    82A      1.643158
      83A      1.677425    84A      1.683050    85A      1.685576
      86A      1.702997    87A      1.709338    88A      1.846959
      89A      1.860290    90A      1.864713    91A      1.880751
      92A      1.889580    93A      1.902591    94A      1.910242
      95A      1.928431    96A      1.937921    97A      1.941920
      98A      1.948415    99A      1.955153   100A      1.964232
     101A      1.968759   102A      1.972625   103A      1.985542
     104A      1.993592   105A      2.018606   106A      2.034311
     107A      2.053310   108A      2.129357   109A      2.132918
     110A      2.142680   111A      2.164903   112A      2.290535
     113A      2.294738   114A      2.298949   115A      2.314009
     116A      2.320079   117A      2.346801   118A      2.451341
     119A      2.456367   120A      2.494390   121A      2.535322
     122A      2.570111   123A      2.577653   124A      2.598936
     125A      2.620834   126A      2.625081   127A      2.749600
     128A      2.763983   129A      2.770865   130A      2.787365
     131A      2.794947   132A      2.814417   133A      2.849277
     134A      2.859453   135A      2.904613   136A      2.940489
     137A      2.965744   138A      2.969132   139A      2.980245
     140A      3.078554

    Final Occupation by Irrep:
              A
    DOCC [    22 ]

  @RHF Final Energy:  -197.50135170004455

   => Energetics <=

    Nuclear Repulsion Energy =            177.7426474120873650
    One-Electron Energy =                -616.2959302148748293
    Two-Electron Energy =                 241.0519311027429126
    Total Energy =                       -197.5013517000445518

Computation Completed

Properties will be evaluated at   0.000000,   0.000000,   0.000000 [a0]

Properties computed using the SCF density matrix

  Nuclear Dipole Moment: [e a0]
     X:     0.6420      Y:     0.3736      Z:     0.6634

  Electronic Dipole Moment: [e a0]
     X:    -0.6228      Y:    -0.3744      Z:    -0.6511

  Dipole Moment: [e a0]
     X:     0.0192      Y:    -0.0007      Z:     0.0123     Total:     0.0228

  Dipole Moment: [D]
     X:     0.0487      Y:    -0.0018      Z:     0.0313     Total:     0.0579

*** tstop() called on ds3 at Mon Apr 27 23:41:07 2020
Module time:
	user time   =      16.21 seconds =       0.27 minutes
	system time =       8.30 seconds =       0.14 minutes
	total time  =         24 seconds =       0.40 minutes
Total time:
	user time   =      16.21 seconds =       0.27 minutes
	system time =       8.30 seconds =       0.14 minutes
	total time  =         24 seconds =       0.40 minutes
                                     G D M A

                                 by Anthony Stone

                           version 2.2.06, 22 June 2011

               Distributed Multipoles from Gaussian wavefunctions

Starting at 23:41:7 on 27 Apr 2020

Using SCF density matrix from file ./SSI/SSI-056ARG-061LEU-1-dimer.test.3666.fchk

                         Distributed Multipole Analysis

Standard DMA

Positions and radii in angstrom
Multipole moments in atomic units, ea_0^k for rank k

C          x = -0.835703  y = -0.557095  z = -0.860087 angstrom
           Maximum rank =  0   Radius =  0.650 angstrom
                   Q00  =  -0.088640

C          x = -2.198703  y = -1.121095  z = -0.468087 angstrom
           Maximum rank =  0   Radius =  0.650 angstrom
                   Q00  =  -0.238067

C          x = -0.735703  y = -0.221095  z = -2.339087 angstrom
           Maximum rank =  0   Radius =  0.650 angstrom
                   Q00  =  -0.232232

H          x = -0.653703  y =  0.349905  z = -0.286087 angstrom
           Maximum rank =  0   Radius =  0.325 angstrom
                   Q00  =   0.046755

H          x = -0.069703  y = -1.292095  z = -0.603087 angstrom
           Maximum rank =  0   Radius =  0.325 angstrom
                   Q00  =   0.043819

H          x = -2.333703  y = -2.061095  z = -1.009087 angstrom
           Maximum rank =  0   Radius =  0.325 angstrom
                   Q00  =   0.074970

H          x = -1.113703  y = -1.049095  z = -2.941087 angstrom
           Maximum rank =  0   Radius =  0.325 angstrom
                   Q00  =   0.074815

H          x = -1.327703  y =  0.670905  z = -2.545087 angstrom
           Maximum rank =  0   Radius =  0.325 angstrom
                   Q00  =   0.076441

H          x = -3.006943  y = -0.416609  z = -0.713947 angstrom
           Maximum rank =  0   Radius =  0.325 angstrom
                   Q00  =   0.076903

H          x = -2.211053  y = -1.344211  z =  0.608973 angstrom
           Maximum rank =  0   Radius =  0.325 angstrom
                   Q00  =   0.082131

H          x =  0.314837  y = -0.033341  z = -2.605737 angstrom
           Maximum rank =  0   Radius =  0.325 angstrom
                   Q00  =   0.082188

C          x =  1.884297  y =  1.180905  z =  1.085913 angstrom
           Maximum rank =  0   Radius =  0.650 angstrom
                   Q00  =  -0.224262

C          x =  1.828297  y =  0.684905  z =  2.521913 angstrom
           Maximum rank =  0   Radius =  0.650 angstrom
                   Q00  =  -0.240754

H          x =  2.249297  y =  0.384905  z =  0.436913 angstrom
           Maximum rank =  0   Radius =  0.325 angstrom
                   Q00  =   0.078147

H          x =  0.885297  y =  1.469905  z =  0.766913 angstrom
           Maximum rank =  0   Radius =  0.325 angstrom
                   Q00  =   0.078232

H          x =  2.532297  y =  2.054905  z =  1.010913 angstrom
           Maximum rank =  0   Radius =  0.325 angstrom
                   Q00  =   0.076735

H          x =  1.358297  y = -0.283095  z =  2.521913 angstrom
           Maximum rank =  0   Radius =  0.325 angstrom
                   Q00  =   0.078215

H          x =  2.846547  y =  0.589916  z =  2.927053 angstrom
           Maximum rank =  0   Radius =  0.325 angstrom
                   Q00  =   0.077707

H          x =  1.214727  y =  1.357670  z =  3.139093 angstrom
           Maximum rank =  0   Radius =  0.325 angstrom
                   Q00  =   0.076898

Total multipoles referred to origin at
           x =   0.000000,  y =    0.000000,  z =    0.000000 angstrom
                   Q00  =  -0.000000

Finished at 23:41:7 on 27 Apr 2020

  DMA results are available in the Python driver through the
	  variable('DMA DISTRIBUTED MULTIPOLES')
  and
	  variable('DMA TOTAL MULTIPOLES')
  commands.

    Psi4 stopped on: Monday, 27 April 2020 11:41PM
    Psi4 wall time for execution: 0:00:23.77

*** Psi4 exiting successfully. Buy a developer a beer!
