                               Psi4 1.3.2 release

  ==> Input File <==

--------------------------------------------------------------------------
import numpy as np
set {scf_type pk
basis cc-pvdz
d_convergence 10
gdma_switch   0
gdma_limit    0
gdma_origin   [ 0.0,  0.0,  0.0 ]
}
molecule test {
    units Angstrom
    0 1
    --
    0 1
    C                1.073517732809811    -1.417601960605888     2.134573394934749
    C               -2.003482267190189     0.437398039394112     0.932573394934749
    C               -0.720482267190189     0.446398039394112     1.542573394934749
    C               -0.240482267190189    -0.917601960605888     1.575573394934749
    C               -1.220482267190189    -1.667601960605888     0.998573394934749
    C               -2.749482267190189     1.596398039394112     0.734573394934749
    C               -2.205482267190189     2.793398039394112     1.165573394934749
    C               -0.198482267190189     1.674398039394112     1.970573394934749
    C               -0.942482267190189     2.836398039394112     1.771573394934749
    N               -2.274482267190189    -0.866601960605888     0.615573394934749
    H               -3.113482267190189    -1.208601960605888     0.162573394934749
    H               -3.726482267190189     1.553398039394112     0.276573394934749
    H               -1.172482267190189    -2.742601960605888     0.863573394934749
    H               -2.763482267190189     3.711398039394112     1.031573394934749
    H                0.766517732809811     1.708398039394112     2.446573394934750
    H                1.885517732809811    -0.934601960605888     1.590573394934749
    H                1.143517732809811    -2.483601960605888     1.945573394934749
    H               -0.543482267190189     3.786398039394112     2.099573394934749
    H                1.206527732809811    -1.228821960605888     3.210063394934750
    C                3.895517732809811    -1.475601960605888    -1.971426605065251
    C               -0.111482267190189    -0.009601960605888    -1.888426605065251
    C                0.140517732809811    -1.310601960605888    -2.296426605065251
    C                0.932517732809811     0.812398039394112    -1.494426605065251
    C                1.440517732809811    -1.788601960605888    -2.317426605065251
    C                2.231517732809811     0.333398039394112    -1.516426605065251
    C                2.490517732809811    -0.972601960605888    -1.915426605065251
    H               -1.125482267190189     0.362398039394112    -1.864426605065251
    H               -0.680482267190189    -1.950601960605888    -2.591426605065251
    H                0.726517732809811     1.819398039394112    -1.160426605065251
    H                1.626517732809811    -2.808601960605889    -2.621426605065251
    H                3.043517732809811     0.979398039394112    -1.214426605065251
    H                3.886517732809811    -2.560601960605888    -2.094426605065251
    H                4.383517732809811    -1.261601960605888    -1.018426605065251
    H                4.480607732809812    -1.017021960605888    -2.782212605065250

}
e, wfn = energy('scf', return_wfn=True)
gdma(wfn)
dmavals = variable('DMA DISTRIBUTED MULTIPOLES')
charges = np.array(dmavals)
print(charges)
np.save('SSI-044TRP-085PHE-1-dimer.npy', np.array(charges))--------------------------------------------------------------------------

*** tstart() called on ds3
*** at Tue Apr 28 11:34:38 2020

   => Loading Basis Set <=

    Name: CC-PVDZ
    Role: ORBITAL
    Keyword: BASIS
    atoms 1-9, 20-26   entry C          line   138 file /theoryfs2/ds/metcalf/miniconda2/envs/tf2gpu/share/psi4/basis/cc-pvdz.gbs
    atoms 10           entry N          line   168 file /theoryfs2/ds/metcalf/miniconda2/envs/tf2gpu/share/psi4/basis/cc-pvdz.gbs
    atoms 11-19, 27-34 entry H          line    22 file /theoryfs2/ds/metcalf/miniconda2/envs/tf2gpu/share/psi4/basis/cc-pvdz.gbs

         ---------------------------------------------------------
                                   SCF
               by Justin Turney, Rob Parrish, Andy Simmonett
                          and Daniel G. A. Smith
                              RHF Reference
                        1 Threads,    500 MiB Core
         ---------------------------------------------------------

  ==> Geometry <==

    Molecular point group: c1
    Full point group: C1

    Geometry (in Angstrom), charge = 0, multiplicity = 1:

       Center              X                  Y                   Z               Mass
    ------------   -----------------  -----------------  -----------------  -----------------
         C            1.073517732810    -1.417601960606     2.134573394935    12.000000000000
         C           -2.003482267190     0.437398039394     0.932573394935    12.000000000000
         C           -0.720482267190     0.446398039394     1.542573394935    12.000000000000
         C           -0.240482267190    -0.917601960606     1.575573394935    12.000000000000
         C           -1.220482267190    -1.667601960606     0.998573394935    12.000000000000
         C           -2.749482267190     1.596398039394     0.734573394935    12.000000000000
         C           -2.205482267190     2.793398039394     1.165573394935    12.000000000000
         C           -0.198482267190     1.674398039394     1.970573394935    12.000000000000
         C           -0.942482267190     2.836398039394     1.771573394935    12.000000000000
         N           -2.274482267190    -0.866601960606     0.615573394935    14.003074004430
         H           -3.113482267190    -1.208601960606     0.162573394935     1.007825032230
         H           -3.726482267190     1.553398039394     0.276573394935     1.007825032230
         H           -1.172482267190    -2.742601960606     0.863573394935     1.007825032230
         H           -2.763482267190     3.711398039394     1.031573394935     1.007825032230
         H            0.766517732810     1.708398039394     2.446573394935     1.007825032230
         H            1.885517732810    -0.934601960606     1.590573394935     1.007825032230
         H            1.143517732810    -2.483601960606     1.945573394935     1.007825032230
         H           -0.543482267190     3.786398039394     2.099573394935     1.007825032230
         H            1.206527732810    -1.228821960606     3.210063394935     1.007825032230
         C            3.895517732810    -1.475601960606    -1.971426605065    12.000000000000
         C           -0.111482267190    -0.009601960606    -1.888426605065    12.000000000000
         C            0.140517732810    -1.310601960606    -2.296426605065    12.000000000000
         C            0.932517732810     0.812398039394    -1.494426605065    12.000000000000
         C            1.440517732810    -1.788601960606    -2.317426605065    12.000000000000
         C            2.231517732810     0.333398039394    -1.516426605065    12.000000000000
         C            2.490517732810    -0.972601960606    -1.915426605065    12.000000000000
         H           -1.125482267190     0.362398039394    -1.864426605065     1.007825032230
         H           -0.680482267190    -1.950601960606    -2.591426605065     1.007825032230
         H            0.726517732810     1.819398039394    -1.160426605065     1.007825032230
         H            1.626517732810    -2.808601960606    -2.621426605065     1.007825032230
         H            3.043517732810     0.979398039394    -1.214426605065     1.007825032230
         H            3.886517732810    -2.560601960606    -2.094426605065     1.007825032230
         H            4.383517732810    -1.261601960606    -1.018426605065     1.007825032230
         H            4.480607732810    -1.017021960606    -2.782212605065     1.007825032230

  Running in c1 symmetry.

  Rotational constants: A =      0.02644  B =      0.01065  C =      0.01033 [cm^-1]
  Rotational constants: A =    792.66956  B =    319.28053  C =    309.65186 [MHz]
  Nuclear repulsion = 1135.606855457688653

  Charge       = 0
  Multiplicity = 1
  Electrons    = 120
  Nalpha       = 60
  Nbeta        = 60

  ==> Algorithm <==

  SCF Algorithm Type is PK.
  DIIS enabled.
  MOM disabled.
  Fractional occupation disabled.
  Guess Type is SAD.
  Energy threshold   = 1.00e-06
  Density threshold  = 1.00e-10
  Integral threshold = 0.00e+00

  ==> Primary Basis <==

  Basis Set: CC-PVDZ
    Blend: CC-PVDZ
    Number of shells: 153
    Number of basis function: 323
    Number of Cartesian functions: 340
    Spherical Harmonics?: true
    Max angular momentum: 2

  ==> Pre-Iterations <==

   -------------------------------------------------------
    Irrep   Nso     Nmo     Nalpha   Nbeta   Ndocc  Nsocc
   -------------------------------------------------------
     A        323     323       0       0       0       0
   -------------------------------------------------------
    Total     323     323      60      60      60       0
   -------------------------------------------------------

  ==> Integral Setup <==

  Using integral reordering PK algorithm.
  Sizing the integral batches needed.
  Building batch lookup table.
   Calculation information:
      Number of atoms:                  34
      Number of AO shells:             153
      Number of primitives:            459
      Number of atomic orbitals:       340
      Number of basis functions:       323

      Integral cutoff                 1.00e-12
      Number of threads:                 1

	Batch   1 pq = [       0,    9405] index = [             0,44231715] size =     44231715
	Batch   2 pq = [    9405,   13301] index = [      44231715,88464951] size =     44233236
	Batch   3 pq = [   13301,   16290] index = [      88464951,132690195] size =     44225244
	Batch   4 pq = [   16290,   18810] index = [     132690195,176917455] size =     44227260
	Batch   5 pq = [   18810,   21030] index = [     176917455,221140965] size =     44223510
	Batch   6 pq = [   21030,   23037] index = [     221140965,265363203] size =     44222238
	Batch   7 pq = [   23037,   24883] index = [     265363203,309594286] size =     44231083
	Batch   8 pq = [   24883,   26601] index = [     309594286,353819901] size =     44225615
	Batch   9 pq = [   26601,   28214] index = [     353819901,398029005] size =     44209104
	Batch  10 pq = [   28214,   29740] index = [     398029005,442248670] size =     44219665
	Batch  11 pq = [   29740,   31191] index = [     442248670,486454836] size =     44206166
	Batch  12 pq = [   31191,   32578] index = [     486454836,530679331] size =     44224495
	Batch  13 pq = [   32578,   33908] index = [     530679331,574893186] size =     44213855
	Batch  14 pq = [   33908,   35188] index = [     574893186,619115266] size =     44222080
	Batch  15 pq = [   35188,   36423] index = [     619115266,663335676] size =     44220410
	Batch  16 pq = [   36423,   37617] index = [     663335676,707538153] size =     44202477
	Batch  17 pq = [   37617,   38775] index = [     707538153,751769700] size =     44231547
	Batch  18 pq = [   38775,   39899] index = [     751769700,795985050] size =     44215350
	Batch  19 pq = [   39899,   40992] index = [     795985050,840192528] size =     44207478
	Batch  20 pq = [   40992,   42057] index = [     840192528,884416653] size =     44224125
	Batch  21 pq = [   42057,   43095] index = [     884416653,928611060] size =     44194407
	Batch  22 pq = [   43095,   44109] index = [     928611060,972823995] size =     44212935
	Batch  23 pq = [   44109,   45100] index = [     972823995,1017027550] size =     44203555
	Batch  24 pq = [   45100,   46070] index = [    1017027550,1061245485] size =     44217935
	Batch  25 pq = [   46070,   47020] index = [    1061245485,1105463710] size =     44218225
	Batch  26 pq = [   47020,   47951] index = [    1105463710,1149673176] size =     44209466
	Batch  27 pq = [   47951,   48864] index = [    1149673176,1193869680] size =     44196504
	Batch  28 pq = [   48864,   49761] index = [    1193869680,1238103441] size =     44233761
	Batch  29 pq = [   49761,   50642] index = [    1238103441,1282331403] size =     44227962
	Batch  30 pq = [   50642,   51508] index = [    1282331403,1326562786] size =     44231383
	Batch  31 pq = [   51508,   52326] index = [    1326562786,1369031301] size =     42468515
  Task number: 124
  Buffer size: 11059200
  Buffer per thread: 2
  We computed 93636805 shell quartets total.
  Whereas there are 69401871 unique shell quartets.
    34.92 percent of shell quartets recomputed by reordering.

  ==> DiskJK: Disk-Based J/K Matrices <==

    J tasked:                  Yes
    K tasked:                  Yes
    wK tasked:                  No
    Memory [MiB]:              375
    Schwarz Cutoff:          1E-12

    OpenMP threads:              1

  Minimum eigenvalue in the overlap matrix is 2.3915266011E-04.
  Using Symmetric Orthogonalization.

  SCF Guess: Superposition of Atomic Densities via on-the-fly atomic UHF.

  ==> Iterations <==

                        Total Energy        Delta E     RMS |[F,P]|

   @RHF iter SAD:  -669.60025303259329   -6.69600e+02   0.00000e+00
   @RHF iter   1:  -669.94371790287528   -3.43465e-01   2.17329e-03 DIIS
   @RHF iter   2:  -670.23540936821053   -2.91691e-01   9.72082e-04 DIIS
   @RHF iter   3:  -670.28713312568061   -5.17238e-02   2.65042e-04 DIIS
   @RHF iter   4:  -670.29197173283876   -4.83861e-03   1.19883e-04 DIIS
   @RHF iter   5:  -670.29281880292172   -8.47070e-04   1.79695e-05 DIIS
   @RHF iter   6:  -670.29285418796508   -3.53850e-05   7.72182e-06 DIIS
   @RHF iter   7:  -670.29286171781519   -7.52985e-06   2.99636e-06 DIIS
   @RHF iter   8:  -670.29286352555698   -1.80774e-06   1.29073e-06 DIIS
   @RHF iter   9:  -670.29286391867549   -3.93119e-07   5.80569e-07 DIIS
   @RHF iter  10:  -670.29286400402418   -8.53487e-08   2.55219e-07 DIIS
   @RHF iter  11:  -670.29286402417119   -2.01470e-08   1.19379e-07 DIIS
   @RHF iter  12:  -670.29286402745629   -3.28509e-09   4.39382e-08 DIIS
   @RHF iter  13:  -670.29286402787716   -4.20869e-10   1.37889e-08 DIIS
   @RHF iter  14:  -670.29286402791990   -4.27463e-11   5.18965e-09 DIIS
   @RHF iter  15:  -670.29286402791013    9.77707e-12   2.09361e-09 DIIS
   @RHF iter  16:  -670.29286402791354   -3.41061e-12   1.10452e-09 DIIS
   @RHF iter  17:  -670.29286402792775   -1.42109e-11   5.48629e-10 DIIS
   @RHF iter  18:  -670.29286402792127    6.48015e-12   1.89924e-10 DIIS
   @RHF iter  19:  -670.29286402790342    1.78488e-11   7.65706e-11 DIIS
  Energy and wave function converged.

  ==> Post-Iterations <==

    Orbital Energies [Eh]
    ---------------------

    Doubly Occupied:

       1A    -15.598490     2A    -11.262583     3A    -11.260739
       4A    -11.231090     5A    -11.230011     6A    -11.229129
       7A    -11.228686     8A    -11.226166     9A    -11.223817
      10A    -11.223325    11A    -11.222694    12A    -11.221663
      13A    -11.220479    14A    -11.220323    15A    -11.218592
      16A    -11.218479    17A    -11.215289    18A     -1.291386
      19A     -1.148390    20A     -1.126335    21A     -1.067040
      22A     -1.039440    23A     -1.006356    24A     -0.994720
      25A     -0.985127    26A     -0.926672    27A     -0.924700
      28A     -0.837937    29A     -0.817864    30A     -0.800847
      31A     -0.788227    32A     -0.750047    33A     -0.717206
      34A     -0.684405    35A     -0.660490    36A     -0.639976
      37A     -0.626166    38A     -0.621756    39A     -0.599812
      40A     -0.588665    41A     -0.588156    42A     -0.576776
      43A     -0.573042    44A     -0.563142    45A     -0.555321
      46A     -0.545798    47A     -0.532231    48A     -0.529126
      49A     -0.526838    50A     -0.492692    51A     -0.480419
      52A     -0.477357    53A     -0.473861    54A     -0.468356
      55A     -0.459963    56A     -0.369805    57A     -0.327148
      58A     -0.312481    59A     -0.291871    60A     -0.272895

    Virtual:

      61A      0.124308    62A      0.145992    63A      0.150336
      64A      0.170587    65A      0.172174    66A      0.179525
      67A      0.198115    68A      0.205743    69A      0.215042
      70A      0.219891    71A      0.229680    72A      0.237825
      73A      0.238776    74A      0.253441    75A      0.260897
      76A      0.267278    77A      0.271888    78A      0.282104
      79A      0.288041    80A      0.292177    81A      0.300046
      82A      0.314659    83A      0.374716    84A      0.379920
      85A      0.383755    86A      0.385197    87A      0.408353
      88A      0.420386    89A      0.444964    90A      0.460854
      91A      0.466784    92A      0.473414    93A      0.481315
      94A      0.489653    95A      0.499580    96A      0.507539
      97A      0.512767    98A      0.568881    99A      0.580267
     100A      0.601899   101A      0.611646   102A      0.614475
     103A      0.629983   104A      0.639006   105A      0.663776
     106A      0.672805   107A      0.690403   108A      0.690961
     109A      0.704012   110A      0.706877   111A      0.713309
     112A      0.717499   113A      0.721767   114A      0.731881
     115A      0.737072   116A      0.742483   117A      0.746020
     118A      0.751419   119A      0.757766   120A      0.762444
     121A      0.766180   122A      0.772371   123A      0.777799
     124A      0.784656   125A      0.786995   126A      0.793809
     127A      0.816011   128A      0.819909   129A      0.828737
     130A      0.839115   131A      0.871702   132A      0.876102
     133A      0.879099   134A      0.884574   135A      0.889101
     136A      0.893081   137A      0.897051   138A      0.899662
     139A      0.902683   140A      0.908365   141A      0.921614
     142A      0.927479   143A      0.934165   144A      0.940066
     145A      0.945644   146A      0.951138   147A      0.954319
     148A      0.970967   149A      0.975102   150A      0.999638
     151A      1.001958   152A      1.010881   153A      1.015581
     154A      1.039635   155A      1.044915   156A      1.062995
     157A      1.072792   158A      1.085022   159A      1.093625
     160A      1.123020   161A      1.128678   162A      1.139865
     163A      1.147787   164A      1.151095   165A      1.164997
     166A      1.173684   167A      1.176918   168A      1.191353
     169A      1.202555   170A      1.224824   171A      1.225978
     172A      1.230214   173A      1.238141   174A      1.246685
     175A      1.263783   176A      1.268864   177A      1.276470
     178A      1.282076   179A      1.294336   180A      1.302210
     181A      1.305158   182A      1.319976   183A      1.327211
     184A      1.328283   185A      1.341826   186A      1.350033
     187A      1.370240   188A      1.374722   189A      1.386351
     190A      1.416051   191A      1.426176   192A      1.450443
     193A      1.515998   194A      1.524823   195A      1.547231
     196A      1.566960   197A      1.572503   198A      1.587091
     199A      1.598818   200A      1.618049   201A      1.647286
     202A      1.664383   203A      1.677457   204A      1.683671
     205A      1.690575   206A      1.697660   207A      1.706511
     208A      1.739410   209A      1.756878   210A      1.764463
     211A      1.772662   212A      1.779794   213A      1.787800
     214A      1.798078   215A      1.810790   216A      1.825068
     217A      1.829641   218A      1.848809   219A      1.860945
     220A      1.877524   221A      1.886768   222A      1.895063
     223A      1.903394   224A      1.906684   225A      1.911858
     226A      1.921754   227A      1.922083   228A      1.930643
     229A      1.935592   230A      1.939095   231A      1.944832
     232A      1.956765   233A      1.961192   234A      1.970816
     235A      1.978693   236A      1.988808   237A      1.990534
     238A      2.002131   239A      2.012000   240A      2.019230
     241A      2.024476   242A      2.039634   243A      2.045618
     244A      2.054269   245A      2.072018   246A      2.088319
     247A      2.091607   248A      2.097447   249A      2.107154
     250A      2.112876   251A      2.117616   252A      2.126600
     253A      2.130457   254A      2.144016   255A      2.151052
     256A      2.155690   257A      2.165556   258A      2.174987
     259A      2.188743   260A      2.196401   261A      2.198727
     262A      2.225249   263A      2.231068   264A      2.238345
     265A      2.258958   266A      2.283415   267A      2.297209
     268A      2.299321   269A      2.312919   270A      2.322480
     271A      2.331056   272A      2.335319   273A      2.349166
     274A      2.361869   275A      2.389361   276A      2.412484
     277A      2.441958   278A      2.456228   279A      2.466113
     280A      2.476949   281A      2.486807   282A      2.530331
     283A      2.545576   284A      2.554722   285A      2.596860
     286A      2.615858   287A      2.643496   288A      2.647281
     289A      2.666865   290A      2.680846   291A      2.697927
     292A      2.749048   293A      2.769017   294A      2.774718
     295A      2.781052   296A      2.791085   297A      2.796524
     298A      2.806027   299A      2.813731   300A      2.822001
     301A      2.836636   302A      2.853726   303A      2.878362
     304A      2.888296   305A      2.897363   306A      2.918362
     307A      2.970365   308A      3.002482   309A      3.024344
     310A      3.047803   311A      3.054944   312A      3.069914
     313A      3.089573   314A      3.131972   315A      3.175746
     316A      3.203089   317A      3.227374   318A      3.301528
     319A      3.327885   320A      3.381569   321A      3.751898
     322A      3.950025   323A      4.005723

    Final Occupation by Irrep:
              A
    DOCC [    60 ]

  @RHF Final Energy:  -670.29286402790342

   => Energetics <=

    Nuclear Repulsion Energy =           1135.6068554576886527
    One-Electron Energy =               -3163.1746433562416314
    Two-Electron Energy =                1357.2749238706496726
    Total Energy =                       -670.2928640279033061

Computation Completed

Properties will be evaluated at   0.000000,   0.000000,   0.000000 [a0]

Properties computed using the SCF density matrix

  Nuclear Dipole Moment: [e a0]
     X:     9.4037      Y:    -4.0060      Z:    -1.6147

  Electronic Dipole Moment: [e a0]
     X:    -9.7192      Y:     3.3874      Z:     1.4028

  Dipole Moment: [e a0]
     X:    -0.3154      Y:    -0.6186      Z:    -0.2120     Total:     0.7260

  Dipole Moment: [D]
     X:    -0.8018      Y:    -1.5723      Z:    -0.5388     Total:     1.8453

*** tstop() called on ds3 at Tue Apr 28 11:56:40 2020
Module time:
	user time   =     872.33 seconds =      14.54 minutes
	system time =     231.17 seconds =       3.85 minutes
	total time  =       1322 seconds =      22.03 minutes
Total time:
	user time   =     872.33 seconds =      14.54 minutes
	system time =     231.17 seconds =       3.85 minutes
	total time  =       1322 seconds =      22.03 minutes
                                     G D M A

                                 by Anthony Stone

                           version 2.2.06, 22 June 2011

               Distributed Multipoles from Gaussian wavefunctions

Starting at 11:56:41 on 28 Apr 2020

Using SCF density matrix from file ./SSI/SSI-044TRP-085PHE-1-dimer.test.31567.fchk

                         Distributed Multipole Analysis

Standard DMA

Positions and radii in angstrom
Multipole moments in atomic units, ea_0^k for rank k

C          x =  1.073518  y = -1.417602  z =  2.134573 angstrom
           Maximum rank =  0   Radius =  0.650 angstrom
                   Q00  =  -0.206966

C          x = -2.003482  y =  0.437398  z =  0.932573 angstrom
           Maximum rank =  0   Radius =  0.650 angstrom
                   Q00  =   0.289403

C          x = -0.720482  y =  0.446398  z =  1.542573 angstrom
           Maximum rank =  0   Radius =  0.650 angstrom
                   Q00  =  -0.052971

C          x = -0.240482  y = -0.917602  z =  1.575573 angstrom
           Maximum rank =  0   Radius =  0.650 angstrom
                   Q00  =  -0.115058

C          x = -1.220482  y = -1.667602  z =  0.998573 angstrom
           Maximum rank =  0   Radius =  0.650 angstrom
                   Q00  =   0.075964

C          x = -2.749482  y =  1.596398  z =  0.734573 angstrom
           Maximum rank =  0   Radius =  0.650 angstrom
                   Q00  =  -0.123889

C          x = -2.205482  y =  2.793398  z =  1.165573 angstrom
           Maximum rank =  0   Radius =  0.650 angstrom
                   Q00  =  -0.068807

C          x = -0.198482  y =  1.674398  z =  1.970573 angstrom
           Maximum rank =  0   Radius =  0.650 angstrom
                   Q00  =  -0.088498

C          x = -0.942482  y =  2.836398  z =  1.771573 angstrom
           Maximum rank =  0   Radius =  0.650 angstrom
                   Q00  =  -0.097258

N          x = -2.274482  y = -0.866602  z =  0.615573 angstrom
           Maximum rank =  0   Radius =  0.650 angstrom
                   Q00  =  -0.487689

H          x = -3.113482  y = -1.208602  z =  0.162573 angstrom
           Maximum rank =  0   Radius =  0.325 angstrom
                   Q00  =   0.213783

H          x = -3.726482  y =  1.553398  z =  0.276573 angstrom
           Maximum rank =  0   Radius =  0.325 angstrom
                   Q00  =   0.070509

H          x = -1.172482  y = -2.742602  z =  0.863573 angstrom
           Maximum rank =  0   Radius =  0.325 angstrom
                   Q00  =   0.100792

H          x = -2.763482  y =  3.711398  z =  1.031573 angstrom
           Maximum rank =  0   Radius =  0.325 angstrom
                   Q00  =   0.064187

H          x =  0.766518  y =  1.708398  z =  2.446573 angstrom
           Maximum rank =  0   Radius =  0.325 angstrom
                   Q00  =   0.069914

H          x =  1.885518  y = -0.934602  z =  1.590573 angstrom
           Maximum rank =  0   Radius =  0.325 angstrom
                   Q00  =   0.104693

H          x =  1.143518  y = -2.483602  z =  1.945573 angstrom
           Maximum rank =  0   Radius =  0.325 angstrom
                   Q00  =   0.105490

H          x = -0.543482  y =  3.786398  z =  2.099573 angstrom
           Maximum rank =  0   Radius =  0.325 angstrom
                   Q00  =   0.058876

H          x =  1.206528  y = -1.228822  z =  3.210063 angstrom
           Maximum rank =  0   Radius =  0.325 angstrom
                   Q00  =   0.094451

C          x =  3.895518  y = -1.475602  z = -1.971427 angstrom
           Maximum rank =  0   Radius =  0.650 angstrom
                   Q00  =  -0.196910

C          x = -0.111482  y = -0.009602  z = -1.888427 angstrom
           Maximum rank =  0   Radius =  0.650 angstrom
                   Q00  =  -0.004897

C          x =  0.140518  y = -1.310602  z = -2.296427 angstrom
           Maximum rank =  0   Radius =  0.650 angstrom
                   Q00  =  -0.075971

C          x =  0.932518  y =  0.812398  z = -1.494427 angstrom
           Maximum rank =  0   Radius =  0.650 angstrom
                   Q00  =  -0.055826

C          x =  1.440518  y = -1.788602  z = -2.317427 angstrom
           Maximum rank =  0   Radius =  0.650 angstrom
                   Q00  =  -0.092443

C          x =  2.231518  y =  0.333398  z = -1.516427 angstrom
           Maximum rank =  0   Radius =  0.650 angstrom
                   Q00  =  -0.054187

C          x =  2.490518  y = -0.972602  z = -1.915427 angstrom
           Maximum rank =  0   Radius =  0.650 angstrom
                   Q00  =  -0.099194

H          x = -1.125482  y =  0.362398  z = -1.864427 angstrom
           Maximum rank =  0   Radius =  0.325 angstrom
                   Q00  =   0.058664

H          x = -0.680482  y = -1.950602  z = -2.591427 angstrom
           Maximum rank =  0   Radius =  0.325 angstrom
                   Q00  =   0.052229

H          x =  0.726518  y =  1.819398  z = -1.160427 angstrom
           Maximum rank =  0   Radius =  0.325 angstrom
                   Q00  =   0.070990

H          x =  1.626518  y = -2.808602  z = -2.621427 angstrom
           Maximum rank =  0   Radius =  0.325 angstrom
                   Q00  =   0.051627

H          x =  3.043518  y =  0.979398  z = -1.214427 angstrom
           Maximum rank =  0   Radius =  0.325 angstrom
                   Q00  =   0.049285

H          x =  3.886518  y = -2.560602  z = -2.094427 angstrom
           Maximum rank =  0   Radius =  0.325 angstrom
                   Q00  =   0.093221

H          x =  4.383518  y = -1.261602  z = -1.018427 angstrom
           Maximum rank =  0   Radius =  0.325 angstrom
                   Q00  =   0.094270

H          x =  4.480608  y = -1.017022  z = -2.782213 angstrom
           Maximum rank =  0   Radius =  0.325 angstrom
                   Q00  =   0.102215

Total multipoles referred to origin at
           x =   0.000000,  y =    0.000000,  z =    0.000000 angstrom
                   Q00  =  -0.000000

Finished at 11:56:41 on 28 Apr 2020

  DMA results are available in the Python driver through the
	  variable('DMA DISTRIBUTED MULTIPOLES')
  and
	  variable('DMA TOTAL MULTIPOLES')
  commands.

    Psi4 stopped on: Tuesday, 28 April 2020 11:56AM
    Psi4 wall time for execution: 0:22:03.08

*** Psi4 exiting successfully. Buy a developer a beer!
