                               Psi4 1.3.2 release

  ==> Input File <==

--------------------------------------------------------------------------
import numpy as np
set {scf_type pk
basis cc-pvdz
d_convergence 10
gdma_switch   0
gdma_limit    0
gdma_origin   [ 0.0,  0.0,  0.0 ]
}
molecule test {
    units Angstrom
    0 1
    --
    0 1
    C               -1.473187635603736     0.538683159631582     2.660728191273995
    C               -1.208187635603736     1.940683159631582     3.326728191273995
    H               -0.612187635603736    -0.115316840368418     2.779728191273995
    H               -2.330187635603736     0.072683159631582     3.146728191273995
    H               -1.683187635603737     0.652683159631582     1.598728191273995
    H               -0.802187635603736     1.800683159631582     4.329728191273995
    H               -2.165187635603736     2.440683159631582     3.409728191273995
    H               -0.525607635603736     2.546613159631582     2.712768191273994
    C                3.168812364396264     0.339683159631582    -0.021271808726005
    C               -0.484187635603736     0.142683159631582    -1.009271808726005
    C                0.696812364396264    -0.472316840368418    -0.505271808726005
    C                1.716812364396264     0.552683159631582    -0.449271808726005
    C                1.122812364396264     1.702683159631582    -0.903271808726005
    C               -1.674187635603736    -0.543316840368418    -1.197271808726005
    C               -1.688187635603736    -1.877316840368418    -0.894271808726005
    C                0.676812364396264    -1.869316840368418    -0.235271808726005
    C               -0.542187635603736    -2.546316840368418    -0.402271808726005
    N               -0.197187635603736     1.459683159631582    -1.251271808726005
    H               -0.837187635603736     2.162683159631582    -1.600271808726005
    H               -2.541187635603736    -0.047316840368418    -1.602271808726005
    H                1.621812364396264     2.662683159631582    -0.991271808726005
    H               -2.597187635603737    -2.443316840368418    -1.049271808726005
    H                1.558812364396263    -2.380316840368418     0.123728191273995
    H                3.203812364396263    -0.391316840368418     0.785728191273995
    H                3.533812364396264     1.280683159631582     0.374728191273995
    H               -0.598187635603736    -3.604316840368418    -0.189271808726005
    H                3.799672364396264    -0.015886840368418    -0.849272808726005

}
e, wfn = energy('scf', return_wfn=True)
gdma(wfn)
dmavals = variable('DMA DISTRIBUTED MULTIPOLES')
charges = np.array(dmavals)
print(charges)
np.save('SSI-250ILE-255TRP-1-dimer.npy', np.array(charges))--------------------------------------------------------------------------

*** tstart() called on ds3
*** at Tue Apr 28 04:17:40 2020

   => Loading Basis Set <=

    Name: CC-PVDZ
    Role: ORBITAL
    Keyword: BASIS
    atoms 1-2, 9-17  entry C          line   138 file /theoryfs2/ds/metcalf/miniconda2/envs/tf2gpu/share/psi4/basis/cc-pvdz.gbs
    atoms 3-8, 19-27 entry H          line    22 file /theoryfs2/ds/metcalf/miniconda2/envs/tf2gpu/share/psi4/basis/cc-pvdz.gbs
    atoms 18         entry N          line   168 file /theoryfs2/ds/metcalf/miniconda2/envs/tf2gpu/share/psi4/basis/cc-pvdz.gbs

         ---------------------------------------------------------
                                   SCF
               by Justin Turney, Rob Parrish, Andy Simmonett
                          and Daniel G. A. Smith
                              RHF Reference
                        1 Threads,    500 MiB Core
         ---------------------------------------------------------

  ==> Geometry <==

    Molecular point group: c1
    Full point group: C1

    Geometry (in Angstrom), charge = 0, multiplicity = 1:

       Center              X                  Y                   Z               Mass
    ------------   -----------------  -----------------  -----------------  -----------------
         C           -1.473187635604     0.538683159632     2.660728191274    12.000000000000
         C           -1.208187635604     1.940683159632     3.326728191274    12.000000000000
         H           -0.612187635604    -0.115316840368     2.779728191274     1.007825032230
         H           -2.330187635604     0.072683159632     3.146728191274     1.007825032230
         H           -1.683187635604     0.652683159632     1.598728191274     1.007825032230
         H           -0.802187635604     1.800683159632     4.329728191274     1.007825032230
         H           -2.165187635604     2.440683159632     3.409728191274     1.007825032230
         H           -0.525607635604     2.546613159632     2.712768191274     1.007825032230
         C            3.168812364396     0.339683159632    -0.021271808726    12.000000000000
         C           -0.484187635604     0.142683159632    -1.009271808726    12.000000000000
         C            0.696812364396    -0.472316840368    -0.505271808726    12.000000000000
         C            1.716812364396     0.552683159632    -0.449271808726    12.000000000000
         C            1.122812364396     1.702683159632    -0.903271808726    12.000000000000
         C           -1.674187635604    -0.543316840368    -1.197271808726    12.000000000000
         C           -1.688187635604    -1.877316840368    -0.894271808726    12.000000000000
         C            0.676812364396    -1.869316840368    -0.235271808726    12.000000000000
         C           -0.542187635604    -2.546316840368    -0.402271808726    12.000000000000
         N           -0.197187635604     1.459683159632    -1.251271808726    14.003074004430
         H           -0.837187635604     2.162683159632    -1.600271808726     1.007825032230
         H           -2.541187635604    -0.047316840368    -1.602271808726     1.007825032230
         H            1.621812364396     2.662683159632    -0.991271808726     1.007825032230
         H           -2.597187635604    -2.443316840368    -1.049271808726     1.007825032230
         H            1.558812364396    -2.380316840368     0.123728191274     1.007825032230
         H            3.203812364396    -0.391316840368     0.785728191274     1.007825032230
         H            3.533812364396     1.280683159632     0.374728191274     1.007825032230
         H           -0.598187635604    -3.604316840368    -0.189271808726     1.007825032230
         H            3.799672364396    -0.015886840368    -0.849272808726     1.007825032230

  Running in c1 symmetry.

  Rotational constants: A =      0.02824  B =      0.02532  C =      0.01890 [cm^-1]
  Rotational constants: A =    846.61549  B =    758.94783  C =    566.75434 [MHz]
  Nuclear repulsion =  663.701761093462096

  Charge       = 0
  Multiplicity = 1
  Electrons    = 88
  Nalpha       = 44
  Nbeta        = 44

  ==> Algorithm <==

  SCF Algorithm Type is PK.
  DIIS enabled.
  MOM disabled.
  Fractional occupation disabled.
  Guess Type is SAD.
  Energy threshold   = 1.00e-06
  Density threshold  = 1.00e-10
  Integral threshold = 0.00e+00

  ==> Primary Basis <==

  Basis Set: CC-PVDZ
    Blend: CC-PVDZ
    Number of shells: 117
    Number of basis function: 243
    Number of Cartesian functions: 255
    Spherical Harmonics?: true
    Max angular momentum: 2

  ==> Pre-Iterations <==

   -------------------------------------------------------
    Irrep   Nso     Nmo     Nalpha   Nbeta   Ndocc  Nsocc
   -------------------------------------------------------
     A        243     243       0       0       0       0
   -------------------------------------------------------
    Total     243     243      44      44      44       0
   -------------------------------------------------------

  ==> Integral Setup <==

  Using integral reordering PK algorithm.
  Sizing the integral batches needed.
  Building batch lookup table.
   Calculation information:
      Number of atoms:                  27
      Number of AO shells:             117
      Number of primitives:            339
      Number of atomic orbitals:       255
      Number of basis functions:       243

      Integral cutoff                 1.00e-12
      Number of threads:                 1

	Batch   1 pq = [       0,    9405] index = [             0,44231715] size =     44231715
	Batch   2 pq = [    9405,   13301] index = [      44231715,88464951] size =     44233236
	Batch   3 pq = [   13301,   16290] index = [      88464951,132690195] size =     44225244
	Batch   4 pq = [   16290,   18810] index = [     132690195,176917455] size =     44227260
	Batch   5 pq = [   18810,   21030] index = [     176917455,221140965] size =     44223510
	Batch   6 pq = [   21030,   23037] index = [     221140965,265363203] size =     44222238
	Batch   7 pq = [   23037,   24883] index = [     265363203,309594286] size =     44231083
	Batch   8 pq = [   24883,   26601] index = [     309594286,353819901] size =     44225615
	Batch   9 pq = [   26601,   28214] index = [     353819901,398029005] size =     44209104
	Batch  10 pq = [   28214,   29646] index = [     398029005,439457481] size =     41428476
  Task number: 40
  Buffer size: 11059200
  Buffer per thread: 2
  We computed 24965882 shell quartets total.
  Whereas there are 23829156 unique shell quartets.
     4.77 percent of shell quartets recomputed by reordering.

  ==> DiskJK: Disk-Based J/K Matrices <==

    J tasked:                  Yes
    K tasked:                  Yes
    wK tasked:                  No
    Memory [MiB]:              375
    Schwarz Cutoff:          1E-12

    OpenMP threads:              1

  Minimum eigenvalue in the overlap matrix is 2.6269790375E-04.
  Using Symmetric Orthogonalization.

  SCF Guess: Superposition of Atomic Densities via on-the-fly atomic UHF.

  ==> Iterations <==

                        Total Energy        Delta E     RMS |[F,P]|

   @RHF iter SAD:  -478.80062355728091   -4.78801e+02   0.00000e+00
   @RHF iter   1:  -479.49550701224132   -6.94883e-01   2.55272e-03 DIIS
   @RHF iter   2:  -479.72168236722865   -2.26175e-01   1.11406e-03 DIIS
   @RHF iter   3:  -479.76064951646339   -3.89671e-02   2.96930e-04 DIIS
   @RHF iter   4:  -479.76432143179903   -3.67192e-03   1.35912e-04 DIIS
   @RHF iter   5:  -479.76493751010372   -6.16078e-04   2.02965e-05 DIIS
   @RHF iter   6:  -479.76496673550065   -2.92254e-05   9.57527e-06 DIIS
   @RHF iter   7:  -479.76497290221721   -6.16672e-06   3.83547e-06 DIIS
   @RHF iter   8:  -479.76497458974734   -1.68753e-06   1.49415e-06 DIIS
   @RHF iter   9:  -479.76497490683062   -3.17083e-07   6.62292e-07 DIIS
   @RHF iter  10:  -479.76497497069698   -6.38664e-08   3.10067e-07 DIIS
   @RHF iter  11:  -479.76497498770556   -1.70086e-08   1.21505e-07 DIIS
   @RHF iter  12:  -479.76497499033297   -2.62742e-09   3.76516e-08 DIIS
   @RHF iter  13:  -479.76497499048844   -1.55467e-10   1.05429e-08 DIIS
   @RHF iter  14:  -479.76497499050186   -1.34150e-11   4.24878e-09 DIIS
   @RHF iter  15:  -479.76497499050032    1.53477e-12   1.66560e-09 DIIS
   @RHF iter  16:  -479.76497499050032    0.00000e+00   6.66425e-10 DIIS
   @RHF iter  17:  -479.76497499049879    1.53477e-12   3.46974e-10 DIIS
   @RHF iter  18:  -479.76497499050265   -3.86535e-12   1.52929e-10 DIIS
   @RHF iter  19:  -479.76497499050561   -2.95586e-12   5.40589e-11 DIIS
  Energy and wave function converged.

  ==> Post-Iterations <==

    Orbital Energies [Eh]
    ---------------------

    Doubly Occupied:

       1A    -15.602544     2A    -11.266674     3A    -11.263797
       4A    -11.236331     5A    -11.230029     6A    -11.229390
       7A    -11.227694     8A    -11.224469     9A    -11.224330
      10A    -11.223320    11A    -11.211844    12A    -11.204960
      13A     -1.291374    14A     -1.125165    15A     -1.069134
      16A     -0.996856    17A     -0.995899    18A     -0.983075
      19A     -0.931214    20A     -0.836946    21A     -0.829809
      22A     -0.802315    23A     -0.751567    24A     -0.720721
      25A     -0.660034    26A     -0.640693    27A     -0.602552
      28A     -0.592869    29A     -0.590234    30A     -0.582750
      31A     -0.580833    32A     -0.565499    33A     -0.553968
      34A     -0.535464    35A     -0.525573    36A     -0.495337
      37A     -0.481383    38A     -0.479049    39A     -0.476958
      40A     -0.470170    41A     -0.457621    42A     -0.372776
      43A     -0.293099    44A     -0.276174

    Virtual:

      45A      0.124384    46A      0.167758    47A      0.173935
      48A      0.185518    49A      0.201069    50A      0.203483
      51A      0.217823    52A      0.229516    53A      0.233272
      54A      0.250606    55A      0.262571    56A      0.266475
      57A      0.268033    58A      0.269854    59A      0.288146
      60A      0.294893    61A      0.305720    62A      0.313935
      63A      0.372625    64A      0.379791    65A      0.391799
      66A      0.400247    67A      0.418868    68A      0.443959
      69A      0.467295    70A      0.480004    71A      0.501126
      72A      0.513092    73A      0.581659    74A      0.591034
      75A      0.601658    76A      0.607716    77A      0.621706
      78A      0.635396    79A      0.648175    80A      0.663940
      81A      0.674411    82A      0.693896    83A      0.695203
      84A      0.712337    85A      0.722674    86A      0.732565
      87A      0.738629    88A      0.741674    89A      0.747067
      90A      0.763416    91A      0.769761    92A      0.773101
      93A      0.783260    94A      0.792782    95A      0.830190
      96A      0.840472    97A      0.850965    98A      0.866755
      99A      0.876341   100A      0.878917   101A      0.886774
     102A      0.888892   103A      0.904033   104A      0.905167
     105A      0.909461   106A      0.915887   107A      0.929663
     108A      0.934299   109A      0.949762   110A      0.950869
     111A      0.956157   112A      0.959336   113A      0.975479
     114A      0.984497   115A      1.004738   116A      1.025065
     117A      1.049677   118A      1.085247   119A      1.089373
     120A      1.122303   121A      1.129841   122A      1.133574
     123A      1.134462   124A      1.154500   125A      1.155003
     126A      1.174351   127A      1.209383   128A      1.215627
     129A      1.221710   130A      1.231915   131A      1.252376
     132A      1.265802   133A      1.273757   134A      1.284832
     135A      1.306723   136A      1.327675   137A      1.335356
     138A      1.357772   139A      1.362205   140A      1.410009
     141A      1.438681   142A      1.476704   143A      1.484479
     144A      1.509822   145A      1.548348   146A      1.569158
     147A      1.584406   148A      1.602009   149A      1.630959
     150A      1.638483   151A      1.648986   152A      1.686819
     153A      1.690783   154A      1.695985   155A      1.707909
     156A      1.748075   157A      1.758490   158A      1.773849
     159A      1.787007   160A      1.802834   161A      1.825186
     162A      1.836561   163A      1.861885   164A      1.873971
     165A      1.886073   166A      1.890351   167A      1.896499
     168A      1.901161   169A      1.908086   170A      1.912567
     171A      1.920890   172A      1.934105   173A      1.942679
     174A      1.944193   175A      1.948367   176A      1.958470
     177A      1.968093   178A      1.974539   179A      1.981012
     180A      1.990424   181A      2.009075   182A      2.021409
     183A      2.038634   184A      2.058997   185A      2.078530
     186A      2.081505   187A      2.097677   188A      2.111161
     189A      2.113011   190A      2.125303   191A      2.143325
     192A      2.154607   193A      2.163308   194A      2.164653
     195A      2.180075   196A      2.209758   197A      2.261994
     198A      2.271598   199A      2.291919   200A      2.295592
     201A      2.309081   202A      2.317977   203A      2.327330
     204A      2.354391   205A      2.387265   206A      2.397850
     207A      2.441078   208A      2.450970   209A      2.461849
     210A      2.470818   211A      2.531920   212A      2.578530
     213A      2.581047   214A      2.588046   215A      2.607996
     216A      2.628766   217A      2.666057   218A      2.675243
     219A      2.696759   220A      2.768632   221A      2.770004
     222A      2.784266   223A      2.787313   224A      2.790527
     225A      2.809788   226A      2.817003   227A      2.849488
     228A      2.851613   229A      2.857535   230A      2.869223
     231A      2.898349   232A      2.947550   233A      2.952292
     234A      2.982286   235A      3.011572   236A      3.046689
     237A      3.063476   238A      3.107161   239A      3.194040
     240A      3.281971   241A      3.354278   242A      3.743994
     243A      3.927897

    Final Occupation by Irrep:
              A
    DOCC [    44 ]

  @RHF Final Energy:  -479.76497499050561

   => Energetics <=

    Nuclear Repulsion Energy =            663.7017610934620961
    One-Electron Energy =               -1965.5084831963806664
    Two-Electron Energy =                 822.0417471124130770
    Total Energy =                       -479.7649749905056069

Computation Completed

Properties will be evaluated at   0.000000,   0.000000,   0.000000 [a0]

Properties computed using the SCF density matrix

  Nuclear Dipole Moment: [e a0]
     X:    -0.9129      Y:     4.3284      Z:    12.1720

  Electronic Dipole Moment: [e a0]
     X:     0.8430      Y:    -3.6504      Z:   -12.4838

  Dipole Moment: [e a0]
     X:    -0.0699      Y:     0.6780      Z:    -0.3119     Total:     0.7495

  Dipole Moment: [D]
     X:    -0.1776      Y:     1.7232      Z:    -0.7927     Total:     1.9051

*** tstop() called on ds3 at Tue Apr 28 04:26:59 2020
Module time:
	user time   =     196.40 seconds =       3.27 minutes
	system time =      68.36 seconds =       1.14 minutes
	total time  =        559 seconds =       9.32 minutes
Total time:
	user time   =     196.40 seconds =       3.27 minutes
	system time =      68.36 seconds =       1.14 minutes
	total time  =        559 seconds =       9.32 minutes
                                     G D M A

                                 by Anthony Stone

                           version 2.2.06, 22 June 2011

               Distributed Multipoles from Gaussian wavefunctions

Starting at 4:26:59 on 28 Apr 2020

Using SCF density matrix from file ./SSI/SSI-250ILE-255TRP-1-dimer.test.27426.fchk

                         Distributed Multipole Analysis

Standard DMA

Positions and radii in angstrom
Multipole moments in atomic units, ea_0^k for rank k

C          x = -1.473188  y =  0.538683  z =  2.660728 angstrom
           Maximum rank =  0   Radius =  0.650 angstrom
                   Q00  =  -0.239908

C          x = -1.208188  y =  1.940683  z =  3.326728 angstrom
           Maximum rank =  0   Radius =  0.650 angstrom
                   Q00  =  -0.250365

H          x = -0.612188  y = -0.115317  z =  2.779728 angstrom
           Maximum rank =  0   Radius =  0.325 angstrom
                   Q00  =   0.086951

H          x = -2.330188  y =  0.072683  z =  3.146728 angstrom
           Maximum rank =  0   Radius =  0.325 angstrom
                   Q00  =   0.072632

H          x = -1.683188  y =  0.652683  z =  1.598728 angstrom
           Maximum rank =  0   Radius =  0.325 angstrom
                   Q00  =   0.088669

H          x = -0.802188  y =  1.800683  z =  4.329728 angstrom
           Maximum rank =  0   Radius =  0.325 angstrom
                   Q00  =   0.080888

H          x = -2.165188  y =  2.440683  z =  3.409728 angstrom
           Maximum rank =  0   Radius =  0.325 angstrom
                   Q00  =   0.075467

H          x = -0.525608  y =  2.546613  z =  2.712768 angstrom
           Maximum rank =  0   Radius =  0.325 angstrom
                   Q00  =   0.081086

C          x =  3.168812  y =  0.339683  z = -0.021272 angstrom
           Maximum rank =  0   Radius =  0.650 angstrom
                   Q00  =  -0.207320

C          x = -0.484188  y =  0.142683  z = -1.009272 angstrom
           Maximum rank =  0   Radius =  0.650 angstrom
                   Q00  =   0.237821

C          x =  0.696812  y = -0.472317  z = -0.505272 angstrom
           Maximum rank =  0   Radius =  0.650 angstrom
                   Q00  =  -0.062177

C          x =  1.716812  y =  0.552683  z = -0.449272 angstrom
           Maximum rank =  0   Radius =  0.650 angstrom
                   Q00  =  -0.129266

C          x =  1.122812  y =  1.702683  z = -0.903272 angstrom
           Maximum rank =  0   Radius =  0.650 angstrom
                   Q00  =   0.069409

C          x = -1.674188  y = -0.543317  z = -1.197272 angstrom
           Maximum rank =  0   Radius =  0.650 angstrom
                   Q00  =  -0.111835

C          x = -1.688188  y = -1.877317  z = -0.894272 angstrom
           Maximum rank =  0   Radius =  0.650 angstrom
                   Q00  =  -0.035063

C          x =  0.676812  y = -1.869317  z = -0.235272 angstrom
           Maximum rank =  0   Radius =  0.650 angstrom
                   Q00  =  -0.092282

C          x = -0.542188  y = -2.546317  z = -0.402272 angstrom
           Maximum rank =  0   Radius =  0.650 angstrom
                   Q00  =  -0.075780

N          x = -0.197188  y =  1.459683  z = -1.251272 angstrom
           Maximum rank =  0   Radius =  0.650 angstrom
                   Q00  =  -0.494623

H          x = -0.837188  y =  2.162683  z = -1.600272 angstrom
           Maximum rank =  0   Radius =  0.325 angstrom
                   Q00  =   0.220595

H          x = -2.541188  y = -0.047317  z = -1.602272 angstrom
           Maximum rank =  0   Radius =  0.325 angstrom
                   Q00  =   0.071112

H          x =  1.621812  y =  2.662683  z = -0.991272 angstrom
           Maximum rank =  0   Radius =  0.325 angstrom
                   Q00  =   0.100940

H          x = -2.597188  y = -2.443317  z = -1.049272 angstrom
           Maximum rank =  0   Radius =  0.325 angstrom
                   Q00  =   0.063565

H          x =  1.558812  y = -2.380317  z =  0.123728 angstrom
           Maximum rank =  0   Radius =  0.325 angstrom
                   Q00  =   0.074492

H          x =  3.203812  y = -0.391317  z =  0.785728 angstrom
           Maximum rank =  0   Radius =  0.325 angstrom
                   Q00  =   0.103552

H          x =  3.533812  y =  1.280683  z =  0.374728 angstrom
           Maximum rank =  0   Radius =  0.325 angstrom
                   Q00  =   0.106283

H          x = -0.598188  y = -3.604317  z = -0.189272 angstrom
           Maximum rank =  0   Radius =  0.325 angstrom
                   Q00  =   0.062989

H          x =  3.799672  y = -0.015887  z = -0.849273 angstrom
           Maximum rank =  0   Radius =  0.325 angstrom
                   Q00  =   0.102167

Total multipoles referred to origin at
           x =   0.000000,  y =    0.000000,  z =    0.000000 angstrom
                   Q00  =  -0.000000

Finished at 4:26:59 on 28 Apr 2020

  DMA results are available in the Python driver through the
	  variable('DMA DISTRIBUTED MULTIPOLES')
  and
	  variable('DMA TOTAL MULTIPOLES')
  commands.

    Psi4 stopped on: Tuesday, 28 April 2020 04:26AM
    Psi4 wall time for execution: 0:09:19.17

*** Psi4 exiting successfully. Buy a developer a beer!
