                               Psi4 1.3.2 release

  ==> Input File <==

--------------------------------------------------------------------------
import numpy as np
set {scf_type pk
basis cc-pvdz
d_convergence 10
gdma_switch   0
gdma_limit    0
gdma_origin   [ 0.0,  0.0,  0.0 ]
}
molecule test {
    units Angstrom
    0 1
    --
    0 1
    C               -2.088747145108737     0.517419900025131     2.104299448756894
    O               -1.460747145108737     0.444419900025131     0.843299448756894
    H               -1.920747145108737     0.987419900025131     0.182299448756894
    H               -1.600747145108737    -0.181580099974869     2.782299448756894
    H               -3.135747145108736     0.228419900025131     1.990299448756894
    H               -2.027497145108736     1.531289900025131     2.526566448756895
    C                1.210252854891263     0.152419900025131    -0.824700551243106
    C                1.188252854891263    -0.108580099974869    -2.326700551243106
    C                1.482252854891263    -1.097580099974869     0.018299448756894
    H                2.017252854891264     0.867419900025131    -0.663700551243106
    H                0.302252854891263     0.654419900025131    -0.556700551243106
    H                2.149252854891263    -0.535580099974869    -2.628700551243106
    H                0.691252854891263    -1.833580099974869    -0.127700551243106
    H                2.436252854891264    -1.537580099974869    -0.278700551243106
    H                1.010042854891263     0.831359900025131    -2.869610551243106
    H                0.406652854891263    -0.840970099974869    -2.577102551243105
    H                1.517722854891263    -0.838430099974869     1.086748448756895

}
e, wfn = energy('scf', return_wfn=True)
gdma(wfn)
dmavals = variable('DMA DISTRIBUTED MULTIPOLES')
charges = np.array(dmavals)
print(charges)
np.save('SSI-019SER-023ARG-1-dimer.npy', np.array(charges))--------------------------------------------------------------------------

*** tstart() called on ds3
*** at Mon Apr 27 19:12:38 2020

   => Loading Basis Set <=

    Name: CC-PVDZ
    Role: ORBITAL
    Keyword: BASIS
    atoms 1, 7-9     entry C          line   138 file /theoryfs2/ds/metcalf/miniconda2/envs/tf2gpu/share/psi4/basis/cc-pvdz.gbs
    atoms 2          entry O          line   198 file /theoryfs2/ds/metcalf/miniconda2/envs/tf2gpu/share/psi4/basis/cc-pvdz.gbs
    atoms 3-6, 10-17 entry H          line    22 file /theoryfs2/ds/metcalf/miniconda2/envs/tf2gpu/share/psi4/basis/cc-pvdz.gbs

         ---------------------------------------------------------
                                   SCF
               by Justin Turney, Rob Parrish, Andy Simmonett
                          and Daniel G. A. Smith
                              RHF Reference
                        1 Threads,    500 MiB Core
         ---------------------------------------------------------

  ==> Geometry <==

    Molecular point group: c1
    Full point group: C1

    Geometry (in Angstrom), charge = 0, multiplicity = 1:

       Center              X                  Y                   Z               Mass
    ------------   -----------------  -----------------  -----------------  -----------------
         C           -2.088747145109     0.517419900025     2.104299448757    12.000000000000
         O           -1.460747145109     0.444419900025     0.843299448757    15.994914619570
         H           -1.920747145109     0.987419900025     0.182299448757     1.007825032230
         H           -1.600747145109    -0.181580099975     2.782299448757     1.007825032230
         H           -3.135747145109     0.228419900025     1.990299448757     1.007825032230
         H           -2.027497145109     1.531289900025     2.526566448757     1.007825032230
         C            1.210252854891     0.152419900025    -0.824700551243    12.000000000000
         C            1.188252854891    -0.108580099975    -2.326700551243    12.000000000000
         C            1.482252854891    -1.097580099975     0.018299448757    12.000000000000
         H            2.017252854891     0.867419900025    -0.663700551243     1.007825032230
         H            0.302252854891     0.654419900025    -0.556700551243     1.007825032230
         H            2.149252854891    -0.535580099975    -2.628700551243     1.007825032230
         H            0.691252854891    -1.833580099975    -0.127700551243     1.007825032230
         H            2.436252854891    -1.537580099975    -0.278700551243     1.007825032230
         H            1.010042854891     0.831359900025    -2.869610551243     1.007825032230
         H            0.406652854891    -0.840970099975    -2.577102551243     1.007825032230
         H            1.517722854891    -0.838430099975     1.086748448757     1.007825032230

  Running in c1 symmetry.

  Rotational constants: A =      0.26575  B =      0.04841  C =      0.04330 [cm^-1]
  Rotational constants: A =   7966.89647  B =   1451.22758  C =   1298.11848 [MHz]
  Nuclear repulsion =  182.679914144768219

  Charge       = 0
  Multiplicity = 1
  Electrons    = 44
  Nalpha       = 22
  Nbeta        = 22

  ==> Algorithm <==

  SCF Algorithm Type is PK.
  DIIS enabled.
  MOM disabled.
  Fractional occupation disabled.
  Guess Type is SAD.
  Energy threshold   = 1.00e-06
  Density threshold  = 1.00e-10
  Integral threshold = 0.00e+00

  ==> Primary Basis <==

  Basis Set: CC-PVDZ
    Blend: CC-PVDZ
    Number of shells: 66
    Number of basis function: 130
    Number of Cartesian functions: 135
    Spherical Harmonics?: true
    Max angular momentum: 2

  ==> Pre-Iterations <==

   -------------------------------------------------------
    Irrep   Nso     Nmo     Nalpha   Nbeta   Ndocc  Nsocc
   -------------------------------------------------------
     A        130     130       0       0       0       0
   -------------------------------------------------------
    Total     130     130      22      22      22       0
   -------------------------------------------------------

  ==> Integral Setup <==

  Using integral reordering PK algorithm.
  Sizing the integral batches needed.
  Building batch lookup table.
   Calculation information:
      Number of atoms:                  17
      Number of AO shells:              66
      Number of primitives:            170
      Number of atomic orbitals:       135
      Number of basis functions:       130

      Integral cutoff                 1.00e-12
      Number of threads:                 1

	Batch   1 pq = [       0,    8515] index = [             0,36256870] size =     36256870
  Task number: 4
  Buffer size: 11059200
  Buffer per thread: 2
  We computed 2078044 shell quartets total.
  Whereas there are 2445366 unique shell quartets.

  ==> DiskJK: Disk-Based J/K Matrices <==

    J tasked:                  Yes
    K tasked:                  Yes
    wK tasked:                  No
    Memory [MiB]:              375
    Schwarz Cutoff:          1E-12

    OpenMP threads:              1

  Minimum eigenvalue in the overlap matrix is 5.6411692247E-03.
  Using Symmetric Orthogonalization.

  SCF Guess: Superposition of Atomic Densities via on-the-fly atomic UHF.

  ==> Iterations <==

                        Total Energy        Delta E     RMS |[F,P]|

   @RHF iter SAD:  -232.10758478675140   -2.32108e+02   0.00000e+00
   @RHF iter   1:  -233.13887818143439   -1.03129e+00   4.16297e-03 DIIS
   @RHF iter   2:  -233.28495129202648   -1.46073e-01   1.99191e-03 DIIS
   @RHF iter   3:  -233.31495731740415   -3.00060e-02   3.89401e-04 DIIS
   @RHF iter   4:  -233.31706171487627   -2.10440e-03   1.17625e-04 DIIS
   @RHF iter   5:  -233.31719156232418   -1.29847e-04   2.47108e-05 DIIS
   @RHF iter   6:  -233.31719957430636   -8.01198e-06   5.44737e-06 DIIS
   @RHF iter   7:  -233.31720006899508   -4.94689e-07   1.49770e-06 DIIS
   @RHF iter   8:  -233.31720010639029   -3.73952e-08   4.83938e-07 DIIS
   @RHF iter   9:  -233.31720011141311   -5.02283e-09   1.03215e-07 DIIS
   @RHF iter  10:  -233.31720011167954   -2.66425e-10   2.10719e-08 DIIS
   @RHF iter  11:  -233.31720011168994   -1.04023e-11   4.95566e-09 DIIS
   @RHF iter  12:  -233.31720011169034   -3.97904e-13   1.28910e-09 DIIS
   @RHF iter  13:  -233.31720011169043   -8.52651e-14   3.82149e-10 DIIS
   @RHF iter  14:  -233.31720011169014    2.84217e-13   1.37278e-10 DIIS
   @RHF iter  15:  -233.31720011169031   -1.70530e-13   4.87895e-11 DIIS
  Energy and wave function converged.

  ==> Post-Iterations <==

    Orbital Energies [Eh]
    ---------------------

    Doubly Occupied:

       1A    -20.554205     2A    -11.278828     3A    -11.206045
       4A    -11.202861     5A    -11.198635     6A     -1.354514
       7A     -1.038529     8A     -0.925270     9A     -0.910801
      10A     -0.783520    11A     -0.685637    12A     -0.621948
      13A     -0.615307    14A     -0.593305    15A     -0.580858
      16A     -0.536028    17A     -0.517975    18A     -0.495592
      19A     -0.461343    20A     -0.455880    21A     -0.450055
      22A     -0.440493

    Virtual:

      23A      0.172381    24A      0.200995    25A      0.212552
      26A      0.241993    27A      0.247647    28A      0.253026
      29A      0.262549    30A      0.278814    31A      0.286901
      32A      0.305124    33A      0.316366    34A      0.345075
      35A      0.360365    36A      0.393182    37A      0.439584
      38A      0.586739    39A      0.618307    40A      0.624449
      41A      0.631447    42A      0.639120    43A      0.640970
      44A      0.649648    45A      0.730433    46A      0.798256
      47A      0.809760    48A      0.841786    49A      0.855813
      50A      0.867480    51A      0.883859    52A      0.898444
      53A      0.899117    54A      0.904168    55A      0.909407
      56A      0.915209    57A      0.923631    58A      0.926672
      59A      0.952547    60A      0.985212    61A      1.012666
      62A      1.132275    63A      1.137994    64A      1.142953
      65A      1.152507    66A      1.173862    67A      1.221496
      68A      1.308815    69A      1.366499    70A      1.421100
      71A      1.486445    72A      1.500676    73A      1.513952
      74A      1.539910    75A      1.617095    76A      1.657312
      77A      1.666963    78A      1.671808    79A      1.693197
      80A      1.697719    81A      1.704263    82A      1.854908
      83A      1.861070    84A      1.883180    85A      1.893198
      86A      1.905974    87A      1.928213    88A      1.935452
      89A      1.956661    90A      1.960766    91A      1.980910
      92A      1.986473    93A      1.999409    94A      2.005479
      95A      2.007598    96A      2.026099    97A      2.041045
      98A      2.053165    99A      2.135529   100A      2.150224
     101A      2.185725   102A      2.287593   103A      2.301390
     104A      2.320512   105A      2.345216   106A      2.359577
     107A      2.367312   108A      2.382950   109A      2.512596
     110A      2.520527   111A      2.558046   112A      2.608942
     113A      2.632344   114A      2.649989   115A      2.745331
     116A      2.757864   117A      2.759909   118A      2.766655
     119A      2.777825   120A      2.797830   121A      2.822188
     122A      2.950991   123A      2.980313   124A      2.986695
     125A      3.109500   126A      3.284255   127A      3.397094
     128A      3.436594   129A      3.614620   130A      4.095291

    Final Occupation by Irrep:
              A
    DOCC [    22 ]

  @RHF Final Energy:  -233.31720011169031

   => Energetics <=

    Nuclear Repulsion Energy =            182.6799141447682189
    One-Electron Energy =                -678.1789706347279889
    Two-Electron Energy =                 262.1818563782695151
    Total Energy =                       -233.3172001116902834

Computation Completed

Properties will be evaluated at   0.000000,   0.000000,   0.000000 [a0]

Properties computed using the SCF density matrix

  Nuclear Dipole Moment: [e a0]
     X:     1.7235      Y:    -0.6235      Z:    -1.0590

  Electronic Dipole Moment: [e a0]
     X:    -2.4362      Y:     1.0460      Z:     1.3347

  Dipole Moment: [e a0]
     X:    -0.7127      Y:     0.4225      Z:     0.2757     Total:     0.8732

  Dipole Moment: [D]
     X:    -1.8115      Y:     1.0739      Z:     0.7007     Total:     2.2194

*** tstop() called on ds3 at Mon Apr 27 19:13:04 2020
Module time:
	user time   =      11.46 seconds =       0.19 minutes
	system time =       4.62 seconds =       0.08 minutes
	total time  =         26 seconds =       0.43 minutes
Total time:
	user time   =      11.46 seconds =       0.19 minutes
	system time =       4.62 seconds =       0.08 minutes
	total time  =         26 seconds =       0.43 minutes
                                     G D M A

                                 by Anthony Stone

                           version 2.2.06, 22 June 2011

               Distributed Multipoles from Gaussian wavefunctions

Starting at 19:13:4 on 27 Apr 2020

Using SCF density matrix from file ./SSI/SSI-019SER-023ARG-1-dimer.test.4503.fchk

                         Distributed Multipole Analysis

Standard DMA

Positions and radii in angstrom
Multipole moments in atomic units, ea_0^k for rank k

C          x = -2.088747  y =  0.517420  z =  2.104299 angstrom
           Maximum rank =  0   Radius =  0.650 angstrom
                   Q00  =  -0.036672

O          x = -1.460747  y =  0.444420  z =  0.843299 angstrom
           Maximum rank =  0   Radius =  0.650 angstrom
                   Q00  =  -0.577634

H          x = -1.920747  y =  0.987420  z =  0.182299 angstrom
           Maximum rank =  0   Radius =  0.325 angstrom
                   Q00  =   0.381344

H          x = -1.600747  y = -0.181580  z =  2.782299 angstrom
           Maximum rank =  0   Radius =  0.325 angstrom
                   Q00  =   0.118067

H          x = -3.135747  y =  0.228420  z =  1.990299 angstrom
           Maximum rank =  0   Radius =  0.325 angstrom
                   Q00  =   0.064707

H          x = -2.027497  y =  1.531290  z =  2.526566 angstrom
           Maximum rank =  0   Radius =  0.325 angstrom
                   Q00  =   0.067411

C          x =  1.210253  y =  0.152420  z = -0.824701 angstrom
           Maximum rank =  0   Radius =  0.650 angstrom
                   Q00  =  -0.063736

C          x =  1.188253  y = -0.108580  z = -2.326701 angstrom
           Maximum rank =  0   Radius =  0.650 angstrom
                   Q00  =  -0.244132

C          x =  1.482253  y = -1.097580  z =  0.018299 angstrom
           Maximum rank =  0   Radius =  0.650 angstrom
                   Q00  =  -0.243290

H          x =  2.017253  y =  0.867420  z = -0.663701 angstrom
           Maximum rank =  0   Radius =  0.325 angstrom
                   Q00  =   0.028252

H          x =  0.302253  y =  0.654420  z = -0.556701 angstrom
           Maximum rank =  0   Radius =  0.325 angstrom
                   Q00  =   0.058940

H          x =  2.149253  y = -0.535580  z = -2.628701 angstrom
           Maximum rank =  0   Radius =  0.325 angstrom
                   Q00  =   0.069924

H          x =  0.691253  y = -1.833580  z = -0.127701 angstrom
           Maximum rank =  0   Radius =  0.325 angstrom
                   Q00  =   0.079207

H          x =  2.436253  y = -1.537580  z = -0.278701 angstrom
           Maximum rank =  0   Radius =  0.325 angstrom
                   Q00  =   0.067350

H          x =  1.010043  y =  0.831360  z = -2.869611 angstrom
           Maximum rank =  0   Radius =  0.325 angstrom
                   Q00  =   0.076363

H          x =  0.406653  y = -0.840970  z = -2.577103 angstrom
           Maximum rank =  0   Radius =  0.325 angstrom
                   Q00  =   0.069006

H          x =  1.517723  y = -0.838430  z =  1.086748 angstrom
           Maximum rank =  0   Radius =  0.325 angstrom
                   Q00  =   0.084895

Total multipoles referred to origin at
           x =   0.000000,  y =    0.000000,  z =    0.000000 angstrom
                   Q00  =  -0.000000

Finished at 19:13:4 on 27 Apr 2020

  DMA results are available in the Python driver through the
	  variable('DMA DISTRIBUTED MULTIPOLES')
  and
	  variable('DMA TOTAL MULTIPOLES')
  commands.

    Psi4 stopped on: Monday, 27 April 2020 07:13PM
    Psi4 wall time for execution: 0:00:26.00

*** Psi4 exiting successfully. Buy a developer a beer!
