                               Psi4 1.3.2 release

  ==> Input File <==

--------------------------------------------------------------------------
import numpy as np
set {scf_type pk
basis cc-pvdz
d_convergence 10
gdma_switch   0
gdma_limit    0
gdma_origin   [ 0.0,  0.0,  0.0 ]
}
molecule test {
    units Angstrom
    -1 1
    --
    -1 1
    C                0.146438204738098    -0.713950359199188    -1.914701978529257
    C               -0.578561795261902    -1.006950359199188    -0.608701978529257
    O               -1.748561795261902    -0.649950359199188    -0.411701978529257
    O                0.133438204738098    -1.608950359199188     0.226298021470743
    H                0.745438204738098    -1.594950359199188    -2.149701978529257
    H                0.829438204738098     0.123049640800812    -1.768701978529257
    H               -0.502441795261902    -0.525680359199188    -2.782751978529257
    C                0.754438204738098     1.399049640800812     1.790298021470743
    C                1.237438204738098     2.519049640800812     0.873298021470743
    H               -0.246561795261902     1.600049640800812     2.171298021470743
    H                0.745438204738098     0.475049640800812     1.231298021470743
    H                1.445438204738098     1.275049640800812     2.623298021470743
    H                2.103438204738098     2.175049640800812     0.303298021470743
    H                1.524498204738098     3.401599640800812     1.463808021470743
    H                0.416788204738098     2.759509640800812     0.181408021470743

}
e, wfn = energy('scf', return_wfn=True)
gdma(wfn)
dmavals = variable('DMA DISTRIBUTED MULTIPOLES')
charges = np.array(dmavals)
print(charges)
np.save('SSI-239ASP-244THR-1-dimer.npy', np.array(charges))--------------------------------------------------------------------------

*** tstart() called on ds3
*** at Mon Apr 27 06:50:17 2020

   => Loading Basis Set <=

    Name: CC-PVDZ
    Role: ORBITAL
    Keyword: BASIS
    atoms 1-2, 8-9   entry C          line   138 file /theoryfs2/ds/metcalf/miniconda2/envs/tf2gpu/share/psi4/basis/cc-pvdz.gbs
    atoms 3-4        entry O          line   198 file /theoryfs2/ds/metcalf/miniconda2/envs/tf2gpu/share/psi4/basis/cc-pvdz.gbs
    atoms 5-7, 10-15 entry H          line    22 file /theoryfs2/ds/metcalf/miniconda2/envs/tf2gpu/share/psi4/basis/cc-pvdz.gbs

         ---------------------------------------------------------
                                   SCF
               by Justin Turney, Rob Parrish, Andy Simmonett
                          and Daniel G. A. Smith
                              RHF Reference
                        1 Threads,    500 MiB Core
         ---------------------------------------------------------

  ==> Geometry <==

    Molecular point group: c1
    Full point group: C1

    Geometry (in Angstrom), charge = -1, multiplicity = 1:

       Center              X                  Y                   Z               Mass
    ------------   -----------------  -----------------  -----------------  -----------------
         C            0.146438204738    -0.713950359199    -1.914701978529    12.000000000000
         C           -0.578561795262    -1.006950359199    -0.608701978529    12.000000000000
         O           -1.748561795262    -0.649950359199    -0.411701978529    15.994914619570
         O            0.133438204738    -1.608950359199     0.226298021471    15.994914619570
         H            0.745438204738    -1.594950359199    -2.149701978529     1.007825032230
         H            0.829438204738     0.123049640801    -1.768701978529     1.007825032230
         H           -0.502441795262    -0.525680359199    -2.782751978529     1.007825032230
         C            0.754438204738     1.399049640801     1.790298021471    12.000000000000
         C            1.237438204738     2.519049640801     0.873298021471    12.000000000000
         H           -0.246561795262     1.600049640801     2.171298021471     1.007825032230
         H            0.745438204738     0.475049640801     1.231298021471     1.007825032230
         H            1.445438204738     1.275049640801     2.623298021471     1.007825032230
         H            2.103438204738     2.175049640801     0.303298021471     1.007825032230
         H            1.524498204738     3.401599640801     1.463808021471     1.007825032230
         H            0.416788204738     2.759509640801     0.181408021471     1.007825032230

  Running in c1 symmetry.

  Rotational constants: A =      0.15312  B =      0.04783  C =      0.04512 [cm^-1]
  Rotational constants: A =   4590.53717  B =   1434.04670  C =   1352.62414 [MHz]
  Nuclear repulsion =  227.425354299424157

  Charge       = -1
  Multiplicity = 1
  Electrons    = 50
  Nalpha       = 25
  Nbeta        = 25

  ==> Algorithm <==

  SCF Algorithm Type is PK.
  DIIS enabled.
  MOM disabled.
  Fractional occupation disabled.
  Guess Type is SAD.
  Energy threshold   = 1.00e-06
  Density threshold  = 1.00e-10
  Integral threshold = 0.00e+00

  ==> Primary Basis <==

  Basis Set: CC-PVDZ
    Blend: CC-PVDZ
    Number of shells: 63
    Number of basis function: 129
    Number of Cartesian functions: 135
    Spherical Harmonics?: true
    Max angular momentum: 2

  ==> Pre-Iterations <==

   -------------------------------------------------------
    Irrep   Nso     Nmo     Nalpha   Nbeta   Ndocc  Nsocc
   -------------------------------------------------------
     A        129     129       0       0       0       0
   -------------------------------------------------------
    Total     129     129      25      25      25       0
   -------------------------------------------------------

  ==> Integral Setup <==

  Using integral reordering PK algorithm.
  Sizing the integral batches needed.
  Building batch lookup table.
   Calculation information:
      Number of atoms:                  15
      Number of AO shells:              63
      Number of primitives:            177
      Number of atomic orbitals:       135
      Number of basis functions:       129

      Integral cutoff                 1.00e-12
      Number of threads:                 1

	Batch   1 pq = [       0,    8385] index = [             0,35158305] size =     35158305
  Task number: 4
  Buffer size: 11059200
  Buffer per thread: 2
  We computed 1856544 shell quartets total.
  Whereas there are 2033136 unique shell quartets.

  ==> DiskJK: Disk-Based J/K Matrices <==

    J tasked:                  Yes
    K tasked:                  Yes
    wK tasked:                  No
    Memory [MiB]:              375
    Schwarz Cutoff:          1E-12

    OpenMP threads:              1

  Minimum eigenvalue in the overlap matrix is 5.2770111509E-03.
  Using Symmetric Orthogonalization.

  SCF Guess: Superposition of Atomic Densities via on-the-fly atomic UHF.

  ==> Iterations <==

                        Total Energy        Delta E     RMS |[F,P]|

   @RHF iter SAD:  -304.89776495020436   -3.04898e+02   0.00000e+00
   @RHF iter   1:  -306.21362011881666   -1.31586e+00   5.62112e-03 DIIS
   @RHF iter   2:  -306.41393928860703   -2.00319e-01   3.10944e-03 DIIS
   @RHF iter   3:  -306.47301467025574   -5.90754e-02   4.64257e-04 DIIS
   @RHF iter   4:  -306.47550146751468   -2.48680e-03   1.76792e-04 DIIS
   @RHF iter   5:  -306.47587303545964   -3.71568e-04   2.56977e-05 DIIS
   @RHF iter   6:  -306.47588379805609   -1.07626e-05   5.55197e-06 DIIS
   @RHF iter   7:  -306.47588434194807   -5.43892e-07   1.92604e-06 DIIS
   @RHF iter   8:  -306.47588440586833   -6.39203e-08   6.26699e-07 DIIS
   @RHF iter   9:  -306.47588441738651   -1.15182e-08   3.41233e-07 DIIS
   @RHF iter  10:  -306.47588441921641   -1.82990e-09   1.13136e-07 DIIS
   @RHF iter  11:  -306.47588441964507   -4.28656e-10   3.14921e-08 DIIS
   @RHF iter  12:  -306.47588441966815   -2.30784e-11   7.32272e-09 DIIS
   @RHF iter  13:  -306.47588441966957   -1.42109e-12   2.48168e-09 DIIS
   @RHF iter  14:  -306.47588441966872    8.52651e-13   7.26260e-10 DIIS
   @RHF iter  15:  -306.47588441966900   -2.84217e-13   2.99259e-10 DIIS
   @RHF iter  16:  -306.47588441966928   -2.84217e-13   8.15942e-11 DIIS
  Energy and wave function converged.

  ==> Post-Iterations <==

    Orbital Energies [Eh]
    ---------------------

    Doubly Occupied:

       1A    -20.262160     2A    -20.254369     3A    -11.114020
       4A    -11.100039     5A    -11.073546     6A    -11.046516
       7A     -1.151726     8A     -1.040076     9A     -0.890484
      10A     -0.792569    11A     -0.706305    12A     -0.499530
      13A     -0.472767    14A     -0.471297    15A     -0.411692
      16A     -0.408407    17A     -0.398415    18A     -0.370439
      19A     -0.357664    20A     -0.353806    21A     -0.341321
      22A     -0.301249    23A     -0.180062    24A     -0.173134
      25A     -0.161409

    Virtual:

      26A      0.298694    27A      0.348926    28A      0.366874
      29A      0.371165    30A      0.377004    31A      0.408206
      32A      0.418527    33A      0.419541    34A      0.492736
      35A      0.505233    36A      0.529503    37A      0.579357
      38A      0.679015    39A      0.723611    40A      0.728573
      41A      0.742646    42A      0.758817    43A      0.813889
      44A      0.827491    45A      0.841851    46A      0.870821
      47A      0.961287    48A      0.977225    49A      0.996059
      50A      1.006136    51A      1.015704    52A      1.032204
      53A      1.034416    54A      1.054000    55A      1.059640
      56A      1.062659    57A      1.072790    58A      1.122195
      59A      1.142296    60A      1.164359    61A      1.235562
      62A      1.250447    63A      1.274430    64A      1.330035
      65A      1.355940    66A      1.374815    67A      1.408156
      68A      1.549246    69A      1.570598    70A      1.577300
      71A      1.601967    72A      1.610648    73A      1.621245
      74A      1.667465    75A      1.695910    76A      1.741126
      77A      1.772062    78A      1.796812    79A      1.849143
      80A      1.863259    81A      1.873916    82A      1.987251
      83A      1.996230    84A      2.018180    85A      2.047576
      86A      2.063087    87A      2.071115    88A      2.081434
      89A      2.091577    90A      2.095586    91A      2.112014
      92A      2.118359    93A      2.158967    94A      2.219947
      95A      2.252609    96A      2.260025    97A      2.283068
      98A      2.376782    99A      2.410144   100A      2.444054
     101A      2.455824   102A      2.459128   103A      2.567590
     104A      2.582085   105A      2.610371   106A      2.687507
     107A      2.714147   108A      2.715263   109A      2.738692
     110A      2.766845   111A      2.883826   112A      2.924448
     113A      2.939594   114A      2.964949   115A      2.978910
     116A      2.984014   117A      3.009342   118A      3.090452
     119A      3.109986   120A      3.241261   121A      3.278441
     122A      3.300119   123A      3.374998   124A      3.632761
     125A      3.808601   126A      3.854615   127A      4.076166
     128A      4.092628   129A      4.197432

    Final Occupation by Irrep:
              A
    DOCC [    25 ]

  @RHF Final Energy:  -306.47588441966928

   => Energetics <=

    Nuclear Repulsion Energy =            227.4253542994241570
    One-Electron Energy =                -879.1364759992376321
    Two-Electron Energy =                 345.2352372801441902
    Total Energy =                       -306.4758844196692849

Computation Completed

Properties will be evaluated at   0.000000,   0.000000,   0.000000 [a0]

Properties computed using the SCF density matrix

  Nuclear Dipole Moment: [e a0]
     X:     6.6122      Y:     9.0720      Z:     1.1927

  Electronic Dipole Moment: [e a0]
     X:    -5.2483      Y:    -7.2921      Z:    -1.3640

  Dipole Moment: [e a0]
     X:     1.3639      Y:     1.7799      Z:    -0.1712     Total:     2.2489

  Dipole Moment: [D]
     X:     3.4667      Y:     4.5241      Z:    -0.4352     Total:     5.7162

*** tstop() called on ds3 at Mon Apr 27 06:50:34 2020
Module time:
	user time   =      13.33 seconds =       0.22 minutes
	system time =       4.82 seconds =       0.08 minutes
	total time  =         17 seconds =       0.28 minutes
Total time:
	user time   =      13.33 seconds =       0.22 minutes
	system time =       4.82 seconds =       0.08 minutes
	total time  =         17 seconds =       0.28 minutes
                                     G D M A

                                 by Anthony Stone

                           version 2.2.06, 22 June 2011

               Distributed Multipoles from Gaussian wavefunctions

Starting at 6:50:34 on 27 Apr 2020

Using SCF density matrix from file ./SSI/SSI-239ASP-244THR-1-dimer.test.3814.fchk

                         Distributed Multipole Analysis

Standard DMA

Positions and radii in angstrom
Multipole moments in atomic units, ea_0^k for rank k

C          x =  0.146438  y = -0.713950  z = -1.914702 angstrom
           Maximum rank =  0   Radius =  0.650 angstrom
                   Q00  =  -0.286104

C          x = -0.578562  y = -1.006950  z = -0.608702 angstrom
           Maximum rank =  0   Radius =  0.650 angstrom
                   Q00  =   0.968223

O          x = -1.748562  y = -0.649950  z = -0.411702 angstrom
           Maximum rank =  0   Radius =  0.650 angstrom
                   Q00  =  -0.906024

O          x =  0.133438  y = -1.608950  z =  0.226298 angstrom
           Maximum rank =  0   Radius =  0.650 angstrom
                   Q00  =  -0.934783

H          x =  0.745438  y = -1.594950  z = -2.149702 angstrom
           Maximum rank =  0   Radius =  0.325 angstrom
                   Q00  =   0.059547

H          x =  0.829438  y =  0.123050  z = -1.768702 angstrom
           Maximum rank =  0   Radius =  0.325 angstrom
                   Q00  =   0.077881

H          x = -0.502442  y = -0.525680  z = -2.782752 angstrom
           Maximum rank =  0   Radius =  0.325 angstrom
                   Q00  =   0.036995

C          x =  0.754438  y =  1.399050  z =  1.790298 angstrom
           Maximum rank =  0   Radius =  0.650 angstrom
                   Q00  =  -0.184371

C          x =  1.237438  y =  2.519050  z =  0.873298 angstrom
           Maximum rank =  0   Radius =  0.650 angstrom
                   Q00  =  -0.233632

H          x = -0.246562  y =  1.600050  z =  2.171298 angstrom
           Maximum rank =  0   Radius =  0.325 angstrom
                   Q00  =   0.070259

H          x =  0.745438  y =  0.475050  z =  1.231298 angstrom
           Maximum rank =  0   Radius =  0.325 angstrom
                   Q00  =   0.112615

H          x =  1.445438  y =  1.275050  z =  2.623298 angstrom
           Maximum rank =  0   Radius =  0.325 angstrom
                   Q00  =   0.033419

H          x =  2.103438  y =  2.175050  z =  0.303298 angstrom
           Maximum rank =  0   Radius =  0.325 angstrom
                   Q00  =   0.069161

H          x =  1.524498  y =  3.401600  z =  1.463808 angstrom
           Maximum rank =  0   Radius =  0.325 angstrom
                   Q00  =   0.036471

H          x =  0.416788  y =  2.759510  z =  0.181408 angstrom
           Maximum rank =  0   Radius =  0.325 angstrom
                   Q00  =   0.080343

Total multipoles referred to origin at
           x =   0.000000,  y =    0.000000,  z =    0.000000 angstrom
                   Q00  =  -1.000000

Finished at 6:50:34 on 27 Apr 2020

  DMA results are available in the Python driver through the
	  variable('DMA DISTRIBUTED MULTIPOLES')
  and
	  variable('DMA TOTAL MULTIPOLES')
  commands.

    Psi4 stopped on: Monday, 27 April 2020 06:50AM
    Psi4 wall time for execution: 0:00:17.74

*** Psi4 exiting successfully. Buy a developer a beer!
