                               Psi4 1.3.2 release

  ==> Input File <==

--------------------------------------------------------------------------
import numpy as np
set {scf_type pk
basis cc-pvdz
d_convergence 10
gdma_switch   0
gdma_limit    0
gdma_origin   [ 0.0,  0.0,  0.0 ]
}
molecule test {
    units Angstrom
    0 1
    --
    0 1
    C                0.710883482925042     1.433179769814626     2.246164697464888
    C                0.745883482925042     0.195179769814626     3.125164697464887
    C                0.117883482925042     2.460179769814626     3.125164697464887
    H                0.055883482925042     1.270179769814627     1.389164697464888
    H                1.709883482925042     1.716179769814626     1.912164697464888
    H                0.682883482925042    -0.722820230185374     2.561164697464888
    H                1.624883482925042     0.206179769814626     3.771164697464888
    H               -0.285116517074958     3.296179769814626     2.550164697464888
    H                0.876883482925042     2.822179769814626     3.820164697464888
    H               -0.168846517074958     0.297822769814626     3.727437697464888
    H               -0.660956517074958     1.921876769814626     3.685202697464888
    C               -2.339116517074959    -0.064820230185374    -3.115835302535112
    C                0.791883482925042    -0.782820230185374    -0.270835302535112
    C               -0.426116517074958    -1.409820230185374    -0.135835302535112
    C                0.998883482925042     0.116179769814626    -1.293835302535112
    C               -1.437116517074958    -1.155820230185374    -1.036835302535112
    C               -0.038116517074958     0.367179769814626    -2.199835302535112
    C               -1.245116517074958    -0.291820230185374    -2.096835302535112
    O                1.800883482925042    -1.085820230185374     0.619164697464888
    H               -0.594116517074958    -2.111820230185374     0.668164697464888
    H                1.578883482925042    -1.828820230185374     1.190164697464888
    H                1.954883482925042     0.611179769814626    -1.391835302535112
    H               -2.388116517074959    -1.658820230185374    -0.915835302535112
    H                0.125883482925042     1.068179769814626    -3.009835302535112
    H               -1.985116517074958     0.614179769814626    -3.892835302535112
    H               -3.185116517074958     0.409179769814626    -2.618835302535112
    H               -2.679566517074958    -0.999093230185374    -3.586183302535112

}
e, wfn = energy('scf', return_wfn=True)
gdma(wfn)
dmavals = variable('DMA DISTRIBUTED MULTIPOLES')
charges = np.array(dmavals)
print(charges)
np.save('SSI-050PRO-096TYR-1-dimer.npy', np.array(charges))--------------------------------------------------------------------------

*** tstart() called on ds3
*** at Mon Apr 27 08:00:14 2020

   => Loading Basis Set <=

    Name: CC-PVDZ
    Role: ORBITAL
    Keyword: BASIS
    atoms 1-3, 12-18  entry C          line   138 file /theoryfs2/ds/metcalf/miniconda2/envs/tf2gpu/share/psi4/basis/cc-pvdz.gbs
    atoms 4-11, 20-27 entry H          line    22 file /theoryfs2/ds/metcalf/miniconda2/envs/tf2gpu/share/psi4/basis/cc-pvdz.gbs
    atoms 19          entry O          line   198 file /theoryfs2/ds/metcalf/miniconda2/envs/tf2gpu/share/psi4/basis/cc-pvdz.gbs

         ---------------------------------------------------------
                                   SCF
               by Justin Turney, Rob Parrish, Andy Simmonett
                          and Daniel G. A. Smith
                              RHF Reference
                        1 Threads,    500 MiB Core
         ---------------------------------------------------------

  ==> Geometry <==

    Molecular point group: c1
    Full point group: C1

    Geometry (in Angstrom), charge = 0, multiplicity = 1:

       Center              X                  Y                   Z               Mass
    ------------   -----------------  -----------------  -----------------  -----------------
         C            0.710883482925     1.433179769815     2.246164697465    12.000000000000
         C            0.745883482925     0.195179769815     3.125164697465    12.000000000000
         C            0.117883482925     2.460179769815     3.125164697465    12.000000000000
         H            0.055883482925     1.270179769815     1.389164697465     1.007825032230
         H            1.709883482925     1.716179769815     1.912164697465     1.007825032230
         H            0.682883482925    -0.722820230185     2.561164697465     1.007825032230
         H            1.624883482925     0.206179769815     3.771164697465     1.007825032230
         H           -0.285116517075     3.296179769815     2.550164697465     1.007825032230
         H            0.876883482925     2.822179769815     3.820164697465     1.007825032230
         H           -0.168846517075     0.297822769815     3.727437697465     1.007825032230
         H           -0.660956517075     1.921876769815     3.685202697465     1.007825032230
         C           -2.339116517075    -0.064820230185    -3.115835302535    12.000000000000
         C            0.791883482925    -0.782820230185    -0.270835302535    12.000000000000
         C           -0.426116517075    -1.409820230185    -0.135835302535    12.000000000000
         C            0.998883482925     0.116179769815    -1.293835302535    12.000000000000
         C           -1.437116517075    -1.155820230185    -1.036835302535    12.000000000000
         C           -0.038116517075     0.367179769815    -2.199835302535    12.000000000000
         C           -1.245116517075    -0.291820230185    -2.096835302535    12.000000000000
         O            1.800883482925    -1.085820230185     0.619164697465    15.994914619570
         H           -0.594116517075    -2.111820230185     0.668164697465     1.007825032230
         H            1.578883482925    -1.828820230185     1.190164697465     1.007825032230
         H            1.954883482925     0.611179769815    -1.391835302535     1.007825032230
         H           -2.388116517075    -1.658820230185    -0.915835302535     1.007825032230
         H            0.125883482925     1.068179769815    -3.009835302535     1.007825032230
         H           -1.985116517075     0.614179769815    -3.892835302535     1.007825032230
         H           -3.185116517075     0.409179769815    -2.618835302535     1.007825032230
         H           -2.679566517075    -0.999093230185    -3.586183302535     1.007825032230

  Running in c1 symmetry.

  Rotational constants: A =      0.05505  B =      0.01808  C =      0.01643 [cm^-1]
  Rotational constants: A =   1650.41726  B =    542.01420  C =    492.70673 [MHz]
  Nuclear repulsion =  599.914736745920663

  Charge       = 0
  Multiplicity = 1
  Electrons    = 84
  Nalpha       = 42
  Nbeta        = 42

  ==> Algorithm <==

  SCF Algorithm Type is PK.
  DIIS enabled.
  MOM disabled.
  Fractional occupation disabled.
  Guess Type is SAD.
  Energy threshold   = 1.00e-06
  Density threshold  = 1.00e-10
  Integral threshold = 0.00e+00

  ==> Primary Basis <==

  Basis Set: CC-PVDZ
    Blend: CC-PVDZ
    Number of shells: 114
    Number of basis function: 234
    Number of Cartesian functions: 245
    Spherical Harmonics?: true
    Max angular momentum: 2

  ==> Pre-Iterations <==

   -------------------------------------------------------
    Irrep   Nso     Nmo     Nalpha   Nbeta   Ndocc  Nsocc
   -------------------------------------------------------
     A        234     234       0       0       0       0
   -------------------------------------------------------
    Total     234     234      42      42      42       0
   -------------------------------------------------------

  ==> Integral Setup <==

  Using integral reordering PK algorithm.
  Sizing the integral batches needed.
  Building batch lookup table.
   Calculation information:
      Number of atoms:                  27
      Number of AO shells:             114
      Number of primitives:            322
      Number of atomic orbitals:       245
      Number of basis functions:       234

      Integral cutoff                 1.00e-12
      Number of threads:                 1

	Batch   1 pq = [       0,    9405] index = [             0,44231715] size =     44231715
	Batch   2 pq = [    9405,   13301] index = [      44231715,88464951] size =     44233236
	Batch   3 pq = [   13301,   16290] index = [      88464951,132690195] size =     44225244
	Batch   4 pq = [   16290,   18810] index = [     132690195,176917455] size =     44227260
	Batch   5 pq = [   18810,   21030] index = [     176917455,221140965] size =     44223510
	Batch   6 pq = [   21030,   23037] index = [     221140965,265363203] size =     44222238
	Batch   7 pq = [   23037,   24883] index = [     265363203,309594286] size =     44231083
	Batch   8 pq = [   24883,   26601] index = [     309594286,353819901] size =     44225615
	Batch   9 pq = [   26601,   27495] index = [     353819901,378001260] size =     24181359
  Task number: 35
  Buffer size: 11059200
  Buffer per thread: 2
  We computed 20926323 shell quartets total.
  Whereas there are 21487290 unique shell quartets.

  ==> DiskJK: Disk-Based J/K Matrices <==

    J tasked:                  Yes
    K tasked:                  Yes
    wK tasked:                  No
    Memory [MiB]:              375
    Schwarz Cutoff:          1E-12

    OpenMP threads:              1

  Minimum eigenvalue in the overlap matrix is 2.9443435326E-04.
  Using Symmetric Orthogonalization.

  SCF Guess: Superposition of Atomic Densities via on-the-fly atomic UHF.

  ==> Iterations <==

                        Total Energy        Delta E     RMS |[F,P]|

   @RHF iter SAD:  -462.06947439039936   -4.62069e+02   0.00000e+00
   @RHF iter   1:  -462.56999725775063   -5.00523e-01   2.89234e-03 DIIS
   @RHF iter   2:  -462.82097786552288   -2.50981e-01   1.25156e-03 DIIS
   @RHF iter   3:  -462.86424866382606   -4.32708e-02   2.70921e-04 DIIS
   @RHF iter   4:  -462.86757086137465   -3.32220e-03   9.90493e-05 DIIS
   @RHF iter   5:  -462.86788231501555   -3.11454e-04   2.12514e-05 DIIS
   @RHF iter   6:  -462.86790267769555   -2.03627e-05   6.81596e-06 DIIS
   @RHF iter   7:  -462.86790490042864   -2.22273e-06   1.83807e-06 DIIS
   @RHF iter   8:  -462.86790514792995   -2.47501e-07   7.15655e-07 DIIS
   @RHF iter   9:  -462.86790518300802   -3.50781e-08   2.68666e-07 DIIS
   @RHF iter  10:  -462.86790518918565   -6.17763e-09   1.05398e-07 DIIS
   @RHF iter  11:  -462.86790519086662   -1.68097e-09   4.43797e-08 DIIS
   @RHF iter  12:  -462.86790519124889   -3.82272e-10   2.15825e-08 DIIS
   @RHF iter  13:  -462.86790519130864   -5.97424e-11   7.20915e-09 DIIS
   @RHF iter  14:  -462.86790519131580   -7.16227e-12   1.90519e-09 DIIS
   @RHF iter  15:  -462.86790519131347    2.33058e-12   7.25565e-10 DIIS
   @RHF iter  16:  -462.86790519131262    8.52651e-13   2.65624e-10 DIIS
   @RHF iter  17:  -462.86790519131159    1.02318e-12   1.28956e-10 DIIS
   @RHF iter  18:  -462.86790519131171   -1.13687e-13   6.48616e-11 DIIS
  Energy and wave function converged.

  ==> Post-Iterations <==

    Orbital Energies [Eh]
    ---------------------

    Doubly Occupied:

       1A    -20.580670     2A    -11.296073     3A    -11.238186
       4A    -11.236696     5A    -11.232407     6A    -11.231617
       7A    -11.230937     8A    -11.229761     9A    -11.204204
      10A    -11.202362    11A    -11.200952    12A     -1.393156
      13A     -1.159293    14A     -1.066696    15A     -1.042239
      16A     -1.021324    17A     -0.929423    18A     -0.909226
      19A     -0.847315    20A     -0.804259    21A     -0.788823
      22A     -0.732642    23A     -0.670966    24A     -0.641958
      25A     -0.633110    26A     -0.618841    27A     -0.609927
      28A     -0.588267    29A     -0.581940    30A     -0.569660
      31A     -0.564505    32A     -0.532328    33A     -0.527663
      34A     -0.503740    35A     -0.498873    36A     -0.487590
      37A     -0.478524    38A     -0.471484    39A     -0.455916
      40A     -0.453558    41A     -0.340819    42A     -0.307506

    Virtual:

      43A      0.128494    44A      0.157151    45A      0.176212
      46A      0.185733    47A      0.203233    48A      0.212367
      49A      0.221766    50A      0.234200    51A      0.238625
      52A      0.253297    53A      0.268435    54A      0.269634
      55A      0.272500    56A      0.284453    57A      0.294222
      58A      0.313578    59A      0.332500    60A      0.347776
      61A      0.370393    62A      0.379206    63A      0.394892
      64A      0.424895    65A      0.450660    66A      0.457628
      67A      0.485300    68A      0.497454    69A      0.511321
      70A      0.566866    71A      0.601978    72A      0.614377
      73A      0.615342    74A      0.622985    75A      0.633500
      76A      0.651247    77A      0.666910    78A      0.674906
      79A      0.693457    80A      0.715512    81A      0.728359
      82A      0.736921    83A      0.745193    84A      0.755414
      85A      0.770235    86A      0.781660    87A      0.787580
      88A      0.800935    89A      0.824550    90A      0.835374
      91A      0.843471    92A      0.852487    93A      0.862372
      94A      0.866695    95A      0.874148    96A      0.886334
      97A      0.888164    98A      0.895268    99A      0.898328
     100A      0.910543   101A      0.914864   102A      0.925674
     103A      0.934329   104A      0.939704   105A      0.943084
     106A      0.943859   107A      0.949379   108A      0.959485
     109A      0.988138   110A      1.000702   111A      1.019016
     112A      1.036182   113A      1.052930   114A      1.085289
     115A      1.118542   116A      1.129225   117A      1.137997
     118A      1.153230   119A      1.178199   120A      1.182507
     121A      1.216933   122A      1.237353   123A      1.249502
     124A      1.253111   125A      1.273766   126A      1.296711
     127A      1.317311   128A      1.323346   129A      1.345744
     130A      1.366246   131A      1.392030   132A      1.409528
     133A      1.451728   134A      1.463023   135A      1.485142
     136A      1.501854   137A      1.516964   138A      1.541878
     139A      1.556100   140A      1.610976   141A      1.629462
     142A      1.645754   143A      1.661208   144A      1.669081
     145A      1.674300   146A      1.683933   147A      1.732221
     148A      1.742273   149A      1.749715   150A      1.780546
     151A      1.790179   152A      1.815895   153A      1.823329
     154A      1.832868   155A      1.867444   156A      1.876982
     157A      1.894240   158A      1.902644   159A      1.914553
     160A      1.919681   161A      1.922862   162A      1.932331
     163A      1.942577   164A      1.951531   165A      1.954964
     166A      1.955850   167A      1.964002   168A      1.971067
     169A      1.976832   170A      2.002528   171A      2.020435
     172A      2.027426   173A      2.039098   174A      2.048107
     175A      2.052422   176A      2.068133   177A      2.087924
     178A      2.091498   179A      2.116970   180A      2.120896
     181A      2.129650   182A      2.149707   183A      2.172786
     184A      2.193402   185A      2.205245   186A      2.212161
     187A      2.232271   188A      2.258883   189A      2.271336
     190A      2.293802   191A      2.314436   192A      2.345854
     193A      2.371956   194A      2.387065   195A      2.392229
     196A      2.410847   197A      2.463420   198A      2.470228
     199A      2.472161   200A      2.483264   201A      2.516835
     202A      2.528647   203A      2.536051   204A      2.575521
     205A      2.618124   206A      2.622023   207A      2.645552
     208A      2.667519   209A      2.732056   210A      2.750859
     211A      2.770635   212A      2.774544   213A      2.794444
     214A      2.797974   215A      2.810057   216A      2.815736
     217A      2.846415   218A      2.867187   219A      2.894913
     220A      2.926213   221A      2.960582   222A      2.977263
     223A      2.998740   224A      3.023088   225A      3.087403
     226A      3.102856   227A      3.140309   228A      3.259477
     229A      3.296646   230A      3.352400   231A      3.588920
     232A      3.672319   233A      4.008877   234A      4.193945

    Final Occupation by Irrep:
              A
    DOCC [    42 ]

  @RHF Final Energy:  -462.86790519131171

   => Energetics <=

    Nuclear Repulsion Energy =            599.9147367459206635
    One-Electron Energy =               -1817.3344225594780710
    Two-Electron Energy =                 754.5517806222457011
    Total Energy =                       -462.8679051913117064

Computation Completed

Properties will be evaluated at   0.000000,   0.000000,   0.000000 [a0]

Properties computed using the SCF density matrix

  Nuclear Dipole Moment: [e a0]
     X:    -3.1196      Y:     6.4745      Z:     9.2460

  Electronic Dipole Moment: [e a0]
     X:     2.6853      Y:    -6.8441      Z:    -9.3630

  Dipole Moment: [e a0]
     X:    -0.4343      Y:    -0.3696      Z:    -0.1170     Total:     0.5821

  Dipole Moment: [D]
     X:    -1.1039      Y:    -0.9393      Z:    -0.2973     Total:     1.4796

*** tstop() called on ds3 at Mon Apr 27 08:06:24 2020
Module time:
	user time   =     158.00 seconds =       2.63 minutes
	system time =      55.68 seconds =       0.93 minutes
	total time  =        370 seconds =       6.17 minutes
Total time:
	user time   =     158.00 seconds =       2.63 minutes
	system time =      55.68 seconds =       0.93 minutes
	total time  =        370 seconds =       6.17 minutes
                                     G D M A

                                 by Anthony Stone

                           version 2.2.06, 22 June 2011

               Distributed Multipoles from Gaussian wavefunctions

Starting at 8:6:24 on 27 Apr 2020

Using SCF density matrix from file ./SSI/SSI-050PRO-096TYR-1-dimer.test.446.fchk

                         Distributed Multipole Analysis

Standard DMA

Positions and radii in angstrom
Multipole moments in atomic units, ea_0^k for rank k

C          x =  0.710883  y =  1.433180  z =  2.246165 angstrom
           Maximum rank =  0   Radius =  0.650 angstrom
                   Q00  =  -0.083216

C          x =  0.745883  y =  0.195180  z =  3.125165 angstrom
           Maximum rank =  0   Radius =  0.650 angstrom
                   Q00  =  -0.218933

C          x =  0.117883  y =  2.460180  z =  3.125165 angstrom
           Maximum rank =  0   Radius =  0.650 angstrom
                   Q00  =  -0.197270

H          x =  0.055883  y =  1.270180  z =  1.389165 angstrom
           Maximum rank =  0   Radius =  0.325 angstrom
                   Q00  =   0.056337

H          x =  1.709883  y =  1.716180  z =  1.912165 angstrom
           Maximum rank =  0   Radius =  0.325 angstrom
                   Q00  =   0.052904

H          x =  0.682883  y = -0.722820  z =  2.561165 angstrom
           Maximum rank =  0   Radius =  0.325 angstrom
                   Q00  =   0.050540

H          x =  1.624883  y =  0.206180  z =  3.771165 angstrom
           Maximum rank =  0   Radius =  0.325 angstrom
                   Q00  =   0.078492

H          x = -0.285117  y =  3.296180  z =  2.550165 angstrom
           Maximum rank =  0   Radius =  0.325 angstrom
                   Q00  =   0.075411

H          x =  0.876883  y =  2.822180  z =  3.820165 angstrom
           Maximum rank =  0   Radius =  0.325 angstrom
                   Q00  =   0.068546

H          x = -0.168847  y =  0.297823  z =  3.727438 angstrom
           Maximum rank =  0   Radius =  0.325 angstrom
                   Q00  =   0.045490

H          x = -0.660957  y =  1.921877  z =  3.685203 angstrom
           Maximum rank =  0   Radius =  0.325 angstrom
                   Q00  =   0.047210

C          x = -2.339117  y = -0.064820  z = -3.115835 angstrom
           Maximum rank =  0   Radius =  0.650 angstrom
                   Q00  =  -0.198508

C          x =  0.791883  y = -0.782820  z = -0.270835 angstrom
           Maximum rank =  0   Radius =  0.650 angstrom
                   Q00  =   0.276695

C          x = -0.426117  y = -1.409820  z = -0.135835 angstrom
           Maximum rank =  0   Radius =  0.650 angstrom
                   Q00  =  -0.169009

C          x =  0.998883  y =  0.116180  z = -1.293835 angstrom
           Maximum rank =  0   Radius =  0.650 angstrom
                   Q00  =  -0.112980

C          x = -1.437117  y = -1.155820  z = -1.036835 angstrom
           Maximum rank =  0   Radius =  0.650 angstrom
                   Q00  =   0.036251

C          x = -0.038117  y =  0.367180  z = -2.199835 angstrom
           Maximum rank =  0   Radius =  0.650 angstrom
                   Q00  =  -0.014934

C          x = -1.245117  y = -0.291820  z = -2.096835 angstrom
           Maximum rank =  0   Radius =  0.650 angstrom
                   Q00  =  -0.137857

O          x =  1.800883  y = -1.085820  z =  0.619165 angstrom
           Maximum rank =  0   Radius =  0.650 angstrom
                   Q00  =  -0.640458

H          x = -0.594117  y = -2.111820  z =  0.668165 angstrom
           Maximum rank =  0   Radius =  0.325 angstrom
                   Q00  =   0.069187

H          x =  1.578883  y = -1.828820  z =  1.190165 angstrom
           Maximum rank =  0   Radius =  0.325 angstrom
                   Q00  =   0.409652

H          x =  1.954883  y =  0.611180  z = -1.391835 angstrom
           Maximum rank =  0   Radius =  0.325 angstrom
                   Q00  =   0.082130

H          x = -2.388117  y = -1.658820  z = -0.915835 angstrom
           Maximum rank =  0   Radius =  0.325 angstrom
                   Q00  =   0.064729

H          x =  0.125883  y =  1.068180  z = -3.009835 angstrom
           Maximum rank =  0   Radius =  0.325 angstrom
                   Q00  =   0.064257

H          x = -1.985117  y =  0.614180  z = -3.892835 angstrom
           Maximum rank =  0   Radius =  0.325 angstrom
                   Q00  =   0.097608

H          x = -3.185117  y =  0.409180  z = -2.618835 angstrom
           Maximum rank =  0   Radius =  0.325 angstrom
                   Q00  =   0.098519

H          x = -2.679567  y = -0.999093  z = -3.586183 angstrom
           Maximum rank =  0   Radius =  0.325 angstrom
                   Q00  =   0.099205

Total multipoles referred to origin at
           x =   0.000000,  y =    0.000000,  z =    0.000000 angstrom
                   Q00  =  -0.000000

Finished at 8:6:24 on 27 Apr 2020

  DMA results are available in the Python driver through the
	  variable('DMA DISTRIBUTED MULTIPOLES')
  and
	  variable('DMA TOTAL MULTIPOLES')
  commands.

    Psi4 stopped on: Monday, 27 April 2020 08:06AM
    Psi4 wall time for execution: 0:06:09.68

*** Psi4 exiting successfully. Buy a developer a beer!
