                               Psi4 1.3.2 release

  ==> Input File <==

--------------------------------------------------------------------------
import numpy as np
set {scf_type pk
basis cc-pvdz
d_convergence 10
gdma_switch   0
gdma_limit    0
gdma_origin   [ 0.0,  0.0,  0.0 ]
}
molecule test {
    units Angstrom
    0 1
    --
    0 1
    C                3.535096324996725     0.021053113364030     0.432286274129109
    C                3.246096324996725    -0.016946886635970     1.949286274129109
    H                2.617096324996725     0.202053113364030    -0.125713725870891
    H                4.247096324996725     0.812053113364030     0.201286274129109
    H                3.959096324996725    -0.931946886635970     0.115286274129109
    H                4.177096324996725    -0.139946886635970     2.498286274129109
    H                2.539986324996725    -0.828536886635970     2.178916274129109
    H                2.779716324996725     0.945703113364030     2.205796274129109
    C               -1.011903675003275     2.780053113364030    -1.317713725870891
    C                0.080096324996725    -0.870946886635970    -0.729713725870891
    C                0.033096324996725     0.453053113364030    -1.222713725870891
    C               -0.938903675003275    -1.297946886635970     0.123286274129109
    C               -0.999903675003275     1.337053113364030    -0.843713725870891
    C               -1.910903675003275    -0.421946886635970     0.561286274129109
    C               -1.967903675003275     0.888053113364030     0.075286274129109
    O               -0.897903675003275    -2.553946886635969     0.619286274129109
    H                0.877096324996725    -1.536946886635970    -1.029713725870891
    H                0.814096324996725     0.799053113364030    -1.881713725870891
    H               -0.159903675003275    -3.060946886635969     0.265286274129109
    H               -2.539903675003275    -0.839946886635970     1.306286274129109
    H               -1.990903675003275     3.227053113364030    -1.139713725870891
    H               -0.827903675003275     2.791053113364030    -2.390713725870891
    H               -2.780903675003275     1.537053113364030     0.354286274129109
    H               -0.233738675003275     3.367043113364030    -0.807903725870891

}
e, wfn = energy('scf', return_wfn=True)
gdma(wfn)
dmavals = variable('DMA DISTRIBUTED MULTIPOLES')
charges = np.array(dmavals)
print(charges)
np.save('SSI-129LEU-277TYR-2-dimer.npy', np.array(charges))--------------------------------------------------------------------------

*** tstart() called on ds3
*** at Tue Apr 28 03:05:07 2020

   => Loading Basis Set <=

    Name: CC-PVDZ
    Role: ORBITAL
    Keyword: BASIS
    atoms 1-2, 9-15  entry C          line   138 file /theoryfs2/ds/metcalf/miniconda2/envs/tf2gpu/share/psi4/basis/cc-pvdz.gbs
    atoms 3-8, 17-24 entry H          line    22 file /theoryfs2/ds/metcalf/miniconda2/envs/tf2gpu/share/psi4/basis/cc-pvdz.gbs
    atoms 16         entry O          line   198 file /theoryfs2/ds/metcalf/miniconda2/envs/tf2gpu/share/psi4/basis/cc-pvdz.gbs

         ---------------------------------------------------------
                                   SCF
               by Justin Turney, Rob Parrish, Andy Simmonett
                          and Daniel G. A. Smith
                              RHF Reference
                        1 Threads,    500 MiB Core
         ---------------------------------------------------------

  ==> Geometry <==

    Molecular point group: c1
    Full point group: C1

    Geometry (in Angstrom), charge = 0, multiplicity = 1:

       Center              X                  Y                   Z               Mass
    ------------   -----------------  -----------------  -----------------  -----------------
         C            3.535096324997     0.021053113364     0.432286274129    12.000000000000
         C            3.246096324997    -0.016946886636     1.949286274129    12.000000000000
         H            2.617096324997     0.202053113364    -0.125713725871     1.007825032230
         H            4.247096324997     0.812053113364     0.201286274129     1.007825032230
         H            3.959096324997    -0.931946886636     0.115286274129     1.007825032230
         H            4.177096324997    -0.139946886636     2.498286274129     1.007825032230
         H            2.539986324997    -0.828536886636     2.178916274129     1.007825032230
         H            2.779716324997     0.945703113364     2.205796274129     1.007825032230
         C           -1.011903675003     2.780053113364    -1.317713725871    12.000000000000
         C            0.080096324997    -0.870946886636    -0.729713725871    12.000000000000
         C            0.033096324997     0.453053113364    -1.222713725871    12.000000000000
         C           -0.938903675003    -1.297946886636     0.123286274129    12.000000000000
         C           -0.999903675003     1.337053113364    -0.843713725871    12.000000000000
         C           -1.910903675003    -0.421946886636     0.561286274129    12.000000000000
         C           -1.967903675003     0.888053113364     0.075286274129    12.000000000000
         O           -0.897903675003    -2.553946886636     0.619286274129    15.994914619570
         H            0.877096324997    -1.536946886636    -1.029713725871     1.007825032230
         H            0.814096324997     0.799053113364    -1.881713725871     1.007825032230
         H           -0.159903675003    -3.060946886636     0.265286274129     1.007825032230
         H           -2.539903675003    -0.839946886636     1.306286274129     1.007825032230
         H           -1.990903675003     3.227053113364    -1.139713725871     1.007825032230
         H           -0.827903675003     2.791053113364    -2.390713725871     1.007825032230
         H           -2.780903675003     1.537053113364     0.354286274129     1.007825032230
         H           -0.233738675003     3.367043113364    -0.807903725871     1.007825032230

  Running in c1 symmetry.

  Rotational constants: A =      0.04127  B =      0.02696  C =      0.01901 [cm^-1]
  Rotational constants: A =   1237.24046  B =    808.26652  C =    569.86068 [MHz]
  Nuclear repulsion =  496.048251385492449

  Charge       = 0
  Multiplicity = 1
  Electrons    = 76
  Nalpha       = 38
  Nbeta        = 38

  ==> Algorithm <==

  SCF Algorithm Type is PK.
  DIIS enabled.
  MOM disabled.
  Fractional occupation disabled.
  Guess Type is SAD.
  Energy threshold   = 1.00e-06
  Density threshold  = 1.00e-10
  Integral threshold = 0.00e+00

  ==> Primary Basis <==

  Basis Set: CC-PVDZ
    Blend: CC-PVDZ
    Number of shells: 102
    Number of basis function: 210
    Number of Cartesian functions: 220
    Spherical Harmonics?: true
    Max angular momentum: 2

  ==> Pre-Iterations <==

   -------------------------------------------------------
    Irrep   Nso     Nmo     Nalpha   Nbeta   Ndocc  Nsocc
   -------------------------------------------------------
     A        210     210       0       0       0       0
   -------------------------------------------------------
    Total     210     210      38      38      38       0
   -------------------------------------------------------

  ==> Integral Setup <==

  Using integral reordering PK algorithm.
  Sizing the integral batches needed.
  Building batch lookup table.
   Calculation information:
      Number of atoms:                  24
      Number of AO shells:             102
      Number of primitives:            290
      Number of atomic orbitals:       220
      Number of basis functions:       210

      Integral cutoff                 1.00e-12
      Number of threads:                 1

	Batch   1 pq = [       0,    9405] index = [             0,44231715] size =     44231715
	Batch   2 pq = [    9405,   13301] index = [      44231715,88464951] size =     44233236
	Batch   3 pq = [   13301,   16290] index = [      88464951,132690195] size =     44225244
	Batch   4 pq = [   16290,   18810] index = [     132690195,176917455] size =     44227260
	Batch   5 pq = [   18810,   21030] index = [     176917455,221140965] size =     44223510
	Batch   6 pq = [   21030,   22155] index = [     221140965,245433090] size =     24292125
  Task number: 23
  Buffer size: 11059200
  Buffer per thread: 2
  We computed 11976839 shell quartets total.
  Whereas there are 13799631 unique shell quartets.

  ==> DiskJK: Disk-Based J/K Matrices <==

    J tasked:                  Yes
    K tasked:                  Yes
    wK tasked:                  No
    Memory [MiB]:              375
    Schwarz Cutoff:          1E-12

    OpenMP threads:              1

  Minimum eigenvalue in the overlap matrix is 3.5402530992E-04.
  Using Symmetric Orthogonalization.

  SCF Guess: Superposition of Atomic Densities via on-the-fly atomic UHF.

  ==> Iterations <==

                        Total Energy        Delta E     RMS |[F,P]|

   @RHF iter SAD:  -422.59825554367700   -4.22598e+02   0.00000e+00
   @RHF iter   1:  -423.60256459307652   -1.00431e+00   2.94075e-03 DIIS
   @RHF iter   2:  -423.81544036555135   -2.12876e-01   1.21987e-03 DIIS
   @RHF iter   3:  -423.84842977247251   -3.29894e-02   2.74875e-04 DIIS
   @RHF iter   4:  -423.85121516322891   -2.78539e-03   1.05536e-04 DIIS
   @RHF iter   5:  -423.85150153285076   -2.86370e-04   2.12556e-05 DIIS
   @RHF iter   6:  -423.85151913912125   -1.76063e-05   6.32845e-06 DIIS
   @RHF iter   7:  -423.85152079182029   -1.65270e-06   2.13346e-06 DIIS
   @RHF iter   8:  -423.85152104511445   -2.53294e-07   8.34995e-07 DIIS
   @RHF iter   9:  -423.85152109580287   -5.06884e-08   3.68480e-07 DIIS
   @RHF iter  10:  -423.85152110748334   -1.16805e-08   1.63859e-07 DIIS
   @RHF iter  11:  -423.85152111125274   -3.76940e-09   7.05871e-08 DIIS
   @RHF iter  12:  -423.85152111181043   -5.57691e-10   3.05069e-08 DIIS
   @RHF iter  13:  -423.85152111188893   -7.85008e-11   8.47769e-09 DIIS
   @RHF iter  14:  -423.85152111189257   -3.63798e-12   2.35056e-09 DIIS
   @RHF iter  15:  -423.85152111189404   -1.47793e-12   8.76138e-10 DIIS
   @RHF iter  16:  -423.85152111189552   -1.47793e-12   3.62453e-10 DIIS
   @RHF iter  17:  -423.85152111189490    6.25278e-13   1.67762e-10 DIIS
   @RHF iter  18:  -423.85152111189541   -5.11591e-13   8.26726e-11 DIIS
  Energy and wave function converged.

  ==> Post-Iterations <==

    Orbital Energies [Eh]
    ---------------------

    Doubly Occupied:

       1A    -20.583212     2A    -11.296663     3A    -11.243414
       4A    -11.242102     5A    -11.238334     6A    -11.236342
       7A    -11.230148     8A    -11.226659     9A    -11.217778
      10A    -11.214882    11A     -1.405756    12A     -1.145027
      13A     -1.035700    14A     -1.015665    15A     -1.011827
      16A     -0.926293    17A     -0.848401    18A     -0.835168
      19A     -0.799092    20A     -0.733816    21A     -0.663658
      22A     -0.647909    23A     -0.608403    24A     -0.598388
      25A     -0.593521    26A     -0.588843    27A     -0.584449
      28A     -0.572092    29A     -0.567566    30A     -0.527094
      31A     -0.498995    32A     -0.494008    33A     -0.488706
      34A     -0.483685    35A     -0.481583    36A     -0.462581
      37A     -0.335434    38A     -0.300335

    Virtual:

      39A      0.124843    40A      0.152442    41A      0.167671
      42A      0.184165    43A      0.203497    44A      0.215648
      45A      0.219831    46A      0.247169    47A      0.256438
      48A      0.259817    49A      0.264497    50A      0.277516
      51A      0.281003    52A      0.286532    53A      0.291895
      54A      0.332874    55A      0.366822    56A      0.371677
      57A      0.393255    58A      0.434049    59A      0.453910
      60A      0.480377    61A      0.488023    62A      0.507172
      63A      0.591853    64A      0.601953    65A      0.611720
      66A      0.615622    67A      0.632294    68A      0.642912
      69A      0.650299    70A      0.671596    71A      0.680975
      72A      0.696644    73A      0.710861    74A      0.724442
      75A      0.728122    76A      0.743704    77A      0.769617
      78A      0.771895    79A      0.777685    80A      0.791679
      81A      0.804840    82A      0.834250    83A      0.836004
      84A      0.843946    85A      0.873119    86A      0.876813
      87A      0.888716    88A      0.890204    89A      0.894850
      90A      0.900037    91A      0.913791    92A      0.918028
      93A      0.920558    94A      0.927116    95A      0.938911
      96A      0.941576    97A      0.950607    98A      0.964618
      99A      1.005868   100A      1.007111   101A      1.033946
     102A      1.071481   103A      1.102431   104A      1.126958
     105A      1.131129   106A      1.138840   107A      1.152832
     108A      1.174773   109A      1.203109   110A      1.218048
     111A      1.236869   112A      1.261653   113A      1.272123
     114A      1.278633   115A      1.293984   116A      1.315359
     117A      1.344999   118A      1.366977   119A      1.380081
     120A      1.390771   121A      1.468727   122A      1.474058
     123A      1.489964   124A      1.505982   125A      1.529380
     126A      1.559031   127A      1.577190   128A      1.621820
     129A      1.625675   130A      1.677213   131A      1.683830
     132A      1.689496   133A      1.699747   134A      1.729011
     135A      1.744695   136A      1.776532   137A      1.798308
     138A      1.813840   139A      1.850440   140A      1.863804
     141A      1.870383   142A      1.880074   143A      1.881123
     144A      1.893327   145A      1.901887   146A      1.911220
     147A      1.919953   148A      1.934241   149A      1.942063
     150A      1.948021   151A      1.948181   152A      1.964692
     153A      1.966155   154A      1.975266   155A      1.983285
     156A      1.992527   157A      2.023434   158A      2.028861
     159A      2.043583   160A      2.062391   161A      2.082955
     162A      2.098895   163A      2.120949   164A      2.128249
     165A      2.148874   166A      2.169105   167A      2.200772
     168A      2.222949   169A      2.252846   170A      2.278665
     171A      2.280607   172A      2.301251   173A      2.316600
     174A      2.333490   175A      2.373358   176A      2.395309
     177A      2.456387   178A      2.462837   179A      2.471399
     180A      2.478581   181A      2.497914   182A      2.513153
     183A      2.539171   184A      2.564762   185A      2.586001
     186A      2.601006   187A      2.647319   188A      2.741571
     189A      2.769986   190A      2.772036   191A      2.782652
     192A      2.798143   193A      2.827397   194A      2.828269
     195A      2.834321   196A      2.863170   197A      2.877720
     198A      2.927804   199A      2.957069   200A      2.975888
     201A      3.017595   202A      3.068391   203A      3.094325
     204A      3.250750   205A      3.289015   206A      3.353004
     207A      3.582072   208A      3.669076   209A      3.965491
     210A      4.188836

    Final Occupation by Irrep:
              A
    DOCC [    38 ]

  @RHF Final Energy:  -423.85152111189541

   => Energetics <=

    Nuclear Repulsion Energy =            496.0482513854924491
    One-Electron Energy =               -1557.8324819934664447
    Two-Electron Energy =                 637.9327094960785871
    Total Energy =                       -423.8515211118954085

Computation Completed

Properties will be evaluated at   0.000000,   0.000000,   0.000000 [a0]

Properties computed using the SCF density matrix

  Nuclear Dipole Moment: [e a0]
     X:    12.6309      Y:     5.9339      Z:     1.6435

  Electronic Dipole Moment: [e a0]
     X:   -12.2336      Y:    -5.8601      Z:    -1.9769

  Dipole Moment: [e a0]
     X:     0.3973      Y:     0.0738      Z:    -0.3334     Total:     0.5239

  Dipole Moment: [D]
     X:     1.0099      Y:     0.1877      Z:    -0.8473     Total:     1.3316

*** tstop() called on ds3 at Tue Apr 28 03:07:02 2020
Module time:
	user time   =      82.28 seconds =       1.37 minutes
	system time =      36.66 seconds =       0.61 minutes
	total time  =        115 seconds =       1.92 minutes
Total time:
	user time   =      82.28 seconds =       1.37 minutes
	system time =      36.66 seconds =       0.61 minutes
	total time  =        115 seconds =       1.92 minutes
                                     G D M A

                                 by Anthony Stone

                           version 2.2.06, 22 June 2011

               Distributed Multipoles from Gaussian wavefunctions

Starting at 3:7:2 on 28 Apr 2020

Using SCF density matrix from file ./SSI/SSI-129LEU-277TYR-2-dimer.test.16639.fchk

                         Distributed Multipole Analysis

Standard DMA

Positions and radii in angstrom
Multipole moments in atomic units, ea_0^k for rank k

C          x =  3.535096  y =  0.021053  z =  0.432286 angstrom
           Maximum rank =  0   Radius =  0.650 angstrom
                   Q00  =  -0.258788

C          x =  3.246096  y = -0.016947  z =  1.949286 angstrom
           Maximum rank =  0   Radius =  0.650 angstrom
                   Q00  =  -0.224960

H          x =  2.617096  y =  0.202053  z = -0.125714 angstrom
           Maximum rank =  0   Radius =  0.325 angstrom
                   Q00  =   0.092922

H          x =  4.247096  y =  0.812053  z =  0.201286 angstrom
           Maximum rank =  0   Radius =  0.325 angstrom
                   Q00  =   0.078392

H          x =  3.959096  y = -0.931947  z =  0.115286 angstrom
           Maximum rank =  0   Radius =  0.325 angstrom
                   Q00  =   0.070413

H          x =  4.177096  y = -0.139947  z =  2.498286 angstrom
           Maximum rank =  0   Radius =  0.325 angstrom
                   Q00  =   0.080889

H          x =  2.539986  y = -0.828537  z =  2.178916 angstrom
           Maximum rank =  0   Radius =  0.325 angstrom
                   Q00  =   0.081803

H          x =  2.779716  y =  0.945703  z =  2.205796 angstrom
           Maximum rank =  0   Radius =  0.325 angstrom
                   Q00  =   0.079677

C          x = -1.011904  y =  2.780053  z = -1.317714 angstrom
           Maximum rank =  0   Radius =  0.650 angstrom
                   Q00  =  -0.193987

C          x =  0.080096  y = -0.870947  z = -0.729714 angstrom
           Maximum rank =  0   Radius =  0.650 angstrom
                   Q00  =  -0.192604

C          x =  0.033096  y =  0.453053  z = -1.222714 angstrom
           Maximum rank =  0   Radius =  0.650 angstrom
                   Q00  =  -0.076156

C          x = -0.938904  y = -1.297947  z =  0.123286 angstrom
           Maximum rank =  0   Radius =  0.650 angstrom
                   Q00  =   0.356949

C          x = -0.999904  y =  1.337053  z = -0.843714 angstrom
           Maximum rank =  0   Radius =  0.650 angstrom
                   Q00  =  -0.142926

C          x = -1.910904  y = -0.421947  z =  0.561286 angstrom
           Maximum rank =  0   Radius =  0.650 angstrom
                   Q00  =  -0.022738

C          x = -1.967904  y =  0.888053  z =  0.075286 angstrom
           Maximum rank =  0   Radius =  0.650 angstrom
                   Q00  =  -0.056551

O          x = -0.897904  y = -2.553947  z =  0.619286 angstrom
           Maximum rank =  0   Radius =  0.650 angstrom
                   Q00  =  -0.672521

H          x =  0.877096  y = -1.536947  z = -1.029714 angstrom
           Maximum rank =  0   Radius =  0.325 angstrom
                   Q00  =   0.075719

H          x =  0.814096  y =  0.799053  z = -1.881714 angstrom
           Maximum rank =  0   Radius =  0.325 angstrom
                   Q00  =   0.070817

H          x = -0.159904  y = -3.060947  z =  0.265286 angstrom
           Maximum rank =  0   Radius =  0.325 angstrom
                   Q00  =   0.407290

H          x = -2.539904  y = -0.839947  z =  1.306286 angstrom
           Maximum rank =  0   Radius =  0.325 angstrom
                   Q00  =   0.081474

H          x = -1.990904  y =  3.227053  z = -1.139714 angstrom
           Maximum rank =  0   Radius =  0.325 angstrom
                   Q00  =   0.098543

H          x = -0.827904  y =  2.791053  z = -2.390714 angstrom
           Maximum rank =  0   Radius =  0.325 angstrom
                   Q00  =   0.097016

H          x = -2.780904  y =  1.537053  z =  0.354286 angstrom
           Maximum rank =  0   Radius =  0.325 angstrom
                   Q00  =   0.069232

H          x = -0.233739  y =  3.367043  z = -0.807904 angstrom
           Maximum rank =  0   Radius =  0.325 angstrom
                   Q00  =   0.100097

Total multipoles referred to origin at
           x =   0.000000,  y =    0.000000,  z =    0.000000 angstrom
                   Q00  =  -0.000000

Finished at 3:7:2 on 28 Apr 2020

  DMA results are available in the Python driver through the
	  variable('DMA DISTRIBUTED MULTIPOLES')
  and
	  variable('DMA TOTAL MULTIPOLES')
  commands.

    Psi4 stopped on: Tuesday, 28 April 2020 03:07AM
    Psi4 wall time for execution: 0:01:55.29

*** Psi4 exiting successfully. Buy a developer a beer!
