                               Psi4 1.3.2 release

  ==> Input File <==

--------------------------------------------------------------------------
import numpy as np
set {scf_type pk
basis cc-pvdz
d_convergence 10
gdma_switch   0
gdma_limit    0
gdma_origin   [ 0.0,  0.0,  0.0 ]
}
molecule test {
    units Angstrom
    0 1
    --
    0 1
    C               -0.384518322784916     2.038052887318860    -1.927186607852300
    C                0.716481677215084     1.389052887317860    -1.139186607852301
    C                2.116481677215084    -0.188947112681140    -0.529186607852300
    C                1.433481677215084     1.845052887318860    -0.074186607852300
    N                1.168481677215084     0.111052887318860    -1.407186607852300
    N                2.298481677215084     0.850052887317860     0.281813392147700
    H                2.615481677215084    -1.149947112681140    -0.537186607852300
    H               -1.285518322784916     1.994052887318860    -1.317186607852300
    H               -0.531518322784916     1.424052887317860    -2.822186607852300
    H                2.964481677215084     0.901052887318860     1.044813392147700
    H                1.399481677215084     2.784052887318860     0.447813392147700
    H               -0.189048322784916     3.074122887318860    -2.240796607852300
    C               -2.916518322784916    -1.874947112681140     1.734813392147699
    C               -1.610518322784916    -1.421947112681140     1.114813392147699
    O               -0.529518322784916    -1.720947112681140     1.625813392147699
    N               -1.714518322784916    -0.689947112681140     0.013813392147700
    H               -0.875518322784916    -0.360947112681140    -0.447186607852300
    H               -2.627518322784916    -0.467947112681140    -0.360186607852300
    H               -3.679518322784916    -1.890947112682140     0.955813392147700
    H               -3.202518322784916    -1.153947112681140     2.500813392147700
    H               -2.852318322784916    -2.877867112681141     2.182063392147700

}
e, wfn = energy('scf', return_wfn=True)
gdma(wfn)
dmavals = variable('DMA DISTRIBUTED MULTIPOLES')
charges = np.array(dmavals)
print(charges)
np.save('SSI-102HIE-272GLN-1-dimer.npy', np.array(charges))--------------------------------------------------------------------------

*** tstart() called on ds3
*** at Tue Apr 28 13:39:54 2020

   => Loading Basis Set <=

    Name: CC-PVDZ
    Role: ORBITAL
    Keyword: BASIS
    atoms 1-4, 13-14  entry C          line   138 file /theoryfs2/ds/metcalf/miniconda2/envs/tf2gpu/share/psi4/basis/cc-pvdz.gbs
    atoms 5-6, 16     entry N          line   168 file /theoryfs2/ds/metcalf/miniconda2/envs/tf2gpu/share/psi4/basis/cc-pvdz.gbs
    atoms 7-12, 17-21 entry H          line    22 file /theoryfs2/ds/metcalf/miniconda2/envs/tf2gpu/share/psi4/basis/cc-pvdz.gbs
    atoms 15          entry O          line   198 file /theoryfs2/ds/metcalf/miniconda2/envs/tf2gpu/share/psi4/basis/cc-pvdz.gbs

         ---------------------------------------------------------
                                   SCF
               by Justin Turney, Rob Parrish, Andy Simmonett
                          and Daniel G. A. Smith
                              RHF Reference
                        1 Threads,    500 MiB Core
         ---------------------------------------------------------

  ==> Geometry <==

    Molecular point group: c1
    Full point group: C1

    Geometry (in Angstrom), charge = 0, multiplicity = 1:

       Center              X                  Y                   Z               Mass
    ------------   -----------------  -----------------  -----------------  -----------------
         C           -0.384518322785     2.038052887319    -1.927186607852    12.000000000000
         C            0.716481677215     1.389052887318    -1.139186607852    12.000000000000
         C            2.116481677215    -0.188947112681    -0.529186607852    12.000000000000
         C            1.433481677215     1.845052887319    -0.074186607852    12.000000000000
         N            1.168481677215     0.111052887319    -1.407186607852    14.003074004430
         N            2.298481677215     0.850052887318     0.281813392148    14.003074004430
         H            2.615481677215    -1.149947112681    -0.537186607852     1.007825032230
         H           -1.285518322785     1.994052887319    -1.317186607852     1.007825032230
         H           -0.531518322785     1.424052887318    -2.822186607852     1.007825032230
         H            2.964481677215     0.901052887319     1.044813392148     1.007825032230
         H            1.399481677215     2.784052887319     0.447813392148     1.007825032230
         H           -0.189048322785     3.074122887319    -2.240796607852     1.007825032230
         C           -2.916518322785    -1.874947112681     1.734813392148    12.000000000000
         C           -1.610518322785    -1.421947112681     1.114813392148    12.000000000000
         O           -0.529518322785    -1.720947112681     1.625813392148    15.994914619570
         N           -1.714518322785    -0.689947112681     0.013813392148    14.003074004430
         H           -0.875518322785    -0.360947112681    -0.447186607852     1.007825032230
         H           -2.627518322785    -0.467947112681    -0.360186607852     1.007825032230
         H           -3.679518322785    -1.890947112682     0.955813392148     1.007825032230
         H           -3.202518322785    -1.153947112681     2.500813392148     1.007825032230
         H           -2.852318322785    -2.877867112681     2.182063392148     1.007825032230

  Running in c1 symmetry.

  Rotational constants: A =      0.06958  B =      0.02316  C =      0.01953 [cm^-1]
  Rotational constants: A =   2086.05023  B =    694.46394  C =    585.39606 [MHz]
  Nuclear repulsion =  513.149478981771608

  Charge       = 0
  Multiplicity = 1
  Electrons    = 76
  Nalpha       = 38
  Nbeta        = 38

  ==> Algorithm <==

  SCF Algorithm Type is PK.
  DIIS enabled.
  MOM disabled.
  Fractional occupation disabled.
  Guess Type is SAD.
  Energy threshold   = 1.00e-06
  Density threshold  = 1.00e-10
  Integral threshold = 0.00e+00

  ==> Primary Basis <==

  Basis Set: CC-PVDZ
    Blend: CC-PVDZ
    Number of shells: 93
    Number of basis function: 195
    Number of Cartesian functions: 205
    Spherical Harmonics?: true
    Max angular momentum: 2

  ==> Pre-Iterations <==

   -------------------------------------------------------
    Irrep   Nso     Nmo     Nalpha   Nbeta   Ndocc  Nsocc
   -------------------------------------------------------
     A        195     195       0       0       0       0
   -------------------------------------------------------
    Total     195     195      38      38      38       0
   -------------------------------------------------------

  ==> Integral Setup <==

  Using integral reordering PK algorithm.
  Sizing the integral batches needed.
  Building batch lookup table.
   Calculation information:
      Number of atoms:                  21
      Number of AO shells:              93
      Number of primitives:            275
      Number of atomic orbitals:       205
      Number of basis functions:       195

      Integral cutoff                 1.00e-12
      Number of threads:                 1

	Batch   1 pq = [       0,    9405] index = [             0,44231715] size =     44231715
	Batch   2 pq = [    9405,   13301] index = [      44231715,88464951] size =     44233236
	Batch   3 pq = [   13301,   16290] index = [      88464951,132690195] size =     44225244
	Batch   4 pq = [   16290,   18810] index = [     132690195,176917455] size =     44227260
	Batch   5 pq = [   18810,   19110] index = [     176917455,182605605] size =      5688150
  Task number: 17
  Buffer size: 11059200
  Buffer per thread: 2
  We computed 8034260 shell quartets total.
  Whereas there are 9555006 unique shell quartets.

  ==> DiskJK: Disk-Based J/K Matrices <==

    J tasked:                  Yes
    K tasked:                  Yes
    wK tasked:                  No
    Memory [MiB]:              375
    Schwarz Cutoff:          1E-12

    OpenMP threads:              1

  Minimum eigenvalue in the overlap matrix is 1.1505978830E-03.
  Using Symmetric Orthogonalization.

  SCF Guess: Superposition of Atomic Densities via on-the-fly atomic UHF.

  ==> Iterations <==

                        Total Energy        Delta E     RMS |[F,P]|

   @RHF iter SAD:  -470.84366555463527   -4.70844e+02   0.00000e+00
   @RHF iter   1:  -471.59387869857380   -7.50213e-01   3.59468e-03 DIIS
   @RHF iter   2:  -471.80424055419945   -2.10362e-01   2.01797e-03 DIIS
   @RHF iter   3:  -471.86439828585816   -6.01577e-02   4.36239e-04 DIIS
   @RHF iter   4:  -471.86869614551341   -4.29786e-03   1.60532e-04 DIIS
   @RHF iter   5:  -471.86932549130171   -6.29346e-04   2.90449e-05 DIIS
   @RHF iter   6:  -471.86936428029941   -3.87890e-05   1.44391e-05 DIIS
   @RHF iter   7:  -471.86937232299221   -8.04269e-06   5.28513e-06 DIIS
   @RHF iter   8:  -471.86937401601210   -1.69302e-06   1.83571e-06 DIIS
   @RHF iter   9:  -471.86937422450694   -2.08495e-07   7.63864e-07 DIIS
   @RHF iter  10:  -471.86937424507499   -2.05681e-08   2.17977e-07 DIIS
   @RHF iter  11:  -471.86937424768468   -2.60968e-09   8.45563e-08 DIIS
   @RHF iter  12:  -471.86937424797588   -2.91209e-10   3.74757e-08 DIIS
   @RHF iter  13:  -471.86937424803227   -5.63887e-11   1.25729e-08 DIIS
   @RHF iter  14:  -471.86937424804501   -1.27329e-11   5.22058e-09 DIIS
   @RHF iter  15:  -471.86937424804665   -1.64846e-12   2.21732e-09 DIIS
   @RHF iter  16:  -471.86937424804933   -2.67164e-12   6.42821e-10 DIIS
   @RHF iter  17:  -471.86937424804819    1.13687e-12   2.57375e-10 DIIS
   @RHF iter  18:  -471.86937424804734    8.52651e-13   6.88895e-11 DIIS
  Energy and wave function converged.

  ==> Post-Iterations <==

    Orbital Energies [Eh]
    ---------------------

    Doubly Occupied:

       1A    -20.489586     2A    -15.622716     3A    -15.569884
       4A    -15.533317     5A    -11.334770     6A    -11.294045
       7A    -11.252327     8A    -11.246376     9A    -11.233177
      10A    -11.231726    11A     -1.350325    12A     -1.345725
      13A     -1.200705    14A     -1.159449    15A     -1.034562
      16A     -0.989256    17A     -0.945966    18A     -0.819747
      19A     -0.783970    20A     -0.771562    21A     -0.740052
      22A     -0.710353    23A     -0.641476    24A     -0.613116
      25A     -0.608393    26A     -0.601741    27A     -0.600759
      28A     -0.562180    29A     -0.555392    30A     -0.547765
      31A     -0.540376    32A     -0.526165    33A     -0.508836
      34A     -0.418984    35A     -0.396862    36A     -0.387570
      37A     -0.384162    38A     -0.310025

    Virtual:

      39A      0.172044    40A      0.178423    41A      0.183043
      42A      0.200046    43A      0.210483    44A      0.221211
      45A      0.232106    46A      0.234020    47A      0.243343
      48A      0.266746    49A      0.272867    50A      0.291301
      51A      0.308635    52A      0.321982    53A      0.367985
      54A      0.391393    55A      0.392622    56A      0.424063
      57A      0.465334    58A      0.485226    59A      0.511322
      60A      0.576391    61A      0.600346    62A      0.606351
      63A      0.637365    64A      0.648010    65A      0.658059
      66A      0.680959    67A      0.694616    68A      0.710141
      69A      0.718816    70A      0.732678    71A      0.739005
      72A      0.757644    73A      0.764644    74A      0.780979
      75A      0.800078    76A      0.823217    77A      0.846215
      78A      0.851287    79A      0.867358    80A      0.871272
      81A      0.891859    82A      0.898020    83A      0.904217
      84A      0.917859    85A      0.929704    86A      0.949002
      87A      0.962225    88A      0.971988    89A      0.981139
      90A      1.021011    91A      1.043032    92A      1.047283
      93A      1.073401    94A      1.088318    95A      1.093821
      96A      1.119645    97A      1.130597    98A      1.132493
      99A      1.145701   100A      1.172452   101A      1.225007
     102A      1.273053   103A      1.281181   104A      1.307200
     105A      1.320059   106A      1.329646   107A      1.375317
     108A      1.377208   109A      1.394447   110A      1.410345
     111A      1.431075   112A      1.450903   113A      1.473621
     114A      1.484677   115A      1.496958   116A      1.514447
     117A      1.529889   118A      1.571983   119A      1.613766
     120A      1.654397   121A      1.655965   122A      1.666704
     123A      1.684101   124A      1.713129   125A      1.745666
     126A      1.785498   127A      1.798929   128A      1.824775
     129A      1.842410   130A      1.868448   131A      1.882683
     132A      1.886775   133A      1.898088   134A      1.904155
     135A      1.914288   136A      1.920309   137A      1.940427
     138A      1.958122   139A      1.960773   140A      1.982997
     141A      2.002262   142A      2.015016   143A      2.025788
     144A      2.072263   145A      2.082636   146A      2.106453
     147A      2.127343   148A      2.155441   149A      2.189495
     150A      2.191617   151A      2.224768   152A      2.231738
     153A      2.259046   154A      2.291253   155A      2.302151
     156A      2.354701   157A      2.366195   158A      2.395784
     159A      2.444811   160A      2.462162   161A      2.467377
     162A      2.480565   163A      2.486240   164A      2.562296
     165A      2.563831   166A      2.598157   167A      2.612909
     168A      2.644249   169A      2.692004   170A      2.740772
     171A      2.759295   172A      2.762828   173A      2.774121
     174A      2.784955   175A      2.795954   176A      2.808371
     177A      2.814667   178A      2.861275   179A      2.884645
     180A      2.901220   181A      2.939482   182A      2.972823
     183A      3.000978   184A      3.101994   185A      3.114604
     186A      3.145261   187A      3.156739   188A      3.229554
     189A      3.320184   190A      3.469157   191A      3.521390
     192A      3.558487   193A      3.802395   194A      3.871222
     195A      3.921065

    Final Occupation by Irrep:
              A
    DOCC [    38 ]

  @RHF Final Energy:  -471.86937424804734

   => Energetics <=

    Nuclear Repulsion Energy =            513.1494789817716082
    One-Electron Energy =               -1660.3109109950523816
    Two-Electron Energy =                 675.2920577652334941
    Total Energy =                       -471.8693742480472793

Computation Completed

Properties will be evaluated at   0.000000,   0.000000,   0.000000 [a0]

Properties computed using the SCF density matrix

  Nuclear Dipole Moment: [e a0]
     X:    -7.7549      Y:     2.1244      Z:    -0.5453

  Electronic Dipole Moment: [e a0]
     X:     7.4414      Y:    -1.0738      Z:     0.7342

  Dipole Moment: [e a0]
     X:    -0.3135      Y:     1.0505      Z:     0.1890     Total:     1.1125

  Dipole Moment: [D]
     X:    -0.7969      Y:     2.6702      Z:     0.4803     Total:     2.8277

*** tstop() called on ds3 at Tue Apr 28 13:41:30 2020
Module time:
	user time   =      67.30 seconds =       1.12 minutes
	system time =      30.27 seconds =       0.50 minutes
	total time  =         96 seconds =       1.60 minutes
Total time:
	user time   =      67.30 seconds =       1.12 minutes
	system time =      30.27 seconds =       0.50 minutes
	total time  =         96 seconds =       1.60 minutes
                                     G D M A

                                 by Anthony Stone

                           version 2.2.06, 22 June 2011

               Distributed Multipoles from Gaussian wavefunctions

Starting at 13:41:30 on 28 Apr 2020

Using SCF density matrix from file ./SSI/SSI-102HIE-272GLN-1-dimer.test.20306.fchk

                         Distributed Multipole Analysis

Standard DMA

Positions and radii in angstrom
Multipole moments in atomic units, ea_0^k for rank k

C          x = -0.384518  y =  2.038053  z = -1.927187 angstrom
           Maximum rank =  0   Radius =  0.650 angstrom
                   Q00  =  -0.195030

C          x =  0.716482  y =  1.389053  z = -1.139187 angstrom
           Maximum rank =  0   Radius =  0.650 angstrom
                   Q00  =   0.208943

C          x =  2.116482  y = -0.188947  z = -0.529187 angstrom
           Maximum rank =  0   Radius =  0.650 angstrom
                   Q00  =   0.463921

C          x =  1.433482  y =  1.845053  z = -0.074187 angstrom
           Maximum rank =  0   Radius =  0.650 angstrom
                   Q00  =   0.002538

N          x =  1.168482  y =  0.111053  z = -1.407187 angstrom
           Maximum rank =  0   Radius =  0.650 angstrom
                   Q00  =  -0.799137

N          x =  2.298482  y =  0.850053  z =  0.281813 angstrom
           Maximum rank =  0   Radius =  0.650 angstrom
                   Q00  =  -0.448569

H          x =  2.615482  y = -1.149947  z = -0.537187 angstrom
           Maximum rank =  0   Radius =  0.325 angstrom
                   Q00  =   0.134097

H          x = -1.285518  y =  1.994053  z = -1.317187 angstrom
           Maximum rank =  0   Radius =  0.325 angstrom
                   Q00  =   0.086205

H          x = -0.531518  y =  1.424053  z = -2.822187 angstrom
           Maximum rank =  0   Radius =  0.325 angstrom
                   Q00  =   0.117307

H          x =  2.964482  y =  0.901053  z =  1.044813 angstrom
           Maximum rank =  0   Radius =  0.325 angstrom
                   Q00  =   0.227400

H          x =  1.399482  y =  2.784053  z =  0.447813 angstrom
           Maximum rank =  0   Radius =  0.325 angstrom
                   Q00  =   0.098833

H          x = -0.189048  y =  3.074123  z = -2.240797 angstrom
           Maximum rank =  0   Radius =  0.325 angstrom
                   Q00  =   0.107951

C          x = -2.916518  y = -1.874947  z =  1.734813 angstrom
           Maximum rank =  0   Radius =  0.650 angstrom
                   Q00  =  -0.258840

C          x = -1.610518  y = -1.421947  z =  1.114813 angstrom
           Maximum rank =  0   Radius =  0.650 angstrom
                   Q00  =   0.811475

O          x = -0.529518  y = -1.720947  z =  1.625813 angstrom
           Maximum rank =  0   Radius =  0.650 angstrom
                   Q00  =  -0.798437

N          x = -1.714518  y = -0.689947  z =  0.013813 angstrom
           Maximum rank =  0   Radius =  0.650 angstrom
                   Q00  =  -0.541755

H          x = -0.875518  y = -0.360947  z = -0.447187 angstrom
           Maximum rank =  0   Radius =  0.325 angstrom
                   Q00  =   0.260116

H          x = -2.627518  y = -0.467947  z = -0.360187 angstrom
           Maximum rank =  0   Radius =  0.325 angstrom
                   Q00  =   0.196781

H          x = -3.679518  y = -1.890947  z =  0.955813 angstrom
           Maximum rank =  0   Radius =  0.325 angstrom
                   Q00  =   0.071829

H          x = -3.202518  y = -1.153947  z =  2.500813 angstrom
           Maximum rank =  0   Radius =  0.325 angstrom
                   Q00  =   0.126381

H          x = -2.852318  y = -2.877867  z =  2.182063 angstrom
           Maximum rank =  0   Radius =  0.325 angstrom
                   Q00  =   0.127990

Total multipoles referred to origin at
           x =   0.000000,  y =    0.000000,  z =    0.000000 angstrom
                   Q00  =  -0.000000

Finished at 13:41:30 on 28 Apr 2020

  DMA results are available in the Python driver through the
	  variable('DMA DISTRIBUTED MULTIPOLES')
  and
	  variable('DMA TOTAL MULTIPOLES')
  commands.

    Psi4 stopped on: Tuesday, 28 April 2020 01:41PM
    Psi4 wall time for execution: 0:01:36.23

*** Psi4 exiting successfully. Buy a developer a beer!
