                               Psi4 1.3.2 release

  ==> Input File <==

--------------------------------------------------------------------------
import numpy as np
set {scf_type pk
basis cc-pvdz
d_convergence 10
gdma_switch   0
gdma_limit    0
gdma_origin   [ 0.0,  0.0,  0.0 ]
}
molecule test {
    units Angstrom
    0 1
    --
    0 1
    C                1.473559565367998     1.911749441509382     0.125607393514527
    C                0.809559565367998     0.745749441509382    -0.621392606485473
    O                0.831559565367998    -0.348250558490618    -0.021392606485473
    O                0.280559565367998     0.925749441509382    -1.767392606485473
    H                2.555559565367998     1.830749441509381     0.003607393514527
    H                1.262559565367998     1.879749441509381     1.194607393514526
    H                1.147569565367998     2.854299441509382    -0.338442606485473
    C               -2.145440434632002    -1.102250558490618     1.414607393514526
    N               -1.053440434632002    -1.831250558490618     0.723607393514527
    H               -0.216440434632002    -1.273250558490619     0.698607393514526
    H               -0.813440434632002    -2.682250558490618     1.214607393514526
    H               -1.297440434632002    -2.073250558490618    -0.226392606485473
    H               -1.742440434632002    -0.627250558490618     2.314607393514526
    H               -2.914440434632002    -1.813250558490619     1.737607393514526
    H               -2.634070434632002    -0.334910558490619     0.796197393514526

}
e, wfn = energy('scf', return_wfn=True)
gdma(wfn)
dmavals = variable('DMA DISTRIBUTED MULTIPOLES')
charges = np.array(dmavals)
print(charges)
np.save('SSI-103GLU-106LYS-1-dimer.npy', np.array(charges))--------------------------------------------------------------------------

*** tstart() called on ds3
*** at Mon Apr 27 12:39:42 2020

   => Loading Basis Set <=

    Name: CC-PVDZ
    Role: ORBITAL
    Keyword: BASIS
    atoms 1-2, 8     entry C          line   138 file /theoryfs2/ds/metcalf/miniconda2/envs/tf2gpu/share/psi4/basis/cc-pvdz.gbs
    atoms 3-4        entry O          line   198 file /theoryfs2/ds/metcalf/miniconda2/envs/tf2gpu/share/psi4/basis/cc-pvdz.gbs
    atoms 5-7, 10-15 entry H          line    22 file /theoryfs2/ds/metcalf/miniconda2/envs/tf2gpu/share/psi4/basis/cc-pvdz.gbs
    atoms 9          entry N          line   168 file /theoryfs2/ds/metcalf/miniconda2/envs/tf2gpu/share/psi4/basis/cc-pvdz.gbs

         ---------------------------------------------------------
                                   SCF
               by Justin Turney, Rob Parrish, Andy Simmonett
                          and Daniel G. A. Smith
                              RHF Reference
                        1 Threads,    500 MiB Core
         ---------------------------------------------------------

  ==> Geometry <==

    Molecular point group: c1
    Full point group: C1

    Geometry (in Angstrom), charge = 0, multiplicity = 1:

       Center              X                  Y                   Z               Mass
    ------------   -----------------  -----------------  -----------------  -----------------
         C            1.473559565368     1.911749441509     0.125607393515    12.000000000000
         C            0.809559565368     0.745749441509    -0.621392606485    12.000000000000
         O            0.831559565368    -0.348250558491    -0.021392606485    15.994914619570
         O            0.280559565368     0.925749441509    -1.767392606485    15.994914619570
         H            2.555559565368     1.830749441509     0.003607393515     1.007825032230
         H            1.262559565368     1.879749441509     1.194607393515     1.007825032230
         H            1.147569565368     2.854299441509    -0.338442606485     1.007825032230
         C           -2.145440434632    -1.102250558491     1.414607393515    12.000000000000
         N           -1.053440434632    -1.831250558491     0.723607393515    14.003074004430
         H           -0.216440434632    -1.273250558491     0.698607393515     1.007825032230
         H           -0.813440434632    -2.682250558491     1.214607393515     1.007825032230
         H           -1.297440434632    -2.073250558491    -0.226392606485     1.007825032230
         H           -1.742440434632    -0.627250558491     2.314607393515     1.007825032230
         H           -2.914440434632    -1.813250558491     1.737607393515     1.007825032230
         H           -2.634070434632    -0.334910558491     0.796197393515     1.007825032230

  Running in c1 symmetry.

  Rotational constants: A =      0.19411  B =      0.04761  C =      0.04537 [cm^-1]
  Rotational constants: A =   5819.17866  B =   1427.19724  C =   1360.09169 [MHz]
  Nuclear repulsion =  242.434029296979389

  Charge       = 0
  Multiplicity = 1
  Electrons    = 50
  Nalpha       = 25
  Nbeta        = 25

  ==> Algorithm <==

  SCF Algorithm Type is PK.
  DIIS enabled.
  MOM disabled.
  Fractional occupation disabled.
  Guess Type is SAD.
  Energy threshold   = 1.00e-06
  Density threshold  = 1.00e-10
  Integral threshold = 0.00e+00

  ==> Primary Basis <==

  Basis Set: CC-PVDZ
    Blend: CC-PVDZ
    Number of shells: 63
    Number of basis function: 129
    Number of Cartesian functions: 135
    Spherical Harmonics?: true
    Max angular momentum: 2

  ==> Pre-Iterations <==

   -------------------------------------------------------
    Irrep   Nso     Nmo     Nalpha   Nbeta   Ndocc  Nsocc
   -------------------------------------------------------
     A        129     129       0       0       0       0
   -------------------------------------------------------
    Total     129     129      25      25      25       0
   -------------------------------------------------------

  ==> Integral Setup <==

  Using integral reordering PK algorithm.
  Sizing the integral batches needed.
  Building batch lookup table.
   Calculation information:
      Number of atoms:                  15
      Number of AO shells:              63
      Number of primitives:            177
      Number of atomic orbitals:       135
      Number of basis functions:       129

      Integral cutoff                 1.00e-12
      Number of threads:                 1

	Batch   1 pq = [       0,    8385] index = [             0,35158305] size =     35158305
  Task number: 4
  Buffer size: 11059200
  Buffer per thread: 2
  We computed 1808826 shell quartets total.
  Whereas there are 2033136 unique shell quartets.

  ==> DiskJK: Disk-Based J/K Matrices <==

    J tasked:                  Yes
    K tasked:                  Yes
    wK tasked:                  No
    Memory [MiB]:              375
    Schwarz Cutoff:          1E-12

    OpenMP threads:              1

  Minimum eigenvalue in the overlap matrix is 5.6142364274E-03.
  Using Symmetric Orthogonalization.

  SCF Guess: Superposition of Atomic Densities via on-the-fly atomic UHF.

  ==> Iterations <==

                        Total Energy        Delta E     RMS |[F,P]|

   @RHF iter SAD:  -321.75665624603477   -3.21757e+02   0.00000e+00
   @RHF iter   1:  -322.78581091673118   -1.02915e+00   5.18443e-03 DIIS
   @RHF iter   2:  -322.95066002164793   -1.64849e-01   2.92893e-03 DIIS
   @RHF iter   3:  -323.00119523340823   -5.05352e-02   5.10391e-04 DIIS
   @RHF iter   4:  -323.00388949630110   -2.69426e-03   1.93854e-04 DIIS
   @RHF iter   5:  -323.00426448375936   -3.74987e-04   4.50245e-05 DIIS
   @RHF iter   6:  -323.00428625930977   -2.17756e-05   1.98147e-05 DIIS
   @RHF iter   7:  -323.00429056002929   -4.30072e-06   4.35897e-06 DIIS
   @RHF iter   8:  -323.00429109674258   -5.36713e-07   1.93631e-06 DIIS
   @RHF iter   9:  -323.00429120158725   -1.04845e-07   6.16835e-07 DIIS
   @RHF iter  10:  -323.00429121084403   -9.25678e-09   1.97504e-07 DIIS
   @RHF iter  11:  -323.00429121158209   -7.38055e-10   4.47721e-08 DIIS
   @RHF iter  12:  -323.00429121162216   -4.00746e-11   1.18877e-08 DIIS
   @RHF iter  13:  -323.00429121162244   -2.84217e-13   3.77400e-09 DIIS
   @RHF iter  14:  -323.00429121162443   -1.98952e-12   1.23428e-09 DIIS
   @RHF iter  15:  -323.00429121162290    1.53477e-12   4.60278e-10 DIIS
   @RHF iter  16:  -323.00429121162404   -1.13687e-12   2.10818e-10 DIIS
   @RHF iter  17:  -323.00429121162335    6.82121e-13   7.73211e-11 DIIS
  Energy and wave function converged.

  ==> Post-Iterations <==

    Orbital Energies [Eh]
    ---------------------

    Doubly Occupied:

       1A    -20.439831     2A    -20.415914     3A    -15.713083
       4A    -11.342682     5A    -11.279940     6A    -11.177523
       7A     -1.350641     8A     -1.313299     9A     -1.196065
      10A     -1.012172    11A     -0.925833    12A     -0.809731
      13A     -0.806273    14A     -0.706712    15A     -0.655877
      16A     -0.617141    17A     -0.611071    18A     -0.559715
      19A     -0.550292    20A     -0.541483    21A     -0.489037
      22A     -0.457326    23A     -0.352381    24A     -0.329637
      25A     -0.328610

    Virtual:

      26A      0.107376    27A      0.159183    28A      0.173362
      29A      0.197362    30A      0.225193    31A      0.242609
      32A      0.267939    33A      0.287238    34A      0.305986
      35A      0.336964    36A      0.366103    37A      0.440270
      38A      0.502231    39A      0.535219    40A      0.559857
      41A      0.572362    42A      0.596308    43A      0.662950
      44A      0.688016    45A      0.720298    46A      0.749573
      47A      0.784490    48A      0.798374    49A      0.803931
      50A      0.816858    51A      0.828833    52A      0.860613
      53A      0.886574    54A      0.906973    55A      0.917237
      56A      0.936066    57A      0.946188    58A      0.964284
      59A      0.974839    60A      1.005483    61A      1.059452
      62A      1.077190    63A      1.095768    64A      1.186750
      65A      1.215783    66A      1.220587    67A      1.294377
      68A      1.408619    69A      1.417118    70A      1.434905
      71A      1.451783    72A      1.458710    73A      1.490186
      74A      1.543487    75A      1.576514    76A      1.606058
      77A      1.645281    78A      1.691725    79A      1.716789
      80A      1.765372    81A      1.775645    82A      1.823197
      83A      1.849020    84A      1.855723    85A      1.873022
      86A      1.885926    87A      1.935332    88A      1.946300
      89A      1.966832    90A      1.992495    91A      2.055772
      92A      2.101181    93A      2.111765    94A      2.123696
      95A      2.129770    96A      2.152556    97A      2.184446
      98A      2.264080    99A      2.288958   100A      2.305339
     101A      2.333061   102A      2.387283   103A      2.417442
     104A      2.437830   105A      2.529036   106A      2.560605
     107A      2.589230   108A      2.606142   109A      2.648721
     110A      2.658545   111A      2.681257   112A      2.796235
     113A      2.838178   114A      2.855579   115A      2.885919
     116A      2.903994   117A      2.922769   118A      3.083242
     119A      3.114827   120A      3.183515   121A      3.185325
     122A      3.281137   123A      3.334951   124A      3.511683
     125A      3.607439   126A      3.788546   127A      3.878852
     128A      3.942619   129A      4.041245

    Final Occupation by Irrep:
              A
    DOCC [    25 ]

  @RHF Final Energy:  -323.00429121162335

   => Energetics <=

    Nuclear Repulsion Energy =            242.4340292969793893
    One-Electron Energy =                -922.9121069950829224
    Two-Electron Energy =                 357.4737864864802077
    Total Energy =                       -323.0042912116233538

Computation Completed

Properties will be evaluated at   0.000000,   0.000000,   0.000000 [a0]

Properties computed using the SCF density matrix

  Nuclear Dipole Moment: [e a0]
     X:    -4.3533      Y:    -2.0912      Z:     6.9219

  Electronic Dipole Moment: [e a0]
     X:     1.9122      Y:    -0.6560      Z:    -4.1191

  Dipole Moment: [e a0]
     X:    -2.4410      Y:    -2.7472      Z:     2.8028     Total:     4.6219

  Dipole Moment: [D]
     X:    -6.2044      Y:    -6.9828      Z:     7.1241     Total:    11.7476

*** tstop() called on ds3 at Mon Apr 27 12:40:11 2020
Module time:
	user time   =      13.66 seconds =       0.23 minutes
	system time =       5.58 seconds =       0.09 minutes
	total time  =         29 seconds =       0.48 minutes
Total time:
	user time   =      13.66 seconds =       0.23 minutes
	system time =       5.58 seconds =       0.09 minutes
	total time  =         29 seconds =       0.48 minutes
                                     G D M A

                                 by Anthony Stone

                           version 2.2.06, 22 June 2011

               Distributed Multipoles from Gaussian wavefunctions

Starting at 12:40:11 on 27 Apr 2020

Using SCF density matrix from file ./SSI/SSI-103GLU-106LYS-1-dimer.test.3655.fchk

                         Distributed Multipole Analysis

Standard DMA

Positions and radii in angstrom
Multipole moments in atomic units, ea_0^k for rank k

C          x =  1.473560  y =  1.911749  z =  0.125607 angstrom
           Maximum rank =  0   Radius =  0.650 angstrom
                   Q00  =  -0.282515

C          x =  0.809560  y =  0.745749  z = -0.621393 angstrom
           Maximum rank =  0   Radius =  0.650 angstrom
                   Q00  =   0.914980

O          x =  0.831560  y = -0.348251  z = -0.021393 angstrom
           Maximum rank =  0   Radius =  0.650 angstrom
                   Q00  =  -0.973618

O          x =  0.280560  y =  0.925749  z = -1.767393 angstrom
           Maximum rank =  0   Radius =  0.650 angstrom
                   Q00  =  -0.878177

H          x =  2.555560  y =  1.830749  z =  0.003607 angstrom
           Maximum rank =  0   Radius =  0.325 angstrom
                   Q00  =   0.109028

H          x =  1.262560  y =  1.879749  z =  1.194607 angstrom
           Maximum rank =  0   Radius =  0.325 angstrom
                   Q00  =   0.070836

H          x =  1.147570  y =  2.854299  z = -0.338443 angstrom
           Maximum rank =  0   Radius =  0.325 angstrom
                   Q00  =   0.085071

C          x = -2.145440  y = -1.102251  z =  1.414607 angstrom
           Maximum rank =  0   Radius =  0.650 angstrom
                   Q00  =  -0.136151

N          x = -1.053440  y = -1.831251  z =  0.723607 angstrom
           Maximum rank =  0   Radius =  0.650 angstrom
                   Q00  =  -0.141053

H          x = -0.216440  y = -1.273251  z =  0.698607 angstrom
           Maximum rank =  0   Radius =  0.325 angstrom
                   Q00  =   0.365241

H          x = -0.813440  y = -2.682251  z =  1.214607 angstrom
           Maximum rank =  0   Radius =  0.325 angstrom
                   Q00  =   0.205328

H          x = -1.297440  y = -2.073251  z = -0.226393 angstrom
           Maximum rank =  0   Radius =  0.325 angstrom
                   Q00  =   0.244559

H          x = -1.742440  y = -0.627251  z =  2.314607 angstrom
           Maximum rank =  0   Radius =  0.325 angstrom
                   Q00  =   0.141602

H          x = -2.914440  y = -1.813251  z =  1.737607 angstrom
           Maximum rank =  0   Radius =  0.325 angstrom
                   Q00  =   0.113992

H          x = -2.634070  y = -0.334911  z =  0.796197 angstrom
           Maximum rank =  0   Radius =  0.325 angstrom
                   Q00  =   0.160875

Total multipoles referred to origin at
           x =   0.000000,  y =    0.000000,  z =    0.000000 angstrom
                   Q00  =  -0.000000

Finished at 12:40:11 on 27 Apr 2020

  DMA results are available in the Python driver through the
	  variable('DMA DISTRIBUTED MULTIPOLES')
  and
	  variable('DMA TOTAL MULTIPOLES')
  commands.

    Psi4 stopped on: Monday, 27 April 2020 12:40PM
    Psi4 wall time for execution: 0:00:29.06

*** Psi4 exiting successfully. Buy a developer a beer!
