                               Psi4 1.3.2 release

  ==> Input File <==

--------------------------------------------------------------------------
import numpy as np
set {scf_type pk
basis cc-pvdz
d_convergence 10
gdma_switch   0
gdma_limit    0
gdma_origin   [ 0.0,  0.0,  0.0 ]
}
molecule test {
    units Angstrom
    0 1
    --
    0 1
    C               -2.107577627953485    -1.168490466364434    -1.086162850505766
    C               -2.311577627953485    -0.373490466364434     0.206837149494234
    O               -1.277577627953485    -0.148490466364434     0.879837149494234
    O               -3.456577627953485     0.000509533635566     0.554837149494234
    H               -1.231577627953485    -1.806490466364435    -0.956162850505766
    H               -1.899577627953485    -0.471490466364434    -1.901162850505766
    H               -2.972714627953485    -1.789840466364435    -1.360882850505766
    C                1.979422372046515    -1.545490466364435    -0.795162850505766
    C                1.792422372046515     0.793509533635566     0.045837149494234
    N                0.989422372046515     1.669509533635566     0.622837149494234
    N                1.295422372046515    -0.415490466364434    -0.189162850505766
    N                3.026422372046516     1.145509533635566    -0.250162850505766
    H                0.056422372046515     1.344509533635565     0.870837149494234
    H                1.289422372046515     2.607509533635566     0.831837149494234
    H                0.335422372046515    -0.554490466364434     0.127837149494234
    H                3.645422372046515     0.482509533635566    -0.684162850505766
    H                3.350422372046515     2.080509533635565    -0.056162850505766
    H                1.436422372046515    -2.457490466364434    -0.540162850505766
    H                2.980422372046515    -1.631490466364435    -0.368162850505766
    H                2.055202372046515    -1.481260466364434    -1.890672850505766

}
e, wfn = energy('scf', return_wfn=True)
gdma(wfn)
dmavals = variable('DMA DISTRIBUTED MULTIPOLES')
charges = np.array(dmavals)
print(charges)
np.save('SSI-126GLU-130ARG-1-dimer.npy', np.array(charges))--------------------------------------------------------------------------

*** tstart() called on ds3
*** at Mon Apr 27 14:32:47 2020

   => Loading Basis Set <=

    Name: CC-PVDZ
    Role: ORBITAL
    Keyword: BASIS
    atoms 1-2, 8-9   entry C          line   138 file /theoryfs2/ds/metcalf/miniconda2/envs/tf2gpu/share/psi4/basis/cc-pvdz.gbs
    atoms 3-4        entry O          line   198 file /theoryfs2/ds/metcalf/miniconda2/envs/tf2gpu/share/psi4/basis/cc-pvdz.gbs
    atoms 5-7, 13-20 entry H          line    22 file /theoryfs2/ds/metcalf/miniconda2/envs/tf2gpu/share/psi4/basis/cc-pvdz.gbs
    atoms 10-12      entry N          line   168 file /theoryfs2/ds/metcalf/miniconda2/envs/tf2gpu/share/psi4/basis/cc-pvdz.gbs

         ---------------------------------------------------------
                                   SCF
               by Justin Turney, Rob Parrish, Andy Simmonett
                          and Daniel G. A. Smith
                              RHF Reference
                        1 Threads,    500 MiB Core
         ---------------------------------------------------------

  ==> Geometry <==

    Molecular point group: c1
    Full point group: C1

    Geometry (in Angstrom), charge = 0, multiplicity = 1:

       Center              X                  Y                   Z               Mass
    ------------   -----------------  -----------------  -----------------  -----------------
         C           -2.107577627953    -1.168490466364    -1.086162850506    12.000000000000
         C           -2.311577627953    -0.373490466364     0.206837149494    12.000000000000
         O           -1.277577627953    -0.148490466364     0.879837149494    15.994914619570
         O           -3.456577627953     0.000509533636     0.554837149494    15.994914619570
         H           -1.231577627953    -1.806490466364    -0.956162850506     1.007825032230
         H           -1.899577627953    -0.471490466364    -1.901162850506     1.007825032230
         H           -2.972714627953    -1.789840466364    -1.360882850506     1.007825032230
         C            1.979422372047    -1.545490466364    -0.795162850506    12.000000000000
         C            1.792422372047     0.793509533636     0.045837149494    12.000000000000
         N            0.989422372047     1.669509533636     0.622837149494    14.003074004430
         N            1.295422372047    -0.415490466364    -0.189162850506    14.003074004430
         N            3.026422372047     1.145509533636    -0.250162850506    14.003074004430
         H            0.056422372047     1.344509533636     0.870837149494     1.007825032230
         H            1.289422372047     2.607509533636     0.831837149494     1.007825032230
         H            0.335422372047    -0.554490466364     0.127837149494     1.007825032230
         H            3.645422372047     0.482509533636    -0.684162850506     1.007825032230
         H            3.350422372047     2.080509533636    -0.056162850506     1.007825032230
         H            1.436422372047    -2.457490466364    -0.540162850506     1.007825032230
         H            2.980422372047    -1.631490466364    -0.368162850506     1.007825032230
         H            2.055202372047    -1.481260466364    -1.890672850506     1.007825032230

  Running in c1 symmetry.

  Rotational constants: A =      0.09162  B =      0.02463  C =      0.02047 [cm^-1]
  Rotational constants: A =   2746.56410  B =    738.25420  C =    613.59403 [MHz]
  Nuclear repulsion =  464.416235795867692

  Charge       = 0
  Multiplicity = 1
  Electrons    = 72
  Nalpha       = 36
  Nbeta        = 36

  ==> Algorithm <==

  SCF Algorithm Type is PK.
  DIIS enabled.
  MOM disabled.
  Fractional occupation disabled.
  Guess Type is SAD.
  Energy threshold   = 1.00e-06
  Density threshold  = 1.00e-10
  Integral threshold = 0.00e+00

  ==> Primary Basis <==

  Basis Set: CC-PVDZ
    Blend: CC-PVDZ
    Number of shells: 87
    Number of basis function: 181
    Number of Cartesian functions: 190
    Spherical Harmonics?: true
    Max angular momentum: 2

  ==> Pre-Iterations <==

   -------------------------------------------------------
    Irrep   Nso     Nmo     Nalpha   Nbeta   Ndocc  Nsocc
   -------------------------------------------------------
     A        181     181       0       0       0       0
   -------------------------------------------------------
    Total     181     181      36      36      36       0
   -------------------------------------------------------

  ==> Integral Setup <==

  Using integral reordering PK algorithm.
  Sizing the integral batches needed.
  Building batch lookup table.
   Calculation information:
      Number of atoms:                  20
      Number of AO shells:              87
      Number of primitives:            253
      Number of atomic orbitals:       190
      Number of basis functions:       181

      Integral cutoff                 1.00e-12
      Number of threads:                 1

	Batch   1 pq = [       0,    9405] index = [             0,44231715] size =     44231715
	Batch   2 pq = [    9405,   13301] index = [      44231715,88464951] size =     44233236
	Batch   3 pq = [   13301,   16471] index = [      88464951,135655156] size =     47190205
  Task number: 13
  Buffer size: 11059200
  Buffer per thread: 2
  We computed 6448678 shell quartets total.
  Whereas there are 7328706 unique shell quartets.

  ==> DiskJK: Disk-Based J/K Matrices <==

    J tasked:                  Yes
    K tasked:                  Yes
    wK tasked:                  No
    Memory [MiB]:              375
    Schwarz Cutoff:          1E-12

    OpenMP threads:              1

  Minimum eigenvalue in the overlap matrix is 3.7054013860E-03.
  Using Symmetric Orthogonalization.

  SCF Guess: Superposition of Atomic Densities via on-the-fly atomic UHF.

  ==> Iterations <==

                        Total Energy        Delta E     RMS |[F,P]|

   @RHF iter SAD:  -469.72408331719618   -4.69724e+02   0.00000e+00
   @RHF iter   1:  -470.69705618848553   -9.72973e-01   4.23060e-03 DIIS
   @RHF iter   2:  -470.92121838073314   -2.24162e-01   2.26365e-03 DIIS
   @RHF iter   3:  -470.98176904761891   -6.05507e-02   4.14360e-04 DIIS
   @RHF iter   4:  -470.98521465725332   -3.44561e-03   1.57344e-04 DIIS
   @RHF iter   5:  -470.98568838167876   -4.73724e-04   3.26777e-05 DIIS
   @RHF iter   6:  -470.98571617542035   -2.77937e-05   1.68646e-05 DIIS
   @RHF iter   7:  -470.98572228538870   -6.10997e-06   4.35971e-06 DIIS
   @RHF iter   8:  -470.98572318790195   -9.02513e-07   2.02056e-06 DIIS
   @RHF iter   9:  -470.98572334879213   -1.60890e-07   7.37545e-07 DIIS
   @RHF iter  10:  -470.98572337731071   -2.85186e-08   2.33677e-07 DIIS
   @RHF iter  11:  -470.98572337977163   -2.46092e-09   6.55072e-08 DIIS
   @RHF iter  12:  -470.98572337990635   -1.34719e-10   2.17091e-08 DIIS
   @RHF iter  13:  -470.98572337992073   -1.43814e-11   5.56060e-09 DIIS
   @RHF iter  14:  -470.98572337992073    0.00000e+00   1.80894e-09 DIIS
   @RHF iter  15:  -470.98572337991999    7.38964e-13   8.21870e-10 DIIS
   @RHF iter  16:  -470.98572337992044   -4.54747e-13   3.70430e-10 DIIS
   @RHF iter  17:  -470.98572337992084   -3.97904e-13   1.60803e-10 DIIS
   @RHF iter  18:  -470.98572337992482   -3.97904e-12   5.40487e-11 DIIS
  Energy and wave function converged.

  ==> Post-Iterations <==

    Orbital Energies [Eh]
    ---------------------

    Doubly Occupied:

       1A    -20.433469     2A    -20.403849     3A    -15.665533
       4A    -15.627471     5A    -15.622854     6A    -11.444338
       7A    -11.314988     8A    -11.268178     9A    -11.183588
      10A     -1.401863    11A     -1.306784    12A     -1.263947
      13A     -1.241509    14A     -1.190405    15A     -1.006814
      16A     -0.930339    17A     -0.899244    18A     -0.833321
      19A     -0.797708    20A     -0.727599    21A     -0.709675
      22A     -0.685231    23A     -0.658108    24A     -0.643334
      25A     -0.614811    26A     -0.594873    27A     -0.550516
      28A     -0.549150    29A     -0.543990    30A     -0.485887
      31A     -0.483307    32A     -0.454316    33A     -0.431903
      34A     -0.345813    35A     -0.317913    36A     -0.317017

    Virtual:

      37A      0.110202    38A      0.143436    39A      0.162611
      40A      0.188252    41A      0.195399    42A      0.222683
      43A      0.235009    44A      0.244474    45A      0.270446
      46A      0.289988    47A      0.314432    48A      0.326751
      49A      0.344273    50A      0.379418    51A      0.423105
      52A      0.451338    53A      0.470891    54A      0.483986
      55A      0.562972    56A      0.591350    57A      0.596689
      58A      0.619060    59A      0.646343    60A      0.661119
      61A      0.663433    62A      0.670568    63A      0.690028
      64A      0.695798    65A      0.719532    66A      0.760115
      67A      0.797107    68A      0.804861    69A      0.820463
      70A      0.824505    71A      0.829741    72A      0.864794
      73A      0.877206    74A      0.894929    75A      0.902914
      76A      0.907736    77A      0.916599    78A      0.934596
      79A      0.941075    80A      0.969294    81A      0.975337
      82A      0.999024    83A      1.021361    84A      1.055128
      85A      1.070344    86A      1.097789    87A      1.136569
      88A      1.156586    89A      1.193909    90A      1.209520
      91A      1.218111    92A      1.247087    93A      1.266937
      94A      1.273798    95A      1.314892    96A      1.329439
      97A      1.348513    98A      1.391480    99A      1.420906
     100A      1.443732   101A      1.453367   102A      1.465555
     103A      1.533237   104A      1.547526   105A      1.572834
     106A      1.586941   107A      1.595949   108A      1.614746
     109A      1.629717   110A      1.650188   111A      1.670859
     112A      1.697153   113A      1.707315   114A      1.733837
     115A      1.790628   116A      1.811879   117A      1.845818
     118A      1.867550   119A      1.880573   120A      1.902108
     121A      1.911123   122A      1.920935   123A      1.941858
     124A      1.944686   125A      1.957904   126A      1.968100
     127A      1.984037   128A      1.996167   129A      2.034579
     130A      2.048176   131A      2.072645   132A      2.101689
     133A      2.164328   134A      2.166476   135A      2.189792
     136A      2.225612   137A      2.257998   138A      2.279545
     139A      2.293433   140A      2.301252   141A      2.345265
     142A      2.383840   143A      2.397421   144A      2.401025
     145A      2.445669   146A      2.459941   147A      2.473250
     148A      2.538637   149A      2.555329   150A      2.582960
     151A      2.592409   152A      2.600328   153A      2.674044
     154A      2.686629   155A      2.720771   156A      2.725758
     157A      2.784770   158A      2.794937   159A      2.838574
     160A      2.864925   161A      2.867723   162A      2.926513
     163A      2.928634   164A      2.965331   165A      2.991173
     166A      3.015643   167A      3.083608   168A      3.139130
     169A      3.149080   170A      3.196248   171A      3.236516
     172A      3.274886   173A      3.334091   174A      3.467320
     175A      3.629448   176A      3.675094   177A      3.744979
     178A      3.795575   179A      3.914007   180A      3.964341
     181A      4.040782

    Final Occupation by Irrep:
              A
    DOCC [    36 ]

  @RHF Final Energy:  -470.98572337992482

   => Energetics <=

    Nuclear Repulsion Energy =            464.4162357958676921
    One-Electron Energy =               -1564.9046329252419127
    Two-Electron Energy =                 629.5026737494495137
    Total Energy =                       -470.9857233799248206

Computation Completed

Properties will be evaluated at   0.000000,   0.000000,   0.000000 [a0]

Properties computed using the SCF density matrix

  Nuclear Dipole Moment: [e a0]
     X:     8.4415      Y:    -3.4552      Z:    -5.5500

  Electronic Dipole Moment: [e a0]
     X:    -2.2089      Y:     4.4057      Z:     4.1144

  Dipole Moment: [e a0]
     X:     6.2326      Y:     0.9505      Z:    -1.4357     Total:     6.4661

  Dipole Moment: [D]
     X:    15.8418      Y:     2.4159      Z:    -3.6491     Total:    16.4352

*** tstop() called on ds3 at Mon Apr 27 14:34:40 2020
Module time:
	user time   =      48.84 seconds =       0.81 minutes
	system time =      19.78 seconds =       0.33 minutes
	total time  =        113 seconds =       1.88 minutes
Total time:
	user time   =      48.84 seconds =       0.81 minutes
	system time =      19.78 seconds =       0.33 minutes
	total time  =        113 seconds =       1.88 minutes
                                     G D M A

                                 by Anthony Stone

                           version 2.2.06, 22 June 2011

               Distributed Multipoles from Gaussian wavefunctions

Starting at 14:34:40 on 27 Apr 2020

Using SCF density matrix from file ./SSI/SSI-126GLU-130ARG-1-dimer.test.9346.fchk

                         Distributed Multipole Analysis

Standard DMA

Positions and radii in angstrom
Multipole moments in atomic units, ea_0^k for rank k

C          x = -2.107578  y = -1.168490  z = -1.086163 angstrom
           Maximum rank =  0   Radius =  0.650 angstrom
                   Q00  =  -0.286510

C          x = -2.311578  y = -0.373490  z =  0.206837 angstrom
           Maximum rank =  0   Radius =  0.650 angstrom
                   Q00  =   0.926473

O          x = -1.277578  y = -0.148490  z =  0.879837 angstrom
           Maximum rank =  0   Radius =  0.650 angstrom
                   Q00  =  -0.948008

O          x = -3.456578  y =  0.000510  z =  0.554837 angstrom
           Maximum rank =  0   Radius =  0.650 angstrom
                   Q00  =  -0.855722

H          x = -1.231578  y = -1.806490  z = -0.956163 angstrom
           Maximum rank =  0   Radius =  0.325 angstrom
                   Q00  =   0.039229

H          x = -1.899578  y = -0.471490  z = -1.901163 angstrom
           Maximum rank =  0   Radius =  0.325 angstrom
                   Q00  =   0.094407

H          x = -2.972715  y = -1.789840  z = -1.360883 angstrom
           Maximum rank =  0   Radius =  0.325 angstrom
                   Q00  =   0.105575

C          x =  1.979422  y = -1.545490  z = -0.795163 angstrom
           Maximum rank =  0   Radius =  0.650 angstrom
                   Q00  =  -0.110744

C          x =  1.792422  y =  0.793510  z =  0.045837 angstrom
           Maximum rank =  0   Radius =  0.650 angstrom
                   Q00  =   1.071097

N          x =  0.989422  y =  1.669510  z =  0.622837 angstrom
           Maximum rank =  0   Radius =  0.650 angstrom
                   Q00  =  -0.580508

N          x =  1.295422  y = -0.415490  z = -0.189163 angstrom
           Maximum rank =  0   Radius =  0.650 angstrom
                   Q00  =  -0.510241

N          x =  3.026422  y =  1.145510  z = -0.250163 angstrom
           Maximum rank =  0   Radius =  0.650 angstrom
                   Q00  =  -0.584191

H          x =  0.056422  y =  1.344510  z =  0.870837 angstrom
           Maximum rank =  0   Radius =  0.325 angstrom
                   Q00  =   0.298700

H          x =  1.289422  y =  2.607510  z =  0.831837 angstrom
           Maximum rank =  0   Radius =  0.325 angstrom
                   Q00  =   0.230845

H          x =  0.335422  y = -0.554490  z =  0.127837 angstrom
           Maximum rank =  0   Radius =  0.325 angstrom
                   Q00  =   0.279956

H          x =  3.645422  y =  0.482510  z = -0.684163 angstrom
           Maximum rank =  0   Radius =  0.325 angstrom
                   Q00  =   0.247325

H          x =  3.350422  y =  2.080510  z = -0.056163 angstrom
           Maximum rank =  0   Radius =  0.325 angstrom
                   Q00  =   0.246738

H          x =  1.436422  y = -2.457490  z = -0.540163 angstrom
           Maximum rank =  0   Radius =  0.325 angstrom
                   Q00  =   0.156065

H          x =  2.980422  y = -1.631490  z = -0.368163 angstrom
           Maximum rank =  0   Radius =  0.325 angstrom
                   Q00  =   0.079849

H          x =  2.055202  y = -1.481260  z = -1.890673 angstrom
           Maximum rank =  0   Radius =  0.325 angstrom
                   Q00  =   0.099664

Total multipoles referred to origin at
           x =   0.000000,  y =    0.000000,  z =    0.000000 angstrom
                   Q00  =  -0.000000

Finished at 14:34:40 on 27 Apr 2020

  DMA results are available in the Python driver through the
	  variable('DMA DISTRIBUTED MULTIPOLES')
  and
	  variable('DMA TOTAL MULTIPOLES')
  commands.

    Psi4 stopped on: Monday, 27 April 2020 02:34PM
    Psi4 wall time for execution: 0:01:53.72

*** Psi4 exiting successfully. Buy a developer a beer!
