                               Psi4 1.3.2 release

  ==> Input File <==

--------------------------------------------------------------------------
import numpy as np
set {scf_type pk
basis cc-pvdz
d_convergence 10
gdma_switch   0
gdma_limit    0
gdma_origin   [ 0.0,  0.0,  0.0 ]
}
molecule test {
    units Angstrom
    0 1
    --
    0 1
    C               -1.662206085835541    -1.245970568728189     2.170257943613294
    C               -1.146206085835540     0.236029431271811     0.066257943613294
    C               -0.907206085835541    -0.184970568728189     1.420257943613294
    C               -0.212206085835541     1.254029431271811    -0.244742056386706
    C                0.122793914164459     0.577029431271811     1.868257943613294
    C               -2.041206085835541    -0.181970568728189    -0.924742056386706
    C               -0.170206085835541     1.866029431271811    -1.488742056386706
    C               -1.999206085835540     0.418029431271811    -2.165742056386706
    C               -1.078206085835540     1.432029431271811    -2.443742056386706
    N                0.555793914164459     1.434029431271811     0.876257943613294
    H               -2.764206085835541    -0.955970568728189    -0.717742056386706
    H               -1.087206085835541    -2.165970568728189     2.164257943613294
    H               -2.565206085835541    -1.432970568728189     1.595257943613294
    H                0.559793914164459     0.513029431271811     2.855257943613294
    H                1.318793914164460     2.096029431271811     0.983257943613294
    H                0.543793914164460     2.646029431271811    -1.698742056386706
    H               -2.680206085835541     0.090029431271811    -2.932742056386706
    H               -1.071206085835541     1.868029431271811    -3.426742056386706
    H               -1.933946085835540    -0.950380568728189     3.194357943613294
    C                2.011793914164460    -1.673970568728189    -0.230742056386706
    C                3.364793914164460    -1.170970568728189    -0.588742056386706
    C                2.155793914164460    -2.061970568728190     1.236257943613294
    H                1.660793914164460    -2.479970568728189    -0.852742056386706
    H                1.309793914164459    -0.856970568728189    -0.323742056386706
    H                4.021793914164459    -2.010970568728189    -0.814742056386706
    H                3.307793914164460    -0.494970568728189    -1.439742056386706
    H                1.188793914164459    -1.955970568728189     1.722257943613294
    H                3.720943914164459    -0.645400568728189     0.309557943613294
    H                2.860493914164459    -1.312430568728189     1.625597943613294
    H                2.478983914164460    -3.104950568728190     1.369417943613294

}
e, wfn = energy('scf', return_wfn=True)
gdma(wfn)
dmavals = variable('DMA DISTRIBUTED MULTIPOLES')
charges = np.array(dmavals)
print(charges)
np.save('SSI-038TRP-065PRO-1-dimer.npy', np.array(charges))--------------------------------------------------------------------------

*** tstart() called on ds3
*** at Tue Apr 28 05:26:11 2020

   => Loading Basis Set <=

    Name: CC-PVDZ
    Role: ORBITAL
    Keyword: BASIS
    atoms 1-9, 20-22   entry C          line   138 file /theoryfs2/ds/metcalf/miniconda2/envs/tf2gpu/share/psi4/basis/cc-pvdz.gbs
    atoms 10           entry N          line   168 file /theoryfs2/ds/metcalf/miniconda2/envs/tf2gpu/share/psi4/basis/cc-pvdz.gbs
    atoms 11-19, 23-30 entry H          line    22 file /theoryfs2/ds/metcalf/miniconda2/envs/tf2gpu/share/psi4/basis/cc-pvdz.gbs

         ---------------------------------------------------------
                                   SCF
               by Justin Turney, Rob Parrish, Andy Simmonett
                          and Daniel G. A. Smith
                              RHF Reference
                        1 Threads,    500 MiB Core
         ---------------------------------------------------------

  ==> Geometry <==

    Molecular point group: c1
    Full point group: C1

    Geometry (in Angstrom), charge = 0, multiplicity = 1:

       Center              X                  Y                   Z               Mass
    ------------   -----------------  -----------------  -----------------  -----------------
         C           -1.662206085836    -1.245970568728     2.170257943613    12.000000000000
         C           -1.146206085836     0.236029431272     0.066257943613    12.000000000000
         C           -0.907206085836    -0.184970568728     1.420257943613    12.000000000000
         C           -0.212206085836     1.254029431272    -0.244742056387    12.000000000000
         C            0.122793914164     0.577029431272     1.868257943613    12.000000000000
         C           -2.041206085836    -0.181970568728    -0.924742056387    12.000000000000
         C           -0.170206085836     1.866029431272    -1.488742056387    12.000000000000
         C           -1.999206085836     0.418029431272    -2.165742056387    12.000000000000
         C           -1.078206085836     1.432029431272    -2.443742056387    12.000000000000
         N            0.555793914164     1.434029431272     0.876257943613    14.003074004430
         H           -2.764206085836    -0.955970568728    -0.717742056387     1.007825032230
         H           -1.087206085836    -2.165970568728     2.164257943613     1.007825032230
         H           -2.565206085836    -1.432970568728     1.595257943613     1.007825032230
         H            0.559793914164     0.513029431272     2.855257943613     1.007825032230
         H            1.318793914164     2.096029431272     0.983257943613     1.007825032230
         H            0.543793914164     2.646029431272    -1.698742056387     1.007825032230
         H           -2.680206085836     0.090029431272    -2.932742056387     1.007825032230
         H           -1.071206085836     1.868029431272    -3.426742056387     1.007825032230
         H           -1.933946085836    -0.950380568728     3.194357943613     1.007825032230
         C            2.011793914164    -1.673970568728    -0.230742056387    12.000000000000
         C            3.364793914164    -1.170970568728    -0.588742056387    12.000000000000
         C            2.155793914164    -2.061970568728     1.236257943613    12.000000000000
         H            1.660793914164    -2.479970568728    -0.852742056387     1.007825032230
         H            1.309793914164    -0.856970568728    -0.323742056387     1.007825032230
         H            4.021793914164    -2.010970568728    -0.814742056387     1.007825032230
         H            3.307793914164    -0.494970568728    -1.439742056387     1.007825032230
         H            1.188793914164    -1.955970568728     1.722257943613     1.007825032230
         H            3.720943914164    -0.645400568728     0.309557943613     1.007825032230
         H            2.860493914164    -1.312430568728     1.625597943613     1.007825032230
         H            2.478983914164    -3.104950568728     1.369417943613     1.007825032230

  Running in c1 symmetry.

  Rotational constants: A =      0.03143  B =      0.02062  C =      0.01661 [cm^-1]
  Rotational constants: A =    942.32869  B =    618.30790  C =    497.97437 [MHz]
  Nuclear repulsion =  784.507883730197477

  Charge       = 0
  Multiplicity = 1
  Electrons    = 96
  Nalpha       = 48
  Nbeta        = 48

  ==> Algorithm <==

  SCF Algorithm Type is PK.
  DIIS enabled.
  MOM disabled.
  Fractional occupation disabled.
  Guess Type is SAD.
  Energy threshold   = 1.00e-06
  Density threshold  = 1.00e-10
  Integral threshold = 0.00e+00

  ==> Primary Basis <==

  Basis Set: CC-PVDZ
    Blend: CC-PVDZ
    Number of shells: 129
    Number of basis function: 267
    Number of Cartesian functions: 280
    Spherical Harmonics?: true
    Max angular momentum: 2

  ==> Pre-Iterations <==

   -------------------------------------------------------
    Irrep   Nso     Nmo     Nalpha   Nbeta   Ndocc  Nsocc
   -------------------------------------------------------
     A        267     267       0       0       0       0
   -------------------------------------------------------
    Total     267     267      48      48      48       0
   -------------------------------------------------------

  ==> Integral Setup <==

  Using integral reordering PK algorithm.
  Sizing the integral batches needed.
  Building batch lookup table.
   Calculation information:
      Number of atoms:                  30
      Number of AO shells:             129
      Number of primitives:            371
      Number of atomic orbitals:       280
      Number of basis functions:       267

      Integral cutoff                 1.00e-12
      Number of threads:                 1

	Batch   1 pq = [       0,    9405] index = [             0,44231715] size =     44231715
	Batch   2 pq = [    9405,   13301] index = [      44231715,88464951] size =     44233236
	Batch   3 pq = [   13301,   16290] index = [      88464951,132690195] size =     44225244
	Batch   4 pq = [   16290,   18810] index = [     132690195,176917455] size =     44227260
	Batch   5 pq = [   18810,   21030] index = [     176917455,221140965] size =     44223510
	Batch   6 pq = [   21030,   23037] index = [     221140965,265363203] size =     44222238
	Batch   7 pq = [   23037,   24883] index = [     265363203,309594286] size =     44231083
	Batch   8 pq = [   24883,   26601] index = [     309594286,353819901] size =     44225615
	Batch   9 pq = [   26601,   28214] index = [     353819901,398029005] size =     44209104
	Batch  10 pq = [   28214,   29740] index = [     398029005,442248670] size =     44219665
	Batch  11 pq = [   29740,   31191] index = [     442248670,486454836] size =     44206166
	Batch  12 pq = [   31191,   32578] index = [     486454836,530679331] size =     44224495
	Batch  13 pq = [   32578,   33908] index = [     530679331,574893186] size =     44213855
	Batch  14 pq = [   33908,   35188] index = [     574893186,619115266] size =     44222080
	Batch  15 pq = [   35188,   35778] index = [     619115266,640050531] size =     20935265
  Task number: 58
  Buffer size: 11059200
  Buffer per thread: 2
  We computed 41835415 shell quartets total.
  Whereas there are 35158305 unique shell quartets.
    18.99 percent of shell quartets recomputed by reordering.

  ==> DiskJK: Disk-Based J/K Matrices <==

    J tasked:                  Yes
    K tasked:                  Yes
    wK tasked:                  No
    Memory [MiB]:              375
    Schwarz Cutoff:          1E-12

    OpenMP threads:              1

  Minimum eigenvalue in the overlap matrix is 2.3035447727E-04.
  Using Symmetric Orthogonalization.

  SCF Guess: Superposition of Atomic Densities via on-the-fly atomic UHF.

  ==> Iterations <==

                        Total Energy        Delta E     RMS |[F,P]|

   @RHF iter SAD:  -518.35511129662996   -5.18355e+02   0.00000e+00
   @RHF iter   1:  -518.46292916967855   -1.07818e-01   2.54246e-03 DIIS
   @RHF iter   2:  -518.72675765533938   -2.63828e-01   1.13956e-03 DIIS
   @RHF iter   3:  -518.77558288276259   -4.88252e-02   2.85260e-04 DIIS
   @RHF iter   4:  -518.77971138450869   -4.12850e-03   1.29391e-04 DIIS
   @RHF iter   5:  -518.78037357322751   -6.62189e-04   2.00650e-05 DIIS
   @RHF iter   6:  -518.78040507761534   -3.15044e-05   8.45632e-06 DIIS
   @RHF iter   7:  -518.78041121995466   -6.14234e-06   3.34660e-06 DIIS
   @RHF iter   8:  -518.78041274307805   -1.52312e-06   1.43388e-06 DIIS
   @RHF iter   9:  -518.78041308443221   -3.41354e-07   6.31443e-07 DIIS
   @RHF iter  10:  -518.78041315513406   -7.07018e-08   2.67205e-07 DIIS
   @RHF iter  11:  -518.78041317093846   -1.58044e-08   1.07153e-07 DIIS
   @RHF iter  12:  -518.78041317325437   -2.31591e-09   3.88849e-08 DIIS
   @RHF iter  13:  -518.78041317345321   -1.98838e-10   1.05537e-08 DIIS
   @RHF iter  14:  -518.78041317347208   -1.88720e-11   3.65670e-09 DIIS
   @RHF iter  15:  -518.78041317347777   -5.68434e-12   1.75781e-09 DIIS
   @RHF iter  16:  -518.78041317346663    1.11413e-11   1.01406e-09 DIIS
   @RHF iter  17:  -518.78041317347015   -3.52429e-12   3.69920e-10 DIIS
   @RHF iter  18:  -518.78041317346242    7.73070e-12   1.47285e-10 DIIS
   @RHF iter  19:  -518.78041317346731   -4.88853e-12   5.02381e-11 DIIS
  Energy and wave function converged.

  ==> Post-Iterations <==

    Orbital Energies [Eh]
    ---------------------

    Doubly Occupied:

       1A    -15.603534     2A    -11.264533     3A    -11.263416
       4A    -11.231590     5A    -11.229413     6A    -11.229035
       7A    -11.227607     8A    -11.221495     9A    -11.219548
      10A    -11.217828    11A    -11.203985    12A    -11.203056
      13A    -11.196934    14A     -1.295737    15A     -1.131636
      16A     -1.075404    17A     -1.061762    18A     -1.000570
      19A     -0.988508    20A     -0.934865    21A     -0.906947
      22A     -0.841385    23A     -0.805888    24A     -0.790661
      25A     -0.754462    26A     -0.720702    27A     -0.662918
      28A     -0.644928    29A     -0.633427    30A     -0.614015
      31A     -0.605060    32A     -0.593935    33A     -0.584067
      34A     -0.570316    35A     -0.557584    36A     -0.537101
      37A     -0.531071    38A     -0.526094    39A     -0.507999
      40A     -0.495217    41A     -0.481948    42A     -0.474675
      43A     -0.464017    44A     -0.454319    45A     -0.445721
      46A     -0.375169    47A     -0.297798    48A     -0.275918

    Virtual:

      49A      0.124278    50A      0.168855    51A      0.171050
      52A      0.186458    53A      0.199529    54A      0.207519
      55A      0.217428    56A      0.226444    57A      0.230077
      58A      0.239742    59A      0.251670    60A      0.255585
      61A      0.265970    62A      0.271311    63A      0.278487
      64A      0.295030    65A      0.318839    66A      0.327798
      67A      0.340950    68A      0.347504    69A      0.381854
      70A      0.384368    71A      0.401806    72A      0.421596
      73A      0.426660    74A      0.443451    75A      0.449692
      76A      0.468850    77A      0.480616    78A      0.520614
      79A      0.529881    80A      0.565766    81A      0.598229
      82A      0.606217    83A      0.608151    84A      0.624438
      85A      0.639459    86A      0.649321    87A      0.657592
      88A      0.662610    89A      0.673065    90A      0.704258
      91A      0.715209    92A      0.718659    93A      0.731075
      94A      0.740447    95A      0.745199    96A      0.753740
      97A      0.764632    98A      0.765577    99A      0.770572
     100A      0.789566   101A      0.799465   102A      0.802868
     103A      0.825696   104A      0.842373   105A      0.852360
     106A      0.857783   107A      0.865338   108A      0.878675
     109A      0.885126   110A      0.891889   111A      0.895554
     112A      0.896807   113A      0.900989   114A      0.917279
     115A      0.923430   116A      0.932168   117A      0.941118
     118A      0.943118   119A      0.949107   120A      0.964221
     121A      0.966713   122A      0.976997   123A      0.982734
     124A      0.992094   125A      1.007825   126A      1.014213
     127A      1.035847   128A      1.062650   129A      1.084757
     130A      1.098785   131A      1.111652   132A      1.127731
     133A      1.137557   134A      1.140813   135A      1.154334
     136A      1.160602   137A      1.170218   138A      1.186029
     139A      1.228890   140A      1.233350   141A      1.238720
     142A      1.247571   143A      1.255144   144A      1.281832
     145A      1.286699   146A      1.299890   147A      1.328470
     148A      1.334926   149A      1.361905   150A      1.363885
     151A      1.388286   152A      1.430472   153A      1.441619
     154A      1.447303   155A      1.476117   156A      1.494265
     157A      1.525394   158A      1.543107   159A      1.574091
     160A      1.596007   161A      1.611394   162A      1.635836
     163A      1.642008   164A      1.654914   165A      1.658489
     166A      1.686925   167A      1.691204   168A      1.710961
     169A      1.734289   170A      1.741964   171A      1.749381
     172A      1.763107   173A      1.776415   174A      1.786873
     175A      1.806371   176A      1.834824   177A      1.858177
     178A      1.862196   179A      1.866166   180A      1.882882
     181A      1.887162   182A      1.898246   183A      1.900040
     184A      1.912722   185A      1.924681   186A      1.938544
     187A      1.941849   188A      1.949675   189A      1.961865
     190A      1.967932   191A      1.984504   192A      1.989228
     193A      1.995955   194A      2.001768   195A      2.012515
     196A      2.022157   197A      2.032873   198A      2.041858
     199A      2.047157   200A      2.051464   201A      2.083341
     202A      2.084098   203A      2.088061   204A      2.099937
     205A      2.110034   206A      2.127588   207A      2.138992
     208A      2.142856   209A      2.158931   210A      2.163259
     211A      2.171524   212A      2.191899   213A      2.194499
     214A      2.216933   215A      2.239493   216A      2.260017
     217A      2.279918   218A      2.290600   219A      2.314298
     220A      2.321398   221A      2.341258   222A      2.342359
     223A      2.362815   224A      2.378847   225A      2.422315
     226A      2.429887   227A      2.456085   228A      2.468880
     229A      2.479052   230A      2.487872   231A      2.537212
     232A      2.560667   233A      2.564816   234A      2.592127
     235A      2.616331   236A      2.631498   237A      2.659183
     238A      2.682799   239A      2.687459   240A      2.722306
     241A      2.737065   242A      2.773037   243A      2.776887
     244A      2.784263   245A      2.798967   246A      2.805079
     247A      2.814113   248A      2.830254   249A      2.832189
     250A      2.849090   251A      2.877586   252A      2.890931
     253A      2.917799   254A      2.938719   255A      2.957134
     256A      2.983550   257A      3.014956   258A      3.030003
     259A      3.077923   260A      3.091841   261A      3.127162
     262A      3.156970   263A      3.214431   264A      3.308999
     265A      3.375816   266A      3.756465   267A      3.969233

    Final Occupation by Irrep:
              A
    DOCC [    48 ]

  @RHF Final Energy:  -518.78041317346731

   => Energetics <=

    Nuclear Repulsion Energy =            784.5078837301974772
    One-Electron Energy =               -2258.6689996688933206
    Two-Electron Energy =                 955.3807027652284205
    Total Energy =                       -518.7804131734673092

Computation Completed

Properties will be evaluated at   0.000000,   0.000000,   0.000000 [a0]

Properties computed using the SCF density matrix

  Nuclear Dipole Moment: [e a0]
     X:    10.1885      Y:   -10.4605      Z:     3.3839

  Electronic Dipole Moment: [e a0]
     X:    -9.8110      Y:    10.7846      Z:    -2.9725

  Dipole Moment: [e a0]
     X:     0.3775      Y:     0.3241      Z:     0.4113     Total:     0.6455

  Dipole Moment: [D]
     X:     0.9595      Y:     0.8238      Z:     1.0455     Total:     1.6408

*** tstop() called on ds3 at Tue Apr 28 05:32:45 2020
Module time:
	user time   =     308.12 seconds =       5.14 minutes
	system time =      98.90 seconds =       1.65 minutes
	total time  =        394 seconds =       6.57 minutes
Total time:
	user time   =     308.12 seconds =       5.14 minutes
	system time =      98.90 seconds =       1.65 minutes
	total time  =        394 seconds =       6.57 minutes
                                     G D M A

                                 by Anthony Stone

                           version 2.2.06, 22 June 2011

               Distributed Multipoles from Gaussian wavefunctions

Starting at 5:32:45 on 28 Apr 2020

Using SCF density matrix from file ./SSI/SSI-038TRP-065PRO-1-dimer.test.30744.fchk

                         Distributed Multipole Analysis

Standard DMA

Positions and radii in angstrom
Multipole moments in atomic units, ea_0^k for rank k

C          x = -1.662206  y = -1.245971  z =  2.170258 angstrom
           Maximum rank =  0   Radius =  0.650 angstrom
                   Q00  =  -0.209177

C          x = -1.146206  y =  0.236029  z =  0.066258 angstrom
           Maximum rank =  0   Radius =  0.650 angstrom
                   Q00  =  -0.043258

C          x = -0.907206  y = -0.184971  z =  1.420258 angstrom
           Maximum rank =  0   Radius =  0.650 angstrom
                   Q00  =  -0.124029

C          x = -0.212206  y =  1.254029  z = -0.244742 angstrom
           Maximum rank =  0   Radius =  0.650 angstrom
                   Q00  =   0.240562

C          x =  0.122794  y =  0.577029  z =  1.868258 angstrom
           Maximum rank =  0   Radius =  0.650 angstrom
                   Q00  =   0.074697

C          x = -2.041206  y = -0.181971  z = -0.924742 angstrom
           Maximum rank =  0   Radius =  0.650 angstrom
                   Q00  =  -0.098703

C          x = -0.170206  y =  1.866029  z = -1.488742 angstrom
           Maximum rank =  0   Radius =  0.650 angstrom
                   Q00  =  -0.119636

C          x = -1.999206  y =  0.418029  z = -2.165742 angstrom
           Maximum rank =  0   Radius =  0.650 angstrom
                   Q00  =  -0.093684

C          x = -1.078206  y =  1.432029  z = -2.443742 angstrom
           Maximum rank =  0   Radius =  0.650 angstrom
                   Q00  =  -0.006267

N          x =  0.555794  y =  1.434029  z =  0.876258 angstrom
           Maximum rank =  0   Radius =  0.650 angstrom
                   Q00  =  -0.499472

H          x = -2.764206  y = -0.955971  z = -0.717742 angstrom
           Maximum rank =  0   Radius =  0.325 angstrom
                   Q00  =   0.067922

H          x = -1.087206  y = -2.165971  z =  2.164258 angstrom
           Maximum rank =  0   Radius =  0.325 angstrom
                   Q00  =   0.097722

H          x = -2.565206  y = -1.432971  z =  1.595258 angstrom
           Maximum rank =  0   Radius =  0.325 angstrom
                   Q00  =   0.106961

H          x =  0.559794  y =  0.513029  z =  2.855258 angstrom
           Maximum rank =  0   Radius =  0.325 angstrom
                   Q00  =   0.099467

H          x =  1.318794  y =  2.096029  z =  0.983258 angstrom
           Maximum rank =  0   Radius =  0.325 angstrom
                   Q00  =   0.220157

H          x =  0.543794  y =  2.646029  z = -1.698742 angstrom
           Maximum rank =  0   Radius =  0.325 angstrom
                   Q00  =   0.072962

H          x = -2.680206  y =  0.090029  z = -2.932742 angstrom
           Maximum rank =  0   Radius =  0.325 angstrom
                   Q00  =   0.059166

H          x = -1.071206  y =  1.868029  z = -3.426742 angstrom
           Maximum rank =  0   Radius =  0.325 angstrom
                   Q00  =   0.063709

H          x = -1.933946  y = -0.950381  z =  3.194358 angstrom
           Maximum rank =  0   Radius =  0.325 angstrom
                   Q00  =   0.107421

C          x =  2.011794  y = -1.673971  z = -0.230742 angstrom
           Maximum rank =  0   Radius =  0.650 angstrom
                   Q00  =  -0.077367

C          x =  3.364794  y = -1.170971  z = -0.588742 angstrom
           Maximum rank =  0   Radius =  0.650 angstrom
                   Q00  =  -0.204708

C          x =  2.155794  y = -2.061971  z =  1.236258 angstrom
           Maximum rank =  0   Radius =  0.650 angstrom
                   Q00  =  -0.216822

H          x =  1.660794  y = -2.479971  z = -0.852742 angstrom
           Maximum rank =  0   Radius =  0.325 angstrom
                   Q00  =   0.055014

H          x =  1.309794  y = -0.856971  z = -0.323742 angstrom
           Maximum rank =  0   Radius =  0.325 angstrom
                   Q00  =   0.054954

H          x =  4.021794  y = -2.010971  z = -0.814742 angstrom
           Maximum rank =  0   Radius =  0.325 angstrom
                   Q00  =   0.072198

H          x =  3.307794  y = -0.494971  z = -1.439742 angstrom
           Maximum rank =  0   Radius =  0.325 angstrom
                   Q00  =   0.072601

H          x =  1.188794  y = -1.955971  z =  1.722258 angstrom
           Maximum rank =  0   Radius =  0.325 angstrom
                   Q00  =   0.084272

H          x =  3.720944  y = -0.645401  z =  0.309558 angstrom
           Maximum rank =  0   Radius =  0.325 angstrom
                   Q00  =   0.040296

H          x =  2.860494  y = -1.312431  z =  1.625598 angstrom
           Maximum rank =  0   Radius =  0.325 angstrom
                   Q00  =   0.039567

H          x =  2.478984  y = -3.104951  z =  1.369418 angstrom
           Maximum rank =  0   Radius =  0.325 angstrom
                   Q00  =   0.063476

Total multipoles referred to origin at
           x =   0.000000,  y =    0.000000,  z =    0.000000 angstrom
                   Q00  =  -0.000000

Finished at 5:32:46 on 28 Apr 2020

  DMA results are available in the Python driver through the
	  variable('DMA DISTRIBUTED MULTIPOLES')
  and
	  variable('DMA TOTAL MULTIPOLES')
  commands.

    Psi4 stopped on: Tuesday, 28 April 2020 05:32AM
    Psi4 wall time for execution: 0:06:34.78

*** Psi4 exiting successfully. Buy a developer a beer!
