                               Psi4 1.3.2 release

  ==> Input File <==

--------------------------------------------------------------------------
import numpy as np
set {scf_type pk
basis cc-pvdz
d_convergence 10
gdma_switch   0
gdma_limit    0
gdma_origin   [ 0.0,  0.0,  0.0 ]
}
molecule test {
    units Angstrom
    0 1
    --
    0 1
    C               -2.003707505784431    -0.414809836253505     1.431594729968731
    C               -3.295707505784431    -0.511809836253505     0.612594729968731
    C               -2.228707505784432    -0.565809836253505     2.935594729968731
    H               -1.306707505784432    -1.183809836253505     1.092594729968731
    H               -1.547707505784431     0.560190163746495     1.249594729968731
    H               -4.029707505784431     0.176190163746495     1.030594729968731
    H               -2.583707505784431    -1.574809836253505     3.141594729968731
    H               -3.727629505784431    -1.523139836253505     0.638178729968731
    H               -3.134186505784431    -0.128649836253505    -0.405786270031269
    H               -1.292577505784432    -0.421119836253505     3.494813729968731
    H               -2.991547505784431     0.140280163746495     3.295465729968731
    C                0.839292494215569     2.024190163746495    -2.442405270031269
    C                1.474292494215568     0.219190163746495     0.851594729968731
    C                1.258292494215569     1.228190163746495    -0.078405270031269
    C                1.485292494215569    -1.112809836253505     0.444594729968731
    C                1.075292494215568     0.925190163746495    -1.427405270031269
    C                1.289292494215569    -1.428809836253505    -0.894405270031269
    C                1.082292494215569    -0.412809836253505    -1.823405270031269
    H                1.621292494215569     0.466190163746495     1.894594729968731
    H                1.220292494215568     2.252190163746495     0.251594729968731
    H                1.649292494215568    -1.898809836253505     1.169594729968731
    H                1.294292494215569    -2.461809836253504    -1.215405270031269
    H               -0.138707505784431     2.454190163746495    -2.255405270031269
    H                0.811292494215568     1.587190163746495    -3.442405270031269
    H                0.937292494215568    -0.667809836253505    -2.864405270031269
    H                1.598552494215569     2.820050163746495    -2.430923270031269

}
e, wfn = energy('scf', return_wfn=True)
gdma(wfn)
dmavals = variable('DMA DISTRIBUTED MULTIPOLES')
charges = np.array(dmavals)
print(charges)
np.save('SSI-087LEU-095PHE-1-dimer.npy', np.array(charges))--------------------------------------------------------------------------

*** tstart() called on ds3
*** at Sun Apr 26 17:20:07 2020

   => Loading Basis Set <=

    Name: CC-PVDZ
    Role: ORBITAL
    Keyword: BASIS
    atoms 1-3, 12-18  entry C          line   138 file /theoryfs2/ds/metcalf/miniconda2/envs/tf2gpu/share/psi4/basis/cc-pvdz.gbs
    atoms 4-11, 19-26 entry H          line    22 file /theoryfs2/ds/metcalf/miniconda2/envs/tf2gpu/share/psi4/basis/cc-pvdz.gbs

         ---------------------------------------------------------
                                   SCF
               by Justin Turney, Rob Parrish, Andy Simmonett
                          and Daniel G. A. Smith
                              RHF Reference
                        1 Threads,    500 MiB Core
         ---------------------------------------------------------

  ==> Geometry <==

    Molecular point group: c1
    Full point group: C1

    Geometry (in Angstrom), charge = 0, multiplicity = 1:

       Center              X                  Y                   Z               Mass
    ------------   -----------------  -----------------  -----------------  -----------------
         C           -2.003707505784    -0.414809836254     1.431594729969    12.000000000000
         C           -3.295707505784    -0.511809836254     0.612594729969    12.000000000000
         C           -2.228707505784    -0.565809836254     2.935594729969    12.000000000000
         H           -1.306707505784    -1.183809836254     1.092594729969     1.007825032230
         H           -1.547707505784     0.560190163746     1.249594729969     1.007825032230
         H           -4.029707505784     0.176190163746     1.030594729969     1.007825032230
         H           -2.583707505784    -1.574809836254     3.141594729969     1.007825032230
         H           -3.727629505784    -1.523139836254     0.638178729969     1.007825032230
         H           -3.134186505784    -0.128649836254    -0.405786270031     1.007825032230
         H           -1.292577505784    -0.421119836254     3.494813729969     1.007825032230
         H           -2.991547505784     0.140280163746     3.295465729969     1.007825032230
         C            0.839292494216     2.024190163746    -2.442405270031    12.000000000000
         C            1.474292494216     0.219190163746     0.851594729969    12.000000000000
         C            1.258292494216     1.228190163746    -0.078405270031    12.000000000000
         C            1.485292494216    -1.112809836254     0.444594729969    12.000000000000
         C            1.075292494216     0.925190163746    -1.427405270031    12.000000000000
         C            1.289292494216    -1.428809836254    -0.894405270031    12.000000000000
         C            1.082292494216    -0.412809836254    -1.823405270031    12.000000000000
         H            1.621292494216     0.466190163746     1.894594729969     1.007825032230
         H            1.220292494216     2.252190163746     0.251594729969     1.007825032230
         H            1.649292494216    -1.898809836254     1.169594729969     1.007825032230
         H            1.294292494216    -2.461809836254    -1.215405270031     1.007825032230
         H           -0.138707505784     2.454190163746    -2.255405270031     1.007825032230
         H            0.811292494216     1.587190163746    -3.442405270031     1.007825032230
         H            0.937292494216    -0.667809836254    -2.864405270031     1.007825032230
         H            1.598552494216     2.820050163746    -2.430923270031     1.007825032230

  Running in c1 symmetry.

  Rotational constants: A =      0.05513  B =      0.02165  C =      0.01958 [cm^-1]
  Rotational constants: A =   1652.89848  B =    648.97247  C =    586.95294 [MHz]
  Nuclear repulsion =  493.705926419119805

  Charge       = 0
  Multiplicity = 1
  Electrons    = 76
  Nalpha       = 38
  Nbeta        = 38

  ==> Algorithm <==

  SCF Algorithm Type is PK.
  DIIS enabled.
  MOM disabled.
  Fractional occupation disabled.
  Guess Type is SAD.
  Energy threshold   = 1.00e-06
  Density threshold  = 1.00e-10
  Integral threshold = 0.00e+00

  ==> Primary Basis <==

  Basis Set: CC-PVDZ
    Blend: CC-PVDZ
    Number of shells: 108
    Number of basis function: 220
    Number of Cartesian functions: 230
    Spherical Harmonics?: true
    Max angular momentum: 2

  ==> Pre-Iterations <==

   -------------------------------------------------------
    Irrep   Nso     Nmo     Nalpha   Nbeta   Ndocc  Nsocc
   -------------------------------------------------------
     A        220     220       0       0       0       0
   -------------------------------------------------------
    Total     220     220      38      38      38       0
   -------------------------------------------------------

  ==> Integral Setup <==

  Using integral reordering PK algorithm.
  Sizing the integral batches needed.
  Building batch lookup table.
   Calculation information:
      Number of atoms:                  26
      Number of AO shells:             108
      Number of primitives:            300
      Number of atomic orbitals:       230
      Number of basis functions:       220

      Integral cutoff                 1.00e-12
      Number of threads:                 1

	Batch   1 pq = [       0,    9405] index = [             0,44231715] size =     44231715
	Batch   2 pq = [    9405,   13301] index = [      44231715,88464951] size =     44233236
	Batch   3 pq = [   13301,   16290] index = [      88464951,132690195] size =     44225244
	Batch   4 pq = [   16290,   18810] index = [     132690195,176917455] size =     44227260
	Batch   5 pq = [   18810,   21030] index = [     176917455,221140965] size =     44223510
	Batch   6 pq = [   21030,   23037] index = [     221140965,265363203] size =     44222238
	Batch   7 pq = [   23037,   24310] index = [     265363203,295500205] size =     30137002
  Task number: 27
  Buffer size: 11059200
  Buffer per thread: 2
  We computed 16237705 shell quartets total.
  Whereas there are 17325441 unique shell quartets.

  ==> DiskJK: Disk-Based J/K Matrices <==

    J tasked:                  Yes
    K tasked:                  Yes
    wK tasked:                  No
    Memory [MiB]:              375
    Schwarz Cutoff:          1E-12

    OpenMP threads:              1

  Minimum eigenvalue in the overlap matrix is 3.0896826292E-04.
  Using Symmetric Orthogonalization.

  SCF Guess: Superposition of Atomic Densities via on-the-fly atomic UHF.

  ==> Iterations <==

                        Total Energy        Delta E     RMS |[F,P]|

   @RHF iter SAD:  -386.84903822907552   -3.86849e+02   0.00000e+00
   @RHF iter   1:  -387.77157389238573   -9.22536e-01   2.74948e-03 DIIS
   @RHF iter   2:  -387.99014439847087   -2.18571e-01   1.15684e-03 DIIS
   @RHF iter   3:  -388.02531431003865   -3.51699e-02   2.48183e-04 DIIS
   @RHF iter   4:  -388.02817253384620   -2.85822e-03   5.00685e-05 DIIS
   @RHF iter   5:  -388.02825637197282   -8.38381e-05   1.51569e-05 DIIS
   @RHF iter   6:  -388.02826381685685   -7.44488e-06   4.58945e-06 DIIS
   @RHF iter   7:  -388.02826455016037   -7.33304e-07   1.23935e-06 DIIS
   @RHF iter   8:  -388.02826461868068   -6.85203e-08   3.16633e-07 DIIS
   @RHF iter   9:  -388.02826462948258   -1.08019e-08   1.46108e-07 DIIS
   @RHF iter  10:  -388.02826463226103   -2.77845e-09   6.93688e-08 DIIS
   @RHF iter  11:  -388.02826463308861   -8.27583e-10   2.45895e-08 DIIS
   @RHF iter  12:  -388.02826463317706   -8.84484e-11   7.98059e-09 DIIS
   @RHF iter  13:  -388.02826463318337   -6.30962e-12   2.84940e-09 DIIS
   @RHF iter  14:  -388.02826463318121    2.16005e-12   8.60928e-10 DIIS
   @RHF iter  15:  -388.02826463318138   -1.70530e-13   4.05521e-10 DIIS
   @RHF iter  16:  -388.02826463318382   -2.44427e-12   2.10729e-10 DIIS
   @RHF iter  17:  -388.02826463318365    1.70530e-13   8.55088e-11 DIIS
  Energy and wave function converged.

  ==> Post-Iterations <==

    Orbital Energies [Eh]
    ---------------------

    Doubly Occupied:

       1A    -11.242552     2A    -11.235836     3A    -11.235597
       4A    -11.231487     5A    -11.231225     6A    -11.230585
       7A    -11.230178     8A    -11.211479     9A    -11.210578
      10A    -11.209457    11A     -1.153073    12A     -1.044551
      13A     -1.042842    14A     -1.012628    15A     -0.932068
      16A     -0.917134    17A     -0.824869    18A     -0.796771
      19A     -0.788683    20A     -0.691682    21A     -0.631588
      22A     -0.629741    23A     -0.617308    24A     -0.586562
      25A     -0.583236    26A     -0.577558    27A     -0.562826
      28A     -0.541459    29A     -0.535489    30A     -0.524221
      31A     -0.491168    32A     -0.484816    33A     -0.482056
      34A     -0.464153    35A     -0.459973    36A     -0.457299
      37A     -0.332738    38A     -0.321883

    Virtual:

      39A      0.133978    40A      0.140814    41A      0.171236
      42A      0.192981    43A      0.198996    44A      0.210718
      45A      0.233127    46A      0.238609    47A      0.246630
      48A      0.250897    49A      0.259487    50A      0.265276
      51A      0.278404    52A      0.286617    53A      0.294673
      54A      0.306746    55A      0.311112    56A      0.317321
      57A      0.362442    58A      0.373987    59A      0.380441
      60A      0.432405    61A      0.451915    62A      0.462271
      63A      0.472698    64A      0.502381    65A      0.564191
      66A      0.579812    67A      0.587138    68A      0.604535
      69A      0.611126    70A      0.618121    71A      0.624612
      72A      0.630157    73A      0.680174    74A      0.695165
      75A      0.704861    76A      0.736683    77A      0.737182
      78A      0.742985    79A      0.753535    80A      0.756269
      81A      0.778506    82A      0.788067    83A      0.794169
      84A      0.816167    85A      0.827609    86A      0.838884
      87A      0.855402    88A      0.858795    89A      0.863251
      90A      0.881144    91A      0.889112    92A      0.894401
      93A      0.895359    94A      0.902305    95A      0.908924
      96A      0.911199    97A      0.918201    98A      0.924339
      99A      0.928086   100A      0.934686   101A      0.938536
     102A      0.952390   103A      0.977241   104A      0.984233
     105A      0.996052   106A      1.004851   107A      1.040745
     108A      1.052788   109A      1.119045   110A      1.127108
     111A      1.136415   112A      1.149854   113A      1.158271
     114A      1.166920   115A      1.208927   116A      1.214718
     117A      1.226858   118A      1.246655   119A      1.254839
     120A      1.261982   121A      1.299394   122A      1.309832
     123A      1.320096   124A      1.325947   125A      1.392452
     126A      1.412609   127A      1.477553   128A      1.490266
     129A      1.502958   130A      1.530780   131A      1.534211
     132A      1.559259   133A      1.597684   134A      1.636294
     135A      1.672635   136A      1.679517   137A      1.691086
     138A      1.694394   139A      1.710714   140A      1.738384
     141A      1.749036   142A      1.764911   143A      1.794771
     144A      1.817075   145A      1.860377   146A      1.873509
     147A      1.879052   148A      1.887936   149A      1.893412
     150A      1.900540   151A      1.902060   152A      1.917159
     153A      1.925878   154A      1.932997   155A      1.935323
     156A      1.947229   157A      1.950334   158A      1.959654
     159A      1.966322   160A      1.972676   161A      1.980968
     162A      1.986686   163A      2.000691   164A      2.005532
     165A      2.011722   166A      2.020129   167A      2.044248
     168A      2.049458   169A      2.067474   170A      2.092432
     171A      2.108409   172A      2.132306   173A      2.136176
     174A      2.154733   175A      2.157015   176A      2.168414
     177A      2.181124   178A      2.197777   179A      2.254922
     180A      2.260880   181A      2.285840   182A      2.289406
     183A      2.297845   184A      2.312508   185A      2.325730
     186A      2.335625   187A      2.353440   188A      2.373823
     189A      2.440910   190A      2.474064   191A      2.490849
     192A      2.504981   193A      2.539216   194A      2.543732
     195A      2.582858   196A      2.612940   197A      2.633992
     198A      2.642472   199A      2.729933   200A      2.748770
     201A      2.757421   202A      2.762887   203A      2.770836
     204A      2.790393   205A      2.797202   206A      2.807759
     207A      2.818178   208A      2.850801   209A      2.862714
     210A      2.921837   211A      2.964752   212A      2.984584
     213A      2.990107   214A      3.015109   215A      3.035402
     216A      3.101622   217A      3.160198   218A      3.199759
     219A      3.302016   220A      3.967250

    Final Occupation by Irrep:
              A
    DOCC [    38 ]

  @RHF Final Energy:  -388.02826463318365

   => Energetics <=

    Nuclear Repulsion Energy =            493.7059264191198054
    One-Electron Energy =               -1501.9536847755437066
    Two-Electron Energy =                 620.2194937232402481
    Total Energy =                       -388.0282646331836531

Computation Completed

Properties will be evaluated at   0.000000,   0.000000,   0.000000 [a0]

Properties computed using the SCF density matrix

  Nuclear Dipole Moment: [e a0]
     X:   -10.8936      Y:     0.5592      Z:     4.3539

  Electronic Dipole Moment: [e a0]
     X:    10.9601      Y:    -0.4396      Z:    -4.4963

  Dipole Moment: [e a0]
     X:     0.0666      Y:     0.1196      Z:    -0.1424     Total:     0.1975

  Dipole Moment: [D]
     X:     0.1692      Y:     0.3040      Z:    -0.3620     Total:     0.5020

*** tstop() called on ds3 at Sun Apr 26 17:23:31 2020
Module time:
	user time   =     117.27 seconds =       1.95 minutes
	system time =      54.04 seconds =       0.90 minutes
	total time  =        204 seconds =       3.40 minutes
Total time:
	user time   =     117.27 seconds =       1.95 minutes
	system time =      54.04 seconds =       0.90 minutes
	total time  =        204 seconds =       3.40 minutes
                                     G D M A

                                 by Anthony Stone

                           version 2.2.06, 22 June 2011

               Distributed Multipoles from Gaussian wavefunctions

Starting at 17:23:31 on 26 Apr 2020

Using SCF density matrix from file ./SSI/SSI-087LEU-095PHE-1-dimer.test.18179.fchk

                         Distributed Multipole Analysis

Standard DMA

Positions and radii in angstrom
Multipole moments in atomic units, ea_0^k for rank k

C          x = -2.003708  y = -0.414810  z =  1.431595 angstrom
           Maximum rank =  0   Radius =  0.650 angstrom
                   Q00  =  -0.068545

C          x = -3.295708  y = -0.511810  z =  0.612595 angstrom
           Maximum rank =  0   Radius =  0.650 angstrom
                   Q00  =  -0.238279

C          x = -2.228708  y = -0.565810  z =  2.935595 angstrom
           Maximum rank =  0   Radius =  0.650 angstrom
                   Q00  =  -0.254293

H          x = -1.306708  y = -1.183810  z =  1.092595 angstrom
           Maximum rank =  0   Radius =  0.325 angstrom
                   Q00  =   0.055615

H          x = -1.547708  y =  0.560190  z =  1.249595 angstrom
           Maximum rank =  0   Radius =  0.325 angstrom
                   Q00  =   0.047439

H          x = -4.029708  y =  0.176190  z =  1.030595 angstrom
           Maximum rank =  0   Radius =  0.325 angstrom
                   Q00  =   0.068356

H          x = -2.583708  y = -1.574810  z =  3.141595 angstrom
           Maximum rank =  0   Radius =  0.325 angstrom
                   Q00  =   0.071906

H          x = -3.727630  y = -1.523140  z =  0.638179 angstrom
           Maximum rank =  0   Radius =  0.325 angstrom
                   Q00  =   0.078431

H          x = -3.134187  y = -0.128650  z = -0.405786 angstrom
           Maximum rank =  0   Radius =  0.325 angstrom
                   Q00  =   0.083453

H          x = -1.292578  y = -0.421120  z =  3.494814 angstrom
           Maximum rank =  0   Radius =  0.325 angstrom
                   Q00  =   0.078919

H          x = -2.991548  y =  0.140280  z =  3.295466 angstrom
           Maximum rank =  0   Radius =  0.325 angstrom
                   Q00  =   0.074366

C          x =  0.839292  y =  2.024190  z = -2.442405 angstrom
           Maximum rank =  0   Radius =  0.650 angstrom
                   Q00  =  -0.208987

C          x =  1.474292  y =  0.219190  z =  0.851595 angstrom
           Maximum rank =  0   Radius =  0.650 angstrom
                   Q00  =  -0.070413

C          x =  1.258292  y =  1.228190  z = -0.078405 angstrom
           Maximum rank =  0   Radius =  0.650 angstrom
                   Q00  =  -0.056803

C          x =  1.485292  y = -1.112810  z =  0.444595 angstrom
           Maximum rank =  0   Radius =  0.650 angstrom
                   Q00  =  -0.090834

C          x =  1.075292  y =  0.925190  z = -1.427405 angstrom
           Maximum rank =  0   Radius =  0.650 angstrom
                   Q00  =  -0.097988

C          x =  1.289292  y = -1.428810  z = -0.894405 angstrom
           Maximum rank =  0   Radius =  0.650 angstrom
                   Q00  =  -0.068277

C          x =  1.082292  y = -0.412810  z = -1.823405 angstrom
           Maximum rank =  0   Radius =  0.650 angstrom
                   Q00  =  -0.012639

H          x =  1.621292  y =  0.466190  z =  1.894595 angstrom
           Maximum rank =  0   Radius =  0.325 angstrom
                   Q00  =   0.064262

H          x =  1.220292  y =  2.252190  z =  0.251595 angstrom
           Maximum rank =  0   Radius =  0.325 angstrom
                   Q00  =   0.054344

H          x =  1.649292  y = -1.898810  z =  1.169595 angstrom
           Maximum rank =  0   Radius =  0.325 angstrom
                   Q00  =   0.061037

H          x =  1.294292  y = -2.461810  z = -1.215405 angstrom
           Maximum rank =  0   Radius =  0.325 angstrom
                   Q00  =   0.065319

H          x = -0.138708  y =  2.454190  z = -2.255405 angstrom
           Maximum rank =  0   Radius =  0.325 angstrom
                   Q00  =   0.104289

H          x =  0.811292  y =  1.587190  z = -3.442405 angstrom
           Maximum rank =  0   Radius =  0.325 angstrom
                   Q00  =   0.097066

H          x =  0.937292  y = -0.667810  z = -2.864405 angstrom
           Maximum rank =  0   Radius =  0.325 angstrom
                   Q00  =   0.058760

H          x =  1.598552  y =  2.820050  z = -2.430923 angstrom
           Maximum rank =  0   Radius =  0.325 angstrom
                   Q00  =   0.103499

Total multipoles referred to origin at
           x =   0.000000,  y =    0.000000,  z =    0.000000 angstrom
                   Q00  =  -0.000000

Finished at 17:23:31 on 26 Apr 2020

  DMA results are available in the Python driver through the
	  variable('DMA DISTRIBUTED MULTIPOLES')
  and
	  variable('DMA TOTAL MULTIPOLES')
  commands.

    Psi4 stopped on: Sunday, 26 April 2020 05:23PM
    Psi4 wall time for execution: 0:03:24.33

*** Psi4 exiting successfully. Buy a developer a beer!
