                               Psi4 1.3.2 release

  ==> Input File <==

--------------------------------------------------------------------------
import numpy as np
set {scf_type pk
basis cc-pvdz
d_convergence 10
gdma_switch   0
gdma_limit    0
gdma_origin   [ 0.0,  0.0,  0.0 ]
}
molecule test {
    units Angstrom
    0 1
    --
    0 1
    C               -0.540283791097828     2.582165884619569    -0.557969171014653
    C                0.032716208902172     0.659165884619569     1.003030828985347
    C               -0.853283791097828     1.409165884619569     0.299030828985347
    C               -1.960283791097828    -0.284834115380431     1.383030828985347
    C               -2.142283791097828     0.833165884619569     0.530030828985347
    C               -3.033283791097828    -1.072834115380431     1.809030828985347
    C               -3.427283791097828     1.111165884619569     0.055030828985347
    C               -4.296283791097826    -0.752834115380431     1.342030828985347
    C               -4.492283791097828     0.322165884619569     0.463030828985347
    N               -0.621283791097828    -0.349834115380431     1.670030828985347
    H                1.105716208902172     0.815165884619569     1.021030828985347
    H               -0.159283791097828    -1.144834115380431     2.118030828985347
    H               -1.069283791097828     2.480165884619568    -1.504969171014653
    H                0.527716208902172     2.557165884619569    -0.779969171014653
    H               -2.872283791097828    -1.911834115380431     2.472030828985347
    H               -3.558283791097828     1.902165884619569    -0.652969171014653
    H               -5.146283791097828    -1.350834115380431     1.645030828985347
    H               -5.490283791097827     0.538165884619569     0.106030828985347
    H               -0.785483791097828     3.555775884619569    -0.108559171014653
    C                4.264716208902173     1.357165884619569    -1.620969171014653
    C                1.438716208902172    -1.161834115380431    -1.481969171014653
    C                2.148716208902172     0.003165884619569    -1.750969171014653
    C                2.039716208902172    -2.181834115380431    -0.743969171014653
    C                3.462716208902172     0.128165884619569    -1.303969171014653
    C                3.339716208902173    -2.071834115380431    -0.327969171014653
    C                4.037716208902172    -0.906834115380431    -0.580969171014653
    H                0.417716208902172    -1.269834115380431    -1.818969171014653
    H                1.684716208902172     0.796165884619569    -2.320969171014653
    H                1.480716208902172    -3.080834115380431    -0.522969171014653
    H                3.802716208902172    -2.876834115380431     0.226030828985347
    H                4.053716208902173     1.640165884619569    -2.653969171014653
    H                5.331716208902174     1.137165884619569    -1.561969171014653
    H                5.052716208902172    -0.813834115380431    -0.217969171014653
    H                4.024376208902171     2.213055884619569    -0.973129171014653

}
e, wfn = energy('scf', return_wfn=True)
gdma(wfn)
dmavals = variable('DMA DISTRIBUTED MULTIPOLES')
charges = np.array(dmavals)
print(charges)
np.save('SSI-008TRP-250PHE-1-dimer.npy', np.array(charges))--------------------------------------------------------------------------

*** tstart() called on ds3
*** at Mon Apr 27 14:24:03 2020

   => Loading Basis Set <=

    Name: CC-PVDZ
    Role: ORBITAL
    Keyword: BASIS
    atoms 1-9, 20-26   entry C          line   138 file /theoryfs2/ds/metcalf/miniconda2/envs/tf2gpu/share/psi4/basis/cc-pvdz.gbs
    atoms 10           entry N          line   168 file /theoryfs2/ds/metcalf/miniconda2/envs/tf2gpu/share/psi4/basis/cc-pvdz.gbs
    atoms 11-19, 27-34 entry H          line    22 file /theoryfs2/ds/metcalf/miniconda2/envs/tf2gpu/share/psi4/basis/cc-pvdz.gbs

         ---------------------------------------------------------
                                   SCF
               by Justin Turney, Rob Parrish, Andy Simmonett
                          and Daniel G. A. Smith
                              RHF Reference
                        1 Threads,    500 MiB Core
         ---------------------------------------------------------

  ==> Geometry <==

    Molecular point group: c1
    Full point group: C1

    Geometry (in Angstrom), charge = 0, multiplicity = 1:

       Center              X                  Y                   Z               Mass
    ------------   -----------------  -----------------  -----------------  -----------------
         C           -0.540283791098     2.582165884620    -0.557969171015    12.000000000000
         C            0.032716208902     0.659165884620     1.003030828985    12.000000000000
         C           -0.853283791098     1.409165884620     0.299030828985    12.000000000000
         C           -1.960283791098    -0.284834115380     1.383030828985    12.000000000000
         C           -2.142283791098     0.833165884620     0.530030828985    12.000000000000
         C           -3.033283791098    -1.072834115380     1.809030828985    12.000000000000
         C           -3.427283791098     1.111165884620     0.055030828985    12.000000000000
         C           -4.296283791098    -0.752834115380     1.342030828985    12.000000000000
         C           -4.492283791098     0.322165884620     0.463030828985    12.000000000000
         N           -0.621283791098    -0.349834115380     1.670030828985    14.003074004430
         H            1.105716208902     0.815165884620     1.021030828985     1.007825032230
         H           -0.159283791098    -1.144834115380     2.118030828985     1.007825032230
         H           -1.069283791098     2.480165884620    -1.504969171015     1.007825032230
         H            0.527716208902     2.557165884620    -0.779969171015     1.007825032230
         H           -2.872283791098    -1.911834115380     2.472030828985     1.007825032230
         H           -3.558283791098     1.902165884620    -0.652969171015     1.007825032230
         H           -5.146283791098    -1.350834115380     1.645030828985     1.007825032230
         H           -5.490283791098     0.538165884620     0.106030828985     1.007825032230
         H           -0.785483791098     3.555775884620    -0.108559171015     1.007825032230
         C            4.264716208902     1.357165884620    -1.620969171015    12.000000000000
         C            1.438716208902    -1.161834115380    -1.481969171015    12.000000000000
         C            2.148716208902     0.003165884620    -1.750969171015    12.000000000000
         C            2.039716208902    -2.181834115380    -0.743969171015    12.000000000000
         C            3.462716208902     0.128165884620    -1.303969171015    12.000000000000
         C            3.339716208902    -2.071834115380    -0.327969171015    12.000000000000
         C            4.037716208902    -0.906834115380    -0.580969171015    12.000000000000
         H            0.417716208902    -1.269834115380    -1.818969171015     1.007825032230
         H            1.684716208902     0.796165884620    -2.320969171015     1.007825032230
         H            1.480716208902    -3.080834115380    -0.522969171015     1.007825032230
         H            3.802716208902    -2.876834115380     0.226030828985     1.007825032230
         H            4.053716208902     1.640165884620    -2.653969171015     1.007825032230
         H            5.331716208902     1.137165884620    -1.561969171015     1.007825032230
         H            5.052716208902    -0.813834115380    -0.217969171015     1.007825032230
         H            4.024376208902     2.213055884620    -0.973129171015     1.007825032230

  Running in c1 symmetry.

  Rotational constants: A =      0.03275  B =      0.00789  C =      0.00697 [cm^-1]
  Rotational constants: A =    981.67488  B =    236.48053  C =    208.99910 [MHz]
  Nuclear repulsion = 1085.052857631710594

  Charge       = 0
  Multiplicity = 1
  Electrons    = 120
  Nalpha       = 60
  Nbeta        = 60

  ==> Algorithm <==

  SCF Algorithm Type is PK.
  DIIS enabled.
  MOM disabled.
  Fractional occupation disabled.
  Guess Type is SAD.
  Energy threshold   = 1.00e-06
  Density threshold  = 1.00e-10
  Integral threshold = 0.00e+00

  ==> Primary Basis <==

  Basis Set: CC-PVDZ
    Blend: CC-PVDZ
    Number of shells: 153
    Number of basis function: 323
    Number of Cartesian functions: 340
    Spherical Harmonics?: true
    Max angular momentum: 2

  ==> Pre-Iterations <==

   -------------------------------------------------------
    Irrep   Nso     Nmo     Nalpha   Nbeta   Ndocc  Nsocc
   -------------------------------------------------------
     A        323     323       0       0       0       0
   -------------------------------------------------------
    Total     323     323      60      60      60       0
   -------------------------------------------------------

  ==> Integral Setup <==

  Using integral reordering PK algorithm.
  Sizing the integral batches needed.
  Building batch lookup table.
   Calculation information:
      Number of atoms:                  34
      Number of AO shells:             153
      Number of primitives:            459
      Number of atomic orbitals:       340
      Number of basis functions:       323

      Integral cutoff                 1.00e-12
      Number of threads:                 1

	Batch   1 pq = [       0,    9405] index = [             0,44231715] size =     44231715
	Batch   2 pq = [    9405,   13301] index = [      44231715,88464951] size =     44233236
	Batch   3 pq = [   13301,   16290] index = [      88464951,132690195] size =     44225244
	Batch   4 pq = [   16290,   18810] index = [     132690195,176917455] size =     44227260
	Batch   5 pq = [   18810,   21030] index = [     176917455,221140965] size =     44223510
	Batch   6 pq = [   21030,   23037] index = [     221140965,265363203] size =     44222238
	Batch   7 pq = [   23037,   24883] index = [     265363203,309594286] size =     44231083
	Batch   8 pq = [   24883,   26601] index = [     309594286,353819901] size =     44225615
	Batch   9 pq = [   26601,   28214] index = [     353819901,398029005] size =     44209104
	Batch  10 pq = [   28214,   29740] index = [     398029005,442248670] size =     44219665
	Batch  11 pq = [   29740,   31191] index = [     442248670,486454836] size =     44206166
	Batch  12 pq = [   31191,   32578] index = [     486454836,530679331] size =     44224495
	Batch  13 pq = [   32578,   33908] index = [     530679331,574893186] size =     44213855
	Batch  14 pq = [   33908,   35188] index = [     574893186,619115266] size =     44222080
	Batch  15 pq = [   35188,   36423] index = [     619115266,663335676] size =     44220410
	Batch  16 pq = [   36423,   37617] index = [     663335676,707538153] size =     44202477
	Batch  17 pq = [   37617,   38775] index = [     707538153,751769700] size =     44231547
	Batch  18 pq = [   38775,   39899] index = [     751769700,795985050] size =     44215350
	Batch  19 pq = [   39899,   40992] index = [     795985050,840192528] size =     44207478
	Batch  20 pq = [   40992,   42057] index = [     840192528,884416653] size =     44224125
	Batch  21 pq = [   42057,   43095] index = [     884416653,928611060] size =     44194407
	Batch  22 pq = [   43095,   44109] index = [     928611060,972823995] size =     44212935
	Batch  23 pq = [   44109,   45100] index = [     972823995,1017027550] size =     44203555
	Batch  24 pq = [   45100,   46070] index = [    1017027550,1061245485] size =     44217935
	Batch  25 pq = [   46070,   47020] index = [    1061245485,1105463710] size =     44218225
	Batch  26 pq = [   47020,   47951] index = [    1105463710,1149673176] size =     44209466
	Batch  27 pq = [   47951,   48864] index = [    1149673176,1193869680] size =     44196504
	Batch  28 pq = [   48864,   49761] index = [    1193869680,1238103441] size =     44233761
	Batch  29 pq = [   49761,   50642] index = [    1238103441,1282331403] size =     44227962
	Batch  30 pq = [   50642,   51508] index = [    1282331403,1326562786] size =     44231383
	Batch  31 pq = [   51508,   52326] index = [    1326562786,1369031301] size =     42468515
  Task number: 124
  Buffer size: 11059200
  Buffer per thread: 2
  We computed 76192817 shell quartets total.
  Whereas there are 69401871 unique shell quartets.
     9.78 percent of shell quartets recomputed by reordering.

  ==> DiskJK: Disk-Based J/K Matrices <==

    J tasked:                  Yes
    K tasked:                  Yes
    wK tasked:                  No
    Memory [MiB]:              375
    Schwarz Cutoff:          1E-12

    OpenMP threads:              1

  Minimum eigenvalue in the overlap matrix is 2.3760886148E-04.
  Using Symmetric Orthogonalization.

  SCF Guess: Superposition of Atomic Densities via on-the-fly atomic UHF.

  ==> Iterations <==

                        Total Energy        Delta E     RMS |[F,P]|

   @RHF iter SAD:  -669.67293431509893   -6.69673e+02   0.00000e+00
   @RHF iter   1:  -669.94612591745658   -2.73192e-01   2.16444e-03 DIIS
   @RHF iter   2:  -670.24096053214680   -2.94835e-01   9.30804e-04 DIIS
   @RHF iter   3:  -670.28909998919653   -4.81395e-02   2.47648e-04 DIIS
   @RHF iter   4:  -670.29353882065618   -4.43883e-03   1.11453e-04 DIIS
   @RHF iter   5:  -670.29426147688230   -7.22656e-04   1.69374e-05 DIIS
   @RHF iter   6:  -670.29429417860649   -3.27017e-05   7.01462e-06 DIIS
   @RHF iter   7:  -670.29430043476066   -6.25615e-06   2.72926e-06 DIIS
   @RHF iter   8:  -670.29430191327697   -1.47852e-06   1.09562e-06 DIIS
   @RHF iter   9:  -670.29430219439234   -2.81115e-07   4.93616e-07 DIIS
   @RHF iter  10:  -670.29430225124065   -5.68483e-08   2.14499e-07 DIIS
   @RHF iter  11:  -670.29430226654199   -1.53013e-08   8.86727e-08 DIIS
   @RHF iter  12:  -670.29430226886655   -2.32455e-09   3.37700e-08 DIIS
   @RHF iter  13:  -670.29430226911245   -2.45905e-10   1.07412e-08 DIIS
   @RHF iter  14:  -670.29430226912586   -1.34150e-11   4.07979e-09 DIIS
   @RHF iter  15:  -670.29430226912223    3.63798e-12   1.84061e-09 DIIS
   @RHF iter  16:  -670.29430226912075    1.47793e-12   8.72125e-10 DIIS
   @RHF iter  17:  -670.29430226913803   -1.72804e-11   3.96230e-10 DIIS
   @RHF iter  18:  -670.29430226912712    1.09139e-11   1.49462e-10 DIIS
   @RHF iter  19:  -670.29430226914167   -1.45519e-11   5.82986e-11 DIIS
  Energy and wave function converged.

  ==> Post-Iterations <==

    Orbital Energies [Eh]
    ---------------------

    Doubly Occupied:

       1A    -15.597047     2A    -11.259917     3A    -11.258043
       4A    -11.243142     5A    -11.237381     6A    -11.235848
       7A    -11.232772     8A    -11.232360     9A    -11.231558
      10A    -11.231334    11A    -11.228547    12A    -11.226171
      13A    -11.225226    14A    -11.223804    15A    -11.218133
      16A    -11.215376    17A    -11.210134    18A     -1.290503
      19A     -1.160459    20A     -1.125286    21A     -1.071580
      22A     -1.050133    23A     -1.017477    24A     -0.994286
      25A     -0.984554    26A     -0.934972    27A     -0.928296
      28A     -0.835753    29A     -0.829364    30A     -0.800167
      31A     -0.798770    32A     -0.749349    33A     -0.714525
      34A     -0.695718    35A     -0.659414    36A     -0.639438
      37A     -0.636769    38A     -0.632224    39A     -0.600023
      40A     -0.592673    41A     -0.587550    42A     -0.583813
      43A     -0.580576    44A     -0.565021    45A     -0.563134
      46A     -0.550520    47A     -0.537965    48A     -0.535907
      49A     -0.524814    50A     -0.494445    51A     -0.491151
      52A     -0.487744    53A     -0.484318    54A     -0.467277
      55A     -0.458631    56A     -0.370195    57A     -0.337545
      58A     -0.327007    59A     -0.291599    60A     -0.271069

    Virtual:

      61A      0.129069    62A      0.130669    63A      0.139183
      64A      0.167809    65A      0.172448    66A      0.181147
      67A      0.195065    68A      0.197319    69A      0.208152
      70A      0.223733    71A      0.228800    72A      0.235919
      73A      0.239306    74A      0.250819    75A      0.254042
      76A      0.264827    77A      0.268190    78A      0.281303
      79A      0.282405    80A      0.290638    81A      0.299614
      82A      0.326024    83A      0.363855    84A      0.376910
      85A      0.382932    86A      0.387757    87A      0.412830
      88A      0.423708    89A      0.448223    90A      0.452056
      91A      0.461278    92A      0.475775    93A      0.480052
      94A      0.485275    95A      0.489831    96A      0.504012
      97A      0.519657    98A      0.561959    99A      0.576159
     100A      0.601775   101A      0.613345   102A      0.628127
     103A      0.634538   104A      0.641490   105A      0.662748
     106A      0.675545   107A      0.684668   108A      0.694275
     109A      0.699651   110A      0.704812   111A      0.708959
     112A      0.720917   113A      0.727463   114A      0.730400
     115A      0.736592   116A      0.739928   117A      0.743244
     118A      0.745613   119A      0.750365   120A      0.757265
     121A      0.760179   122A      0.766346   123A      0.769747
     124A      0.773563   125A      0.777351   126A      0.792305
     127A      0.804106   128A      0.809925   129A      0.828128
     130A      0.840817   131A      0.849500   132A      0.856131
     133A      0.859040   134A      0.862803   135A      0.878309
     136A      0.881456   137A      0.888815   138A      0.895120
     139A      0.896327   140A      0.899133   141A      0.905645
     142A      0.914658   143A      0.925333   144A      0.932340
     145A      0.938131   146A      0.947393   147A      0.959148
     148A      0.961624   149A      0.976190   150A      0.988154
     151A      0.997332   152A      1.002073   153A      1.011605
     154A      1.025663   155A      1.032059   156A      1.044665
     157A      1.066800   158A      1.074897   159A      1.089448
     160A      1.120664   161A      1.124198   162A      1.134254
     163A      1.141126   164A      1.148071   165A      1.153914
     166A      1.160342   167A      1.163221   168A      1.173788
     169A      1.197690   170A      1.206928   171A      1.213871
     172A      1.224148   173A      1.234154   174A      1.240473
     175A      1.249722   176A      1.257175   177A      1.269414
     178A      1.271947   179A      1.284772   180A      1.290481
     181A      1.304987   182A      1.319674   183A      1.322922
     184A      1.326571   185A      1.331278   186A      1.341211
     187A      1.347906   188A      1.372664   189A      1.392041
     190A      1.409421   191A      1.432273   192A      1.454575
     193A      1.508905   194A      1.518764   195A      1.537144
     196A      1.561014   197A      1.569785   198A      1.578942
     199A      1.594794   200A      1.608955   201A      1.635100
     202A      1.654343   203A      1.657098   204A      1.681829
     205A      1.687231   206A      1.696073   207A      1.705283
     208A      1.733021   209A      1.746889   210A      1.748868
     211A      1.762623   212A      1.768168   213A      1.781372
     214A      1.788808   215A      1.805686   216A      1.816465
     217A      1.824856   218A      1.840300   219A      1.851784
     220A      1.866377   221A      1.881939   222A      1.885634
     223A      1.890671   224A      1.906177   225A      1.908163
     226A      1.913222   227A      1.921468   228A      1.922998
     229A      1.930064   230A      1.936313   231A      1.939054
     232A      1.944275   233A      1.953227   234A      1.954066
     235A      1.964490   236A      1.973481   237A      1.987383
     238A      1.993038   239A      1.993746   240A      2.005438
     241A      2.013665   242A      2.020851   243A      2.040197
     244A      2.057808   245A      2.061108   246A      2.073577
     247A      2.079897   248A      2.089225   249A      2.102015
     250A      2.112731   251A      2.114876   252A      2.119835
     253A      2.129432   254A      2.145247   255A      2.158379
     256A      2.163190   257A      2.168398   258A      2.170692
     259A      2.174851   260A      2.186079   261A      2.187053
     262A      2.191850   263A      2.233473   264A      2.245877
     265A      2.258920   266A      2.276551   267A      2.293542
     268A      2.300957   269A      2.308203   270A      2.311684
     271A      2.324268   272A      2.334098   273A      2.338484
     274A      2.343473   275A      2.362356   276A      2.411327
     277A      2.425149   278A      2.460662   279A      2.463286
     280A      2.474911   281A      2.486667   282A      2.505134
     283A      2.532985   284A      2.548751   285A      2.597780
     286A      2.611909   287A      2.627649   288A      2.636401
     289A      2.663784   290A      2.688993   291A      2.727787
     292A      2.738784   293A      2.755931   294A      2.764970
     295A      2.772439   296A      2.787409   297A      2.793945
     298A      2.799507   299A      2.811312   300A      2.813852
     301A      2.847315   302A      2.852513   303A      2.877187
     304A      2.886355   305A      2.897209   306A      2.927362
     307A      2.984346   308A      2.991251   309A      3.020326
     310A      3.033201   311A      3.038328   312A      3.068247
     313A      3.085149   314A      3.129234   315A      3.164153
     316A      3.208825   317A      3.211098   318A      3.311643
     319A      3.319300   320A      3.382767   321A      3.732369
     322A      3.958588   323A      3.988384

    Final Occupation by Irrep:
              A
    DOCC [    60 ]

  @RHF Final Energy:  -670.29430226914167

   => Energetics <=

    Nuclear Repulsion Energy =           1085.0528576317105944
    One-Electron Energy =               -3061.5767035918438523
    Two-Electron Energy =                1306.2295436909917044
    Total Energy =                       -670.2943022691415536

Computation Completed

Properties will be evaluated at   0.000000,   0.000000,   0.000000 [a0]

Properties computed using the SCF density matrix

  Nuclear Dipole Moment: [e a0]
     X:     7.8771      Y:     4.8630      Z:    -5.1874

  Electronic Dipole Moment: [e a0]
     X:    -7.0463      Y:    -5.1454      Z:     5.3053

  Dipole Moment: [e a0]
     X:     0.8308      Y:    -0.2824      Z:     0.1179     Total:     0.8854

  Dipole Moment: [D]
     X:     2.1117      Y:    -0.7177      Z:     0.2996     Total:     2.2504

*** tstop() called on ds3 at Mon Apr 27 16:02:32 2020
Module time:
	user time   =     699.05 seconds =      11.65 minutes
	system time =     256.08 seconds =       4.27 minutes
	total time  =       5909 seconds =      98.48 minutes
Total time:
	user time   =     699.05 seconds =      11.65 minutes
	system time =     256.08 seconds =       4.27 minutes
	total time  =       5909 seconds =      98.48 minutes
                                     G D M A

                                 by Anthony Stone

                           version 2.2.06, 22 June 2011

               Distributed Multipoles from Gaussian wavefunctions

Starting at 16:2:32 on 27 Apr 2020

Using SCF density matrix from file ./SSI/SSI-008TRP-250PHE-1-dimer.test.9247.fchk

                         Distributed Multipole Analysis

Standard DMA

Positions and radii in angstrom
Multipole moments in atomic units, ea_0^k for rank k

C          x = -0.540284  y =  2.582166  z = -0.557969 angstrom
           Maximum rank =  0   Radius =  0.650 angstrom
                   Q00  =  -0.208726

C          x =  0.032716  y =  0.659166  z =  1.003031 angstrom
           Maximum rank =  0   Radius =  0.650 angstrom
                   Q00  =   0.091416

C          x = -0.853284  y =  1.409166  z =  0.299031 angstrom
           Maximum rank =  0   Radius =  0.650 angstrom
                   Q00  =  -0.133985

C          x = -1.960284  y = -0.284834  z =  1.383031 angstrom
           Maximum rank =  0   Radius =  0.650 angstrom
                   Q00  =   0.252475

C          x = -2.142284  y =  0.833166  z =  0.530031 angstrom
           Maximum rank =  0   Radius =  0.650 angstrom
                   Q00  =  -0.051418

C          x = -3.033284  y = -1.072834  z =  1.809031 angstrom
           Maximum rank =  0   Radius =  0.650 angstrom
                   Q00  =  -0.117304

C          x = -3.427284  y =  1.111166  z =  0.055031 angstrom
           Maximum rank =  0   Radius =  0.650 angstrom
                   Q00  =  -0.097367

C          x = -4.296284  y = -0.752834  z =  1.342031 angstrom
           Maximum rank =  0   Radius =  0.650 angstrom
                   Q00  =  -0.035898

C          x = -4.492284  y =  0.322166  z =  0.463031 angstrom
           Maximum rank =  0   Radius =  0.650 angstrom
                   Q00  =  -0.087455

N          x = -0.621284  y = -0.349834  z =  1.670031 angstrom
           Maximum rank =  0   Radius =  0.650 angstrom
                   Q00  =  -0.488109

H          x =  1.105716  y =  0.815166  z =  1.021031 angstrom
           Maximum rank =  0   Radius =  0.325 angstrom
                   Q00  =   0.104451

H          x = -0.159284  y = -1.144834  z =  2.118031 angstrom
           Maximum rank =  0   Radius =  0.325 angstrom
                   Q00  =   0.217702

H          x = -1.069284  y =  2.480166  z = -1.504969 angstrom
           Maximum rank =  0   Radius =  0.325 angstrom
                   Q00  =   0.095682

H          x =  0.527716  y =  2.557166  z = -0.779969 angstrom
           Maximum rank =  0   Radius =  0.325 angstrom
                   Q00  =   0.099013

H          x = -2.872284  y = -1.911834  z =  2.472031 angstrom
           Maximum rank =  0   Radius =  0.325 angstrom
                   Q00  =   0.071098

H          x = -3.558284  y =  1.902166  z = -0.652969 angstrom
           Maximum rank =  0   Radius =  0.325 angstrom
                   Q00  =   0.067423

H          x = -5.146284  y = -1.350834  z =  1.645031 angstrom
           Maximum rank =  0   Radius =  0.325 angstrom
                   Q00  =   0.063191

H          x = -5.490284  y =  0.538166  z =  0.106031 angstrom
           Maximum rank =  0   Radius =  0.325 angstrom
                   Q00  =   0.058926

H          x = -0.785484  y =  3.555776  z = -0.108559 angstrom
           Maximum rank =  0   Radius =  0.325 angstrom
                   Q00  =   0.098907

C          x =  4.264716  y =  1.357166  z = -1.620969 angstrom
           Maximum rank =  0   Radius =  0.650 angstrom
                   Q00  =  -0.202419

C          x =  1.438716  y = -1.161834  z = -1.481969 angstrom
           Maximum rank =  0   Radius =  0.650 angstrom
                   Q00  =  -0.058298

C          x =  2.148716  y =  0.003166  z = -1.750969 angstrom
           Maximum rank =  0   Radius =  0.650 angstrom
                   Q00  =  -0.097900

C          x =  2.039716  y = -2.181834  z = -0.743969 angstrom
           Maximum rank =  0   Radius =  0.650 angstrom
                   Q00  =  -0.070077

C          x =  3.462716  y =  0.128166  z = -1.303969 angstrom
           Maximum rank =  0   Radius =  0.650 angstrom
                   Q00  =  -0.110791

C          x =  3.339716  y = -2.071834  z = -0.327969 angstrom
           Maximum rank =  0   Radius =  0.650 angstrom
                   Q00  =  -0.062732

C          x =  4.037716  y = -0.906834  z = -0.580969 angstrom
           Maximum rank =  0   Radius =  0.650 angstrom
                   Q00  =  -0.006114

H          x =  0.417716  y = -1.269834  z = -1.818969 angstrom
           Maximum rank =  0   Radius =  0.325 angstrom
                   Q00  =   0.076131

H          x =  1.684716  y =  0.796166  z = -2.320969 angstrom
           Maximum rank =  0   Radius =  0.325 angstrom
                   Q00  =   0.059997

H          x =  1.480716  y = -3.080834  z = -0.522969 angstrom
           Maximum rank =  0   Radius =  0.325 angstrom
                   Q00  =   0.056150

H          x =  3.802716  y = -2.876834  z =  0.226031 angstrom
           Maximum rank =  0   Radius =  0.325 angstrom
                   Q00  =   0.061383

H          x =  4.053716  y =  1.640166  z = -2.653969 angstrom
           Maximum rank =  0   Radius =  0.325 angstrom
                   Q00  =   0.098655

H          x =  5.331716  y =  1.137166  z = -1.561969 angstrom
           Maximum rank =  0   Radius =  0.325 angstrom
                   Q00  =   0.099759

H          x =  5.052716  y = -0.813834  z = -0.217969 angstrom
           Maximum rank =  0   Radius =  0.325 angstrom
                   Q00  =   0.054892

H          x =  4.024376  y =  2.213056  z = -0.973129 angstrom
           Maximum rank =  0   Radius =  0.325 angstrom
                   Q00  =   0.101340

Total multipoles referred to origin at
           x =   0.000000,  y =    0.000000,  z =    0.000000 angstrom
                   Q00  =  -0.000000

Finished at 16:2:32 on 27 Apr 2020

  DMA results are available in the Python driver through the
	  variable('DMA DISTRIBUTED MULTIPOLES')
  and
	  variable('DMA TOTAL MULTIPOLES')
  commands.

    Psi4 stopped on: Monday, 27 April 2020 04:02PM
    Psi4 wall time for execution: 1:38:29.01

*** Psi4 exiting successfully. Buy a developer a beer!
