                               Psi4 1.3.2 release

  ==> Input File <==

--------------------------------------------------------------------------
import numpy as np
set {scf_type pk
basis cc-pvdz
d_convergence 10
gdma_switch   0
gdma_limit    0
gdma_origin   [ 0.0,  0.0,  0.0 ]
}
molecule test {
    units Angstrom
    0 1
    --
    0 1
    C               -1.466130996542886     1.512650998873667    -0.864627590125864
    C               -2.470130996542886     0.442650998873667    -0.270627590125864
    H               -1.860130996542886     2.508650998873667    -0.678627590125864
    H               -0.505130996542886     1.413650998873667    -0.363627590125864
    H               -1.314130996542886     1.353650998873667    -1.932627590125864
    H               -2.097130996542886    -0.555349001126333    -0.493627590125864
    H               -3.489020996542886     0.557290998873667    -0.669013590125864
    H               -2.543620996542886     0.542080998873667     0.822401409874136
    C                1.315869003457114    -0.674349001126333     0.325372409874136
    C                2.625869003457114    -1.282349001126333     0.804372409874136
    H                0.526869003457114    -1.427349001126333     0.302372409874136
    H                1.005869003457114     0.111650998873667     1.013372409874136
    H                1.431869003457114    -0.249349001126333    -0.673627590125864
    H                2.483869003457114    -1.716349001126333     1.788372409874136
    H                2.940249003457114    -2.061409001126333     0.094285409874136
    H                3.355239003457114    -0.460549001126333     0.855958409874136

}
e, wfn = energy('scf', return_wfn=True)
gdma(wfn)
dmavals = variable('DMA DISTRIBUTED MULTIPOLES')
charges = np.array(dmavals)
print(charges)
np.save('SSI-162LEU-203VAL-1-dimer.npy', np.array(charges))--------------------------------------------------------------------------

*** tstart() called on ds3
*** at Sun Apr 26 20:01:47 2020

   => Loading Basis Set <=

    Name: CC-PVDZ
    Role: ORBITAL
    Keyword: BASIS
    atoms 1-2, 9-10  entry C          line   138 file /theoryfs2/ds/metcalf/miniconda2/envs/tf2gpu/share/psi4/basis/cc-pvdz.gbs
    atoms 3-8, 11-16 entry H          line    22 file /theoryfs2/ds/metcalf/miniconda2/envs/tf2gpu/share/psi4/basis/cc-pvdz.gbs

         ---------------------------------------------------------
                                   SCF
               by Justin Turney, Rob Parrish, Andy Simmonett
                          and Daniel G. A. Smith
                              RHF Reference
                        1 Threads,    500 MiB Core
         ---------------------------------------------------------

  ==> Geometry <==

    Molecular point group: c1
    Full point group: C1

    Geometry (in Angstrom), charge = 0, multiplicity = 1:

       Center              X                  Y                   Z               Mass
    ------------   -----------------  -----------------  -----------------  -----------------
         C           -1.466130996543     1.512650998874    -0.864627590126    12.000000000000
         C           -2.470130996543     0.442650998874    -0.270627590126    12.000000000000
         H           -1.860130996543     2.508650998874    -0.678627590126     1.007825032230
         H           -0.505130996543     1.413650998874    -0.363627590126     1.007825032230
         H           -1.314130996543     1.353650998874    -1.932627590126     1.007825032230
         H           -2.097130996543    -0.555349001126    -0.493627590126     1.007825032230
         H           -3.489020996543     0.557290998874    -0.669013590126     1.007825032230
         H           -2.543620996543     0.542080998874     0.822401409874     1.007825032230
         C            1.315869003457    -0.674349001126     0.325372409874    12.000000000000
         C            2.625869003457    -1.282349001126     0.804372409874    12.000000000000
         H            0.526869003457    -1.427349001126     0.302372409874     1.007825032230
         H            1.005869003457     0.111650998874     1.013372409874     1.007825032230
         H            1.431869003457    -0.249349001126    -0.673627590126     1.007825032230
         H            2.483869003457    -1.716349001126     1.788372409874     1.007825032230
         H            2.940249003457    -2.061409001126     0.094285409874     1.007825032230
         H            3.355239003457    -0.460549001126     0.855958409874     1.007825032230

  Running in c1 symmetry.

  Rotational constants: A =      0.52068  B =      0.04945  C =      0.04679 [cm^-1]
  Rotational constants: A =  15609.56719  B =   1482.56953  C =   1402.67194 [MHz]
  Nuclear repulsion =  122.281485334108282

  Charge       = 0
  Multiplicity = 1
  Electrons    = 36
  Nalpha       = 18
  Nbeta        = 18

  ==> Algorithm <==

  SCF Algorithm Type is PK.
  DIIS enabled.
  MOM disabled.
  Fractional occupation disabled.
  Guess Type is SAD.
  Energy threshold   = 1.00e-06
  Density threshold  = 1.00e-10
  Integral threshold = 0.00e+00

  ==> Primary Basis <==

  Basis Set: CC-PVDZ
    Blend: CC-PVDZ
    Number of shells: 60
    Number of basis function: 116
    Number of Cartesian functions: 120
    Spherical Harmonics?: true
    Max angular momentum: 2

  ==> Pre-Iterations <==

   -------------------------------------------------------
    Irrep   Nso     Nmo     Nalpha   Nbeta   Ndocc  Nsocc
   -------------------------------------------------------
     A        116     116       0       0       0       0
   -------------------------------------------------------
    Total     116     116      18      18      18       0
   -------------------------------------------------------

  ==> Integral Setup <==

  Using integral reordering PK algorithm.
  Sizing the integral batches needed.
  Building batch lookup table.
   Calculation information:
      Number of atoms:                  16
      Number of AO shells:              60
      Number of primitives:            148
      Number of atomic orbitals:       120
      Number of basis functions:       116

      Integral cutoff                 1.00e-12
      Number of threads:                 1

	Batch   1 pq = [       0,    6786] index = [             0,23028291] size =     23028291
  Task number: 3
  Buffer size: 11059200
  Buffer per thread: 2
  We computed 1437347 shell quartets total.
  Whereas there are 1675365 unique shell quartets.

  ==> DiskJK: Disk-Based J/K Matrices <==

    J tasked:                  Yes
    K tasked:                  Yes
    wK tasked:                  No
    Memory [MiB]:              375
    Schwarz Cutoff:          1E-12

    OpenMP threads:              1

  Minimum eigenvalue in the overlap matrix is 6.3371523701E-03.
  Using Symmetric Orthogonalization.

  SCF Guess: Superposition of Atomic Densities via on-the-fly atomic UHF.

  ==> Iterations <==

                        Total Energy        Delta E     RMS |[F,P]|

   @RHF iter SAD:  -157.28425070846293   -1.57284e+02   0.00000e+00
   @RHF iter   1:  -158.30987959214056   -1.02563e+00   4.14442e-03 DIIS
   @RHF iter   2:  -158.44035313406573   -1.30474e-01   1.74496e-03 DIIS
   @RHF iter   3:  -158.46259054349537   -2.22374e-02   3.45991e-04 DIIS
   @RHF iter   4:  -158.46438371787835   -1.79317e-03   3.88190e-05 DIIS
   @RHF iter   5:  -158.46440708189880   -2.33640e-05   7.48685e-06 DIIS
   @RHF iter   6:  -158.46440780457431   -7.22676e-07   1.82391e-06 DIIS
   @RHF iter   7:  -158.46440783554718   -3.09729e-08   3.09137e-07 DIIS
   @RHF iter   8:  -158.46440783665582   -1.10865e-09   4.30705e-08 DIIS
   @RHF iter   9:  -158.46440783668382   -2.79954e-11   9.89154e-09 DIIS
   @RHF iter  10:  -158.46440783668561   -1.79057e-12   2.75097e-09 DIIS
   @RHF iter  11:  -158.46440783668581   -1.98952e-13   7.77353e-10 DIIS
   @RHF iter  12:  -158.46440783668567    1.42109e-13   1.71854e-10 DIIS
   @RHF iter  13:  -158.46440783668572   -5.68434e-14   2.49400e-11 DIIS
  Energy and wave function converged.

  ==> Post-Iterations <==

    Orbital Energies [Eh]
    ---------------------

    Doubly Occupied:

       1A    -11.221691     2A    -11.219271     3A    -11.219150
       4A    -11.216568     5A     -1.021922     6A     -1.003699
       7A     -0.841710     8A     -0.835228     9A     -0.601716
      10A     -0.601446    11A     -0.593607    12A     -0.586683
      13A     -0.502894    14A     -0.494206    15A     -0.488559
      16A     -0.487074    17A     -0.484835    18A     -0.481342

    Virtual:

      19A      0.173346    20A      0.195208    21A      0.225560
      22A      0.234193    23A      0.242639    24A      0.262908
      25A      0.267511    26A      0.273960    27A      0.281041
      28A      0.286886    29A      0.324201    30A      0.332466
      31A      0.383294    32A      0.401777    33A      0.562827
      34A      0.587203    35A      0.602327    36A      0.605848
      37A      0.618113    38A      0.657427    39A      0.669805
      40A      0.694293    41A      0.721179    42A      0.745077
      43A      0.817823    44A      0.857956    45A      0.884387
      46A      0.891972    47A      0.896107    48A      0.898410
      49A      0.906260    50A      0.910978    51A      0.914631
      52A      0.923378    53A      0.943430    54A      0.951332
      55A      0.977824    56A      1.000615    57A      1.120411
      58A      1.126391    59A      1.127437    60A      1.153161
      61A      1.231640    62A      1.263937    63A      1.455180
      64A      1.465873    65A      1.480318    66A      1.487052
      67A      1.563267    68A      1.579077    69A      1.671643
      70A      1.691087    71A      1.693078    72A      1.696773
      73A      1.836973    74A      1.842706    75A      1.858277
      76A      1.879787    77A      1.897167    78A      1.921440
      79A      1.931213    80A      1.932405    81A      1.937999
      82A      1.947077    83A      1.950843    84A      1.963758
      85A      1.965610    86A      1.967162    87A      1.982972
      88A      2.038234    89A      2.091610    90A      2.100194
      91A      2.116218    92A      2.120482    93A      2.282669
      94A      2.302147    95A      2.312655    96A      2.328674
      97A      2.444692    98A      2.458163    99A      2.460965
     100A      2.469555   101A      2.552129   102A      2.566822
     103A      2.574715   104A      2.578027   105A      2.762311
     106A      2.765841   107A      2.788479   108A      2.797665
     109A      2.833604   110A      2.843072   111A      2.852803
     112A      2.855917   113A      2.941558   114A      2.947247
     115A      2.955297   116A      2.966241

    Final Occupation by Irrep:
              A
    DOCC [    18 ]

  @RHF Final Energy:  -158.46440783668572

   => Energetics <=

    Nuclear Repulsion Energy =            122.2814853341082824
    One-Electron Energy =                -453.6885824912478711
    Two-Electron Energy =                 172.9426893204538374
    Total Energy =                       -158.4644078366857229

Computation Completed

Properties will be evaluated at   0.000000,   0.000000,   0.000000 [a0]

Properties computed using the SCF density matrix

  Nuclear Dipole Moment: [e a0]
     X:    -0.0611      Y:     0.0156      Z:     0.0615

  Electronic Dipole Moment: [e a0]
     X:     0.0832      Y:    -0.0240      Z:    -0.0450

  Dipole Moment: [e a0]
     X:     0.0221      Y:    -0.0084      Z:     0.0165     Total:     0.0288

  Dipole Moment: [D]
     X:     0.0561      Y:    -0.0214      Z:     0.0419     Total:     0.0732

*** tstop() called on ds3 at Sun Apr 26 20:01:56 2020
Module time:
	user time   =       6.95 seconds =       0.12 minutes
	system time =       2.72 seconds =       0.05 minutes
	total time  =          9 seconds =       0.15 minutes
Total time:
	user time   =       6.95 seconds =       0.12 minutes
	system time =       2.72 seconds =       0.05 minutes
	total time  =          9 seconds =       0.15 minutes
                                     G D M A

                                 by Anthony Stone

                           version 2.2.06, 22 June 2011

               Distributed Multipoles from Gaussian wavefunctions

Starting at 20:1:56 on 26 Apr 2020

Using SCF density matrix from file ./SSI/SSI-162LEU-203VAL-1-dimer.test.10559.fchk

                         Distributed Multipole Analysis

Standard DMA

Positions and radii in angstrom
Multipole moments in atomic units, ea_0^k for rank k

C          x = -1.466131  y =  1.512651  z = -0.864628 angstrom
           Maximum rank =  0   Radius =  0.650 angstrom
                   Q00  =  -0.248692

C          x = -2.470131  y =  0.442651  z = -0.270628 angstrom
           Maximum rank =  0   Radius =  0.650 angstrom
                   Q00  =  -0.258233

H          x = -1.860131  y =  2.508651  z = -0.678628 angstrom
           Maximum rank =  0   Radius =  0.325 angstrom
                   Q00  =   0.082980

H          x = -0.505131  y =  1.413651  z = -0.363628 angstrom
           Maximum rank =  0   Radius =  0.325 angstrom
                   Q00  =   0.089475

H          x = -1.314131  y =  1.353651  z = -1.932628 angstrom
           Maximum rank =  0   Radius =  0.325 angstrom
                   Q00  =   0.084679

H          x = -2.097131  y = -0.555349  z = -0.493628 angstrom
           Maximum rank =  0   Radius =  0.325 angstrom
                   Q00  =   0.084356

H          x = -3.489021  y =  0.557291  z = -0.669014 angstrom
           Maximum rank =  0   Radius =  0.325 angstrom
                   Q00  =   0.083423

H          x = -2.543621  y =  0.542081  z =  0.822401 angstrom
           Maximum rank =  0   Radius =  0.325 angstrom
                   Q00  =   0.081074

C          x =  1.315869  y = -0.674349  z =  0.325372 angstrom
           Maximum rank =  0   Radius =  0.650 angstrom
                   Q00  =  -0.243530

C          x =  2.625869  y = -1.282349  z =  0.804372 angstrom
           Maximum rank =  0   Radius =  0.650 angstrom
                   Q00  =  -0.225308

H          x =  0.526869  y = -1.427349  z =  0.302372 angstrom
           Maximum rank =  0   Radius =  0.325 angstrom
                   Q00  =   0.079104

H          x =  1.005869  y =  0.111651  z =  1.013372 angstrom
           Maximum rank =  0   Radius =  0.325 angstrom
                   Q00  =   0.074690

H          x =  1.431869  y = -0.249349  z = -0.673628 angstrom
           Maximum rank =  0   Radius =  0.325 angstrom
                   Q00  =   0.077824

H          x =  2.483869  y = -1.716349  z =  1.788372 angstrom
           Maximum rank =  0   Radius =  0.325 angstrom
                   Q00  =   0.082387

H          x =  2.940249  y = -2.061409  z =  0.094285 angstrom
           Maximum rank =  0   Radius =  0.325 angstrom
                   Q00  =   0.079352

H          x =  3.355239  y = -0.460549  z =  0.855958 angstrom
           Maximum rank =  0   Radius =  0.325 angstrom
                   Q00  =   0.076418

Total multipoles referred to origin at
           x =   0.000000,  y =    0.000000,  z =    0.000000 angstrom
                   Q00  =  -0.000000

Finished at 20:1:56 on 26 Apr 2020

  DMA results are available in the Python driver through the
	  variable('DMA DISTRIBUTED MULTIPOLES')
  and
	  variable('DMA TOTAL MULTIPOLES')
  commands.

    Psi4 stopped on: Sunday, 26 April 2020 08:01PM
    Psi4 wall time for execution: 0:00:09.59

*** Psi4 exiting successfully. Buy a developer a beer!
