                               Psi4 1.3.2 release

  ==> Input File <==

--------------------------------------------------------------------------
import numpy as np
set {scf_type pk
basis cc-pvdz
d_convergence 10
gdma_switch   0
gdma_limit    0
gdma_origin   [ 0.0,  0.0,  0.0 ]
}
molecule test {
    units Angstrom
    0 1
    --
    0 1
    C                0.787909592457258    -2.188515944389799     2.983766625299419
    C                0.504909592457258    -1.236515944389800     1.827766625299419
    O               -0.640090407542742    -0.951515944389799     1.451766625299419
    O                1.505909592457257    -0.744515944389799     1.293766625299419
    H                1.416909592457257    -1.669515944389800     3.709766625299419
    H                1.340909592457258    -3.052515944389799     2.614766625299418
    H               -0.120240407542742    -2.532315944389799     3.500547625299419
    C               -2.359090407542742     0.913484055610201    -1.424233374700581
    C                0.042909592457258     1.025484055610201    -1.516233374700581
    N               -1.034090407542743     0.706484055610201    -0.842233374700581
    N               -0.055090407542742     1.679484055610200    -2.638233374700581
    N                1.213909592457257     0.753484055610201    -1.055233374700581
    H               -0.934090407542743     0.170484055610201     0.021766625299419
    H               -2.628090407542742     0.022484055610201    -1.993233374700581
    H               -2.352090407542742     1.761484055610200    -2.111233374700582
    H               -0.954090407542742     1.927484055610200    -3.010233374700581
    H                0.774909592457258     1.947484055610200    -3.144233374700582
    H                1.284909592457258     0.246484055610201    -0.167233374700581
    H                2.046909592457257     1.035484055610201    -1.543233374700581
    H               -3.165158407542742     1.133875055610201    -0.708914374700581

}
e, wfn = energy('scf', return_wfn=True)
gdma(wfn)
dmavals = variable('DMA DISTRIBUTED MULTIPOLES')
charges = np.array(dmavals)
print(charges)
np.save('SSI-043ASP-058ARG-1-dimer.npy', np.array(charges))--------------------------------------------------------------------------

*** tstart() called on ds3
*** at Sun Apr 26 17:57:06 2020

   => Loading Basis Set <=

    Name: CC-PVDZ
    Role: ORBITAL
    Keyword: BASIS
    atoms 1-2, 8-9   entry C          line   138 file /theoryfs2/ds/metcalf/miniconda2/envs/tf2gpu/share/psi4/basis/cc-pvdz.gbs
    atoms 3-4        entry O          line   198 file /theoryfs2/ds/metcalf/miniconda2/envs/tf2gpu/share/psi4/basis/cc-pvdz.gbs
    atoms 5-7, 13-20 entry H          line    22 file /theoryfs2/ds/metcalf/miniconda2/envs/tf2gpu/share/psi4/basis/cc-pvdz.gbs
    atoms 10-12      entry N          line   168 file /theoryfs2/ds/metcalf/miniconda2/envs/tf2gpu/share/psi4/basis/cc-pvdz.gbs

         ---------------------------------------------------------
                                   SCF
               by Justin Turney, Rob Parrish, Andy Simmonett
                          and Daniel G. A. Smith
                              RHF Reference
                        1 Threads,    500 MiB Core
         ---------------------------------------------------------

  ==> Geometry <==

    Molecular point group: c1
    Full point group: C1

    Geometry (in Angstrom), charge = 0, multiplicity = 1:

       Center              X                  Y                   Z               Mass
    ------------   -----------------  -----------------  -----------------  -----------------
         C            0.787909592457    -2.188515944390     2.983766625299    12.000000000000
         C            0.504909592457    -1.236515944390     1.827766625299    12.000000000000
         O           -0.640090407543    -0.951515944390     1.451766625299    15.994914619570
         O            1.505909592457    -0.744515944390     1.293766625299    15.994914619570
         H            1.416909592457    -1.669515944390     3.709766625299     1.007825032230
         H            1.340909592457    -3.052515944390     2.614766625299     1.007825032230
         H           -0.120240407543    -2.532315944390     3.500547625299     1.007825032230
         C           -2.359090407543     0.913484055610    -1.424233374701    12.000000000000
         C            0.042909592457     1.025484055610    -1.516233374701    12.000000000000
         N           -1.034090407543     0.706484055610    -0.842233374701    14.003074004430
         N           -0.055090407543     1.679484055610    -2.638233374701    14.003074004430
         N            1.213909592457     0.753484055610    -1.055233374701    14.003074004430
         H           -0.934090407543     0.170484055610     0.021766625299     1.007825032230
         H           -2.628090407543     0.022484055610    -1.993233374701     1.007825032230
         H           -2.352090407543     1.761484055610    -2.111233374701     1.007825032230
         H           -0.954090407543     1.927484055610    -3.010233374701     1.007825032230
         H            0.774909592457     1.947484055610    -3.144233374701     1.007825032230
         H            1.284909592457     0.246484055610    -0.167233374701     1.007825032230
         H            2.046909592457     1.035484055610    -1.543233374701     1.007825032230
         H           -3.165158407543     1.133875055610    -0.708914374701     1.007825032230

  Running in c1 symmetry.

  Rotational constants: A =      0.10551  B =      0.02447  C =      0.02006 [cm^-1]
  Rotational constants: A =   3163.08224  B =    733.64516  C =    601.24702 [MHz]
  Nuclear repulsion =  468.464191604251198

  Charge       = 0
  Multiplicity = 1
  Electrons    = 72
  Nalpha       = 36
  Nbeta        = 36

  ==> Algorithm <==

  SCF Algorithm Type is PK.
  DIIS enabled.
  MOM disabled.
  Fractional occupation disabled.
  Guess Type is SAD.
  Energy threshold   = 1.00e-06
  Density threshold  = 1.00e-10
  Integral threshold = 0.00e+00

  ==> Primary Basis <==

  Basis Set: CC-PVDZ
    Blend: CC-PVDZ
    Number of shells: 87
    Number of basis function: 181
    Number of Cartesian functions: 190
    Spherical Harmonics?: true
    Max angular momentum: 2

  ==> Pre-Iterations <==

   -------------------------------------------------------
    Irrep   Nso     Nmo     Nalpha   Nbeta   Ndocc  Nsocc
   -------------------------------------------------------
     A        181     181       0       0       0       0
   -------------------------------------------------------
    Total     181     181      36      36      36       0
   -------------------------------------------------------

  ==> Integral Setup <==

  Using integral reordering PK algorithm.
  Sizing the integral batches needed.
  Building batch lookup table.
   Calculation information:
      Number of atoms:                  20
      Number of AO shells:              87
      Number of primitives:            253
      Number of atomic orbitals:       190
      Number of basis functions:       181

      Integral cutoff                 1.00e-12
      Number of threads:                 1

	Batch   1 pq = [       0,    9405] index = [             0,44231715] size =     44231715
	Batch   2 pq = [    9405,   13301] index = [      44231715,88464951] size =     44233236
	Batch   3 pq = [   13301,   16471] index = [      88464951,135655156] size =     47190205
  Task number: 13
  Buffer size: 11059200
  Buffer per thread: 2
  We computed 5904783 shell quartets total.
  Whereas there are 7328706 unique shell quartets.

  ==> DiskJK: Disk-Based J/K Matrices <==

    J tasked:                  Yes
    K tasked:                  Yes
    wK tasked:                  No
    Memory [MiB]:              375
    Schwarz Cutoff:          1E-12

    OpenMP threads:              1

  Minimum eigenvalue in the overlap matrix is 3.4270620231E-03.
  Using Symmetric Orthogonalization.

  SCF Guess: Superposition of Atomic Densities via on-the-fly atomic UHF.

  ==> Iterations <==

                        Total Energy        Delta E     RMS |[F,P]|

   @RHF iter SAD:  -470.02541273261738   -4.70025e+02   0.00000e+00
   @RHF iter   1:  -470.72882265158574   -7.03410e-01   4.15120e-03 DIIS
   @RHF iter   2:  -470.94892589788003   -2.20103e-01   2.07821e-03 DIIS
   @RHF iter   3:  -471.00040581585569   -5.14799e-02   3.78354e-04 DIIS
   @RHF iter   4:  -471.00336338478593   -2.95757e-03   1.25871e-04 DIIS
   @RHF iter   5:  -471.00368506344256   -3.21679e-04   2.17922e-05 DIIS
   @RHF iter   6:  -471.00369943992820   -1.43765e-05   6.23231e-06 DIIS
   @RHF iter   7:  -471.00370040524814   -9.65320e-07   1.94057e-06 DIIS
   @RHF iter   8:  -471.00370051875575   -1.13508e-07   7.95386e-07 DIIS
   @RHF iter   9:  -471.00370053225845   -1.35027e-08   2.49050e-07 DIIS
   @RHF iter  10:  -471.00370053392891   -1.67046e-09   6.89818e-08 DIIS
   @RHF iter  11:  -471.00370053412593   -1.97019e-10   1.95939e-08 DIIS
   @RHF iter  12:  -471.00370053414531   -1.93836e-11   8.69124e-09 DIIS
   @RHF iter  13:  -471.00370053414741   -2.10321e-12   3.17238e-09 DIIS
   @RHF iter  14:  -471.00370053415048   -3.06954e-12   9.10534e-10 DIIS
   @RHF iter  15:  -471.00370053415111   -6.25278e-13   3.16385e-10 DIIS
   @RHF iter  16:  -471.00370053415043    6.82121e-13   1.15653e-10 DIIS
   @RHF iter  17:  -471.00370053414997    4.54747e-13   3.76134e-11 DIIS
  Energy and wave function converged.

  ==> Post-Iterations <==

    Orbital Energies [Eh]
    ---------------------

    Doubly Occupied:

       1A    -20.430389     2A    -20.425064     3A    -15.638496
       4A    -15.603251     5A    -15.597243     6A    -11.413069
       7A    -11.303142     8A    -11.273831     9A    -11.174471
      10A     -1.394833    11A     -1.330565    12A     -1.242158
      13A     -1.231812    14A     -1.209624    15A     -0.990779
      16A     -0.925614    17A     -0.880645    18A     -0.823644
      19A     -0.785312    20A     -0.703312    21A     -0.693927
      22A     -0.674968    23A     -0.647122    24A     -0.635174
      25A     -0.601047    26A     -0.578119    27A     -0.567298
      28A     -0.552613    29A     -0.547290    30A     -0.486148
      31A     -0.464134    32A     -0.458240    33A     -0.414965
      34A     -0.349911    35A     -0.340827    36A     -0.335484

    Virtual:

      37A      0.129898    38A      0.159018    39A      0.192497
      40A      0.211007    41A      0.213844    42A      0.246602
      43A      0.248589    44A      0.276295    45A      0.276836
      46A      0.304564    47A      0.309788    48A      0.351101
      49A      0.372398    50A      0.405844    51A      0.438433
      52A      0.449699    53A      0.493512    54A      0.510722
      55A      0.568840    56A      0.579521    57A      0.609644
      58A      0.616112    59A      0.666349    60A      0.680384
      61A      0.683923    62A      0.702049    63A      0.712267
      64A      0.724643    65A      0.742347    66A      0.757843
      67A      0.794276    68A      0.817042    69A      0.833141
      70A      0.833868    71A      0.839687    72A      0.849510
      73A      0.907200    74A      0.911001    75A      0.916343
      76A      0.919088    77A      0.931336    78A      0.946732
      79A      0.964528    80A      0.975567    81A      0.987326
      82A      1.005772    83A      1.052771    84A      1.082422
      85A      1.087885    86A      1.097171    87A      1.119287
      88A      1.158036    89A      1.213677    90A      1.216009
      91A      1.243973    92A      1.284957    93A      1.295741
      94A      1.325700    95A      1.339028    96A      1.349143
      97A      1.378797    98A      1.384906    99A      1.402206
     100A      1.452188   101A      1.463047   102A      1.497676
     103A      1.510975   104A      1.539192   105A      1.579934
     106A      1.589048   107A      1.597275   108A      1.642390
     109A      1.684631   110A      1.702014   111A      1.720783
     112A      1.727506   113A      1.734567   114A      1.761272
     115A      1.785920   116A      1.841335   117A      1.855566
     118A      1.882929   119A      1.894146   120A      1.917524
     121A      1.927063   122A      1.932150   123A      1.943912
     124A      1.955004   125A      1.967257   126A      1.976473
     127A      1.985680   128A      2.010024   129A      2.044873
     130A      2.074779   131A      2.088308   132A      2.152123
     133A      2.160437   134A      2.178941   135A      2.206444
     136A      2.260817   137A      2.275468   138A      2.290246
     139A      2.302840   140A      2.352328   141A      2.376878
     142A      2.423236   143A      2.432311   144A      2.450147
     145A      2.484332   146A      2.492280   147A      2.520436
     148A      2.531684   149A      2.568180   150A      2.599303
     151A      2.644637   152A      2.661754   153A      2.700234
     154A      2.714857   155A      2.760250   156A      2.774790
     157A      2.799784   158A      2.809846   159A      2.840477
     160A      2.891793   161A      2.927183   162A      2.942561
     163A      2.960020   164A      3.020739   165A      3.026542
     166A      3.073052   167A      3.076075   168A      3.126675
     169A      3.172753   170A      3.190483   171A      3.254009
     172A      3.306087   173A      3.426121   174A      3.491208
     175A      3.650910   176A      3.665019   177A      3.811326
     178A      3.892423   179A      3.939425   180A      3.954358
     181A      4.096381

    Final Occupation by Irrep:
              A
    DOCC [    36 ]

  @RHF Final Energy:  -471.00370053414997

   => Energetics <=

    Nuclear Repulsion Energy =            468.4641916042511980
    One-Electron Energy =               -1573.4867416811707699
    Two-Electron Energy =                 634.0188495427695443
    Total Energy =                       -471.0037005341499707

Computation Completed

Properties will be evaluated at   0.000000,   0.000000,   0.000000 [a0]

Properties computed using the SCF density matrix

  Nuclear Dipole Moment: [e a0]
     X:    -3.0797      Y:     0.9117      Z:    -2.6280

  Electronic Dipole Moment: [e a0]
     X:     2.4675      Y:     1.3639      Z:    -1.1048

  Dipole Moment: [e a0]
     X:    -0.6122      Y:     2.2756      Z:    -3.7328     Total:     4.4144

  Dipole Moment: [D]
     X:    -1.5561      Y:     5.7839      Z:    -9.4878     Total:    11.2202

*** tstop() called on ds3 at Sun Apr 26 17:58:09 2020
Module time:
	user time   =      43.70 seconds =       0.73 minutes
	system time =      21.42 seconds =       0.36 minutes
	total time  =         63 seconds =       1.05 minutes
Total time:
	user time   =      43.70 seconds =       0.73 minutes
	system time =      21.42 seconds =       0.36 minutes
	total time  =         63 seconds =       1.05 minutes
                                     G D M A

                                 by Anthony Stone

                           version 2.2.06, 22 June 2011

               Distributed Multipoles from Gaussian wavefunctions

Starting at 17:58:9 on 26 Apr 2020

Using SCF density matrix from file ./SSI/SSI-043ASP-058ARG-1-dimer.test.3674.fchk

                         Distributed Multipole Analysis

Standard DMA

Positions and radii in angstrom
Multipole moments in atomic units, ea_0^k for rank k

C          x =  0.787910  y = -2.188516  z =  2.983767 angstrom
           Maximum rank =  0   Radius =  0.650 angstrom
                   Q00  =  -0.255777

C          x =  0.504910  y = -1.236516  z =  1.827767 angstrom
           Maximum rank =  0   Radius =  0.650 angstrom
                   Q00  =   0.886408

O          x = -0.640090  y = -0.951516  z =  1.451767 angstrom
           Maximum rank =  0   Radius =  0.650 angstrom
                   Q00  =  -0.928169

O          x =  1.505910  y = -0.744516  z =  1.293767 angstrom
           Maximum rank =  0   Radius =  0.650 angstrom
                   Q00  =  -0.938059

H          x =  1.416910  y = -1.669516  z =  3.709767 angstrom
           Maximum rank =  0   Radius =  0.325 angstrom
                   Q00  =   0.099699

H          x =  1.340910  y = -3.052516  z =  2.614767 angstrom
           Maximum rank =  0   Radius =  0.325 angstrom
                   Q00  =   0.101825

H          x = -0.120240  y = -2.532316  z =  3.500548 angstrom
           Maximum rank =  0   Radius =  0.325 angstrom
                   Q00  =   0.074874

C          x = -2.359090  y =  0.913484  z = -1.424233 angstrom
           Maximum rank =  0   Radius =  0.650 angstrom
                   Q00  =  -0.093926

C          x =  0.042910  y =  1.025484  z = -1.516233 angstrom
           Maximum rank =  0   Radius =  0.650 angstrom
                   Q00  =   1.077305

N          x = -1.034090  y =  0.706484  z = -0.842233 angstrom
           Maximum rank =  0   Radius =  0.650 angstrom
                   Q00  =  -0.525339

N          x = -0.055090  y =  1.679484  z = -2.638233 angstrom
           Maximum rank =  0   Radius =  0.650 angstrom
                   Q00  =  -0.580096

N          x =  1.213910  y =  0.753484  z = -1.055233 angstrom
           Maximum rank =  0   Radius =  0.650 angstrom
                   Q00  =  -0.605998

H          x = -0.934090  y =  0.170484  z =  0.021767 angstrom
           Maximum rank =  0   Radius =  0.325 angstrom
                   Q00  =   0.334004

H          x = -2.628090  y =  0.022484  z = -1.993233 angstrom
           Maximum rank =  0   Radius =  0.325 angstrom
                   Q00  =   0.100250

H          x = -2.352090  y =  1.761484  z = -2.111233 angstrom
           Maximum rank =  0   Radius =  0.325 angstrom
                   Q00  =   0.056978

H          x = -0.954090  y =  1.927484  z = -3.010233 angstrom
           Maximum rank =  0   Radius =  0.325 angstrom
                   Q00  =   0.236903

H          x =  0.774910  y =  1.947484  z = -3.144233 angstrom
           Maximum rank =  0   Radius =  0.325 angstrom
                   Q00  =   0.232507

H          x =  1.284910  y =  0.246484  z = -0.167233 angstrom
           Maximum rank =  0   Radius =  0.325 angstrom
                   Q00  =   0.361300

H          x =  2.046910  y =  1.035484  z = -1.543233 angstrom
           Maximum rank =  0   Radius =  0.325 angstrom
                   Q00  =   0.221827

H          x = -3.165158  y =  1.133875  z = -0.708914 angstrom
           Maximum rank =  0   Radius =  0.325 angstrom
                   Q00  =   0.143484

Total multipoles referred to origin at
           x =   0.000000,  y =    0.000000,  z =    0.000000 angstrom
                   Q00  =  -0.000000

Finished at 17:58:9 on 26 Apr 2020

  DMA results are available in the Python driver through the
	  variable('DMA DISTRIBUTED MULTIPOLES')
  and
	  variable('DMA TOTAL MULTIPOLES')
  commands.

    Psi4 stopped on: Sunday, 26 April 2020 05:58PM
    Psi4 wall time for execution: 0:01:03.15

*** Psi4 exiting successfully. Buy a developer a beer!
