                               Psi4 1.3.2 release

  ==> Input File <==

--------------------------------------------------------------------------
import numpy as np
set {scf_type pk
basis cc-pvdz
d_convergence 10
gdma_switch   0
gdma_limit    0
gdma_origin   [ 0.0,  0.0,  0.0 ]
}
molecule test {
    units Angstrom
    0 1
    --
    0 1
    C                1.316355415269549    -0.032863104919570    -0.706509833457016
    C                2.745355415269549     0.411136895080430    -0.570509833457017
    H                0.950355415269549     0.177136895080430    -1.700509833457016
    H                1.280355415269549    -1.080863104919570    -0.468509833457017
    H                0.704355415269549     0.504136895080430     0.016490166542984
    H                3.279355415269549     0.108136895080430    -1.472509833457016
    H                3.212622415269549    -0.081851104919570     0.294720166542983
    H                2.781402415269549     1.506963895080430    -0.481829833457016
    C               -2.119644584730451     0.526136895080430     0.895490166542983
    C               -1.949644584730451    -0.906863104919570     0.379490166542983
    H               -1.421644584730451     0.721136895080430     1.711490166542984
    H               -1.902644584730451     1.239136895080430     0.098490166542984
    H               -3.138644584730451     0.695136895080430     1.239490166542984
    H               -0.978644584730451    -0.984863104919570    -0.083509833457016
    H               -2.712721584730451    -1.177563104919570    -0.365109833457016
    H               -1.963912584730451    -1.597444304919570     1.235580166542983

}
e, wfn = energy('scf', return_wfn=True)
gdma(wfn)
dmavals = variable('DMA DISTRIBUTED MULTIPOLES')
charges = np.array(dmavals)
print(charges)
np.save('SSI-019VAL-137ILE-1-dimer.npy', np.array(charges))--------------------------------------------------------------------------

*** tstart() called on ds3
*** at Tue Apr 28 11:23:02 2020

   => Loading Basis Set <=

    Name: CC-PVDZ
    Role: ORBITAL
    Keyword: BASIS
    atoms 1-2, 9-10  entry C          line   138 file /theoryfs2/ds/metcalf/miniconda2/envs/tf2gpu/share/psi4/basis/cc-pvdz.gbs
    atoms 3-8, 11-16 entry H          line    22 file /theoryfs2/ds/metcalf/miniconda2/envs/tf2gpu/share/psi4/basis/cc-pvdz.gbs

         ---------------------------------------------------------
                                   SCF
               by Justin Turney, Rob Parrish, Andy Simmonett
                          and Daniel G. A. Smith
                              RHF Reference
                        1 Threads,    500 MiB Core
         ---------------------------------------------------------

  ==> Geometry <==

    Molecular point group: c1
    Full point group: C1

    Geometry (in Angstrom), charge = 0, multiplicity = 1:

       Center              X                  Y                   Z               Mass
    ------------   -----------------  -----------------  -----------------  -----------------
         C            1.316355415270    -0.032863104920    -0.706509833457    12.000000000000
         C            2.745355415270     0.411136895080    -0.570509833457    12.000000000000
         H            0.950355415270     0.177136895080    -1.700509833457     1.007825032230
         H            1.280355415270    -1.080863104920    -0.468509833457     1.007825032230
         H            0.704355415270     0.504136895080     0.016490166543     1.007825032230
         H            3.279355415270     0.108136895080    -1.472509833457     1.007825032230
         H            3.212622415270    -0.081851104920     0.294720166543     1.007825032230
         H            2.781402415270     1.506963895080    -0.481829833457     1.007825032230
         C           -2.119644584730     0.526136895080     0.895490166543    12.000000000000
         C           -1.949644584730    -0.906863104920     0.379490166543    12.000000000000
         H           -1.421644584730     0.721136895080     1.711490166543     1.007825032230
         H           -1.902644584730     1.239136895080     0.098490166543     1.007825032230
         H           -3.138644584730     0.695136895080     1.239490166543     1.007825032230
         H           -0.978644584730    -0.984863104920    -0.083509833457     1.007825032230
         H           -2.712721584730    -1.177563104920    -0.365109833457     1.007825032230
         H           -1.963912584730    -1.597444304920     1.235580166543     1.007825032230

  Running in c1 symmetry.

  Rotational constants: A =      0.48944  B =      0.05552  C =      0.05226 [cm^-1]
  Rotational constants: A =  14673.14700  B =   1664.31762  C =   1566.70580 [MHz]
  Nuclear repulsion =  125.343904954552698

  Charge       = 0
  Multiplicity = 1
  Electrons    = 36
  Nalpha       = 18
  Nbeta        = 18

  ==> Algorithm <==

  SCF Algorithm Type is PK.
  DIIS enabled.
  MOM disabled.
  Fractional occupation disabled.
  Guess Type is SAD.
  Energy threshold   = 1.00e-06
  Density threshold  = 1.00e-10
  Integral threshold = 0.00e+00

  ==> Primary Basis <==

  Basis Set: CC-PVDZ
    Blend: CC-PVDZ
    Number of shells: 60
    Number of basis function: 116
    Number of Cartesian functions: 120
    Spherical Harmonics?: true
    Max angular momentum: 2

  ==> Pre-Iterations <==

   -------------------------------------------------------
    Irrep   Nso     Nmo     Nalpha   Nbeta   Ndocc  Nsocc
   -------------------------------------------------------
     A        116     116       0       0       0       0
   -------------------------------------------------------
    Total     116     116      18      18      18       0
   -------------------------------------------------------

  ==> Integral Setup <==

  Using integral reordering PK algorithm.
  Sizing the integral batches needed.
  Building batch lookup table.
   Calculation information:
      Number of atoms:                  16
      Number of AO shells:              60
      Number of primitives:            148
      Number of atomic orbitals:       120
      Number of basis functions:       116

      Integral cutoff                 1.00e-12
      Number of threads:                 1

	Batch   1 pq = [       0,    6786] index = [             0,23028291] size =     23028291
  Task number: 3
  Buffer size: 11059200
  Buffer per thread: 2
  We computed 1501430 shell quartets total.
  Whereas there are 1675365 unique shell quartets.

  ==> DiskJK: Disk-Based J/K Matrices <==

    J tasked:                  Yes
    K tasked:                  Yes
    wK tasked:                  No
    Memory [MiB]:              375
    Schwarz Cutoff:          1E-12

    OpenMP threads:              1

  Minimum eigenvalue in the overlap matrix is 5.1900227806E-03.
  Using Symmetric Orthogonalization.

  SCF Guess: Superposition of Atomic Densities via on-the-fly atomic UHF.

  ==> Iterations <==

                        Total Energy        Delta E     RMS |[F,P]|

   @RHF iter SAD:  -157.44528244837954   -1.57445e+02   0.00000e+00
   @RHF iter   1:  -158.29957203927819   -8.54290e-01   4.25406e-03 DIIS
   @RHF iter   2:  -158.43536494400041   -1.35793e-01   1.79849e-03 DIIS
   @RHF iter   3:  -158.45886675075292   -2.35018e-02   3.53529e-04 DIIS
   @RHF iter   4:  -158.46073787478164   -1.87112e-03   3.98406e-05 DIIS
   @RHF iter   5:  -158.46076321546045   -2.53407e-05   7.07660e-06 DIIS
   @RHF iter   6:  -158.46076394202123   -7.26561e-07   1.41687e-06 DIIS
   @RHF iter   7:  -158.46076396217495   -2.01537e-08   3.64689e-07 DIIS
   @RHF iter   8:  -158.46076396364373   -1.46878e-09   6.44204e-08 DIIS
   @RHF iter   9:  -158.46076396372075   -7.70228e-11   1.57956e-08 DIIS
   @RHF iter  10:  -158.46076396372521   -4.46221e-12   4.37090e-09 DIIS
   @RHF iter  11:  -158.46076396372521    0.00000e+00   1.16379e-09 DIIS
   @RHF iter  12:  -158.46076396372484    3.69482e-13   2.34560e-10 DIIS
   @RHF iter  13:  -158.46076396372490   -5.68434e-14   4.18548e-11 DIIS
  Energy and wave function converged.

  ==> Post-Iterations <==

    Orbital Energies [Eh]
    ---------------------

    Doubly Occupied:

       1A    -11.216759     2A    -11.216446     3A    -11.214679
       4A    -11.212038     5A     -1.028802     6A     -1.015508
       7A     -0.838846     8A     -0.832972     9A     -0.610512
      10A     -0.606077    11A     -0.595493    12A     -0.592899
      13A     -0.505831    14A     -0.498617    15A     -0.492049
      16A     -0.484508    17A     -0.480377    18A     -0.476690

    Virtual:

      19A      0.176260    20A      0.198575    21A      0.224996
      22A      0.238366    23A      0.248455    24A      0.254729
      25A      0.263439    26A      0.279652    27A      0.284569
      28A      0.296339    29A      0.320022    30A      0.339634
      31A      0.391783    32A      0.435110    33A      0.582256
      34A      0.601945    35A      0.604373    36A      0.607259
      37A      0.611536    38A      0.660321    39A      0.670313
      40A      0.703482    41A      0.743487    42A      0.772279
      43A      0.839444    44A      0.879852    45A      0.883894
      46A      0.891353    47A      0.893860    48A      0.899013
      49A      0.905920    50A      0.916647    51A      0.918116
      52A      0.933790    53A      0.948253    54A      0.957690
      55A      1.002977    56A      1.025968    57A      1.117884
      58A      1.123886    59A      1.129354    60A      1.149136
      61A      1.237718    62A      1.308678    63A      1.468126
      64A      1.492215    65A      1.496826    66A      1.508350
      67A      1.560840    68A      1.621406    69A      1.676509
      70A      1.683214    71A      1.694902    72A      1.696779
      73A      1.850058    74A      1.859280    75A      1.868962
      76A      1.882806    77A      1.890046    78A      1.922797
      79A      1.932103    80A      1.935435    81A      1.942334
      82A      1.945678    83A      1.953094    84A      1.956247
      85A      1.975949    86A      1.977398    87A      2.024594
      88A      2.070361    89A      2.110519    90A      2.133068
      91A      2.156395    92A      2.174367    93A      2.282348
      94A      2.303371    95A      2.326960    96A      2.371737
      97A      2.444582    98A      2.451070    99A      2.466210
     100A      2.476938   101A      2.565718   102A      2.582200
     103A      2.595172   104A      2.610251   105A      2.763420
     106A      2.772782   107A      2.790330   108A      2.821174
     109A      2.832610   110A      2.851004   111A      2.857053
     112A      2.887590   113A      2.942531   114A      2.950216
     115A      2.980000   116A      2.996821

    Final Occupation by Irrep:
              A
    DOCC [    18 ]

  @RHF Final Energy:  -158.46076396372490

   => Energetics <=

    Nuclear Repulsion Energy =            125.3439049545526984
    One-Electron Energy =                -459.7711352277050878
    Two-Electron Energy =                 175.9664663094275170
    Total Energy =                       -158.4607639637249008

Computation Completed

Properties will be evaluated at   0.000000,   0.000000,   0.000000 [a0]

Properties computed using the SCF density matrix

  Nuclear Dipole Moment: [e a0]
     X:     0.0846      Y:     0.0274      Z:     0.0228

  Electronic Dipole Moment: [e a0]
     X:    -0.0515      Y:    -0.0303      Z:    -0.0414

  Dipole Moment: [e a0]
     X:     0.0331      Y:    -0.0029      Z:    -0.0186     Total:     0.0381

  Dipole Moment: [D]
     X:     0.0841      Y:    -0.0075      Z:    -0.0474     Total:     0.0968

*** tstop() called on ds3 at Tue Apr 28 11:23:14 2020
Module time:
	user time   =       8.36 seconds =       0.14 minutes
	system time =       3.41 seconds =       0.06 minutes
	total time  =         12 seconds =       0.20 minutes
Total time:
	user time   =       8.36 seconds =       0.14 minutes
	system time =       3.41 seconds =       0.06 minutes
	total time  =         12 seconds =       0.20 minutes
                                     G D M A

                                 by Anthony Stone

                           version 2.2.06, 22 June 2011

               Distributed Multipoles from Gaussian wavefunctions

Starting at 11:23:14 on 28 Apr 2020

Using SCF density matrix from file ./SSI/SSI-019VAL-137ILE-1-dimer.test.26382.fchk

                         Distributed Multipole Analysis

Standard DMA

Positions and radii in angstrom
Multipole moments in atomic units, ea_0^k for rank k

C          x =  1.316355  y = -0.032863  z = -0.706510 angstrom
           Maximum rank =  0   Radius =  0.650 angstrom
                   Q00  =  -0.239887

C          x =  2.745355  y =  0.411137  z = -0.570510 angstrom
           Maximum rank =  0   Radius =  0.650 angstrom
                   Q00  =  -0.222416

H          x =  0.950355  y =  0.177137  z = -1.700510 angstrom
           Maximum rank =  0   Radius =  0.325 angstrom
                   Q00  =   0.080576

H          x =  1.280355  y = -1.080863  z = -0.468510 angstrom
           Maximum rank =  0   Radius =  0.325 angstrom
                   Q00  =   0.079062

H          x =  0.704355  y =  0.504137  z =  0.016490 angstrom
           Maximum rank =  0   Radius =  0.325 angstrom
                   Q00  =   0.073042

H          x =  3.279355  y =  0.108137  z = -1.472510 angstrom
           Maximum rank =  0   Radius =  0.325 angstrom
                   Q00  =   0.075717

H          x =  3.212622  y = -0.081851  z =  0.294720 angstrom
           Maximum rank =  0   Radius =  0.325 angstrom
                   Q00  =   0.081435

H          x =  2.781402  y =  1.506964  z = -0.481830 angstrom
           Maximum rank =  0   Radius =  0.325 angstrom
                   Q00  =   0.076327

C          x = -2.119645  y =  0.526137  z =  0.895490 angstrom
           Maximum rank =  0   Radius =  0.650 angstrom
                   Q00  =  -0.243220

C          x = -1.949645  y = -0.906863  z =  0.379490 angstrom
           Maximum rank =  0   Radius =  0.650 angstrom
                   Q00  =  -0.239690

H          x = -1.421645  y =  0.721137  z =  1.711490 angstrom
           Maximum rank =  0   Radius =  0.325 angstrom
                   Q00  =   0.078359

H          x = -1.902645  y =  1.239137  z =  0.098490 angstrom
           Maximum rank =  0   Radius =  0.325 angstrom
                   Q00  =   0.075918

H          x = -3.138645  y =  0.695137  z =  1.239490 angstrom
           Maximum rank =  0   Radius =  0.325 angstrom
                   Q00  =   0.081241

H          x = -0.978645  y = -0.984863  z = -0.083510 angstrom
           Maximum rank =  0   Radius =  0.325 angstrom
                   Q00  =   0.088308

H          x = -2.712722  y = -1.177563  z = -0.365110 angstrom
           Maximum rank =  0   Radius =  0.325 angstrom
                   Q00  =   0.080357

H          x = -1.963913  y = -1.597444  z =  1.235580 angstrom
           Maximum rank =  0   Radius =  0.325 angstrom
                   Q00  =   0.074869

Total multipoles referred to origin at
           x =   0.000000,  y =    0.000000,  z =    0.000000 angstrom
                   Q00  =  -0.000000

Finished at 11:23:14 on 28 Apr 2020

  DMA results are available in the Python driver through the
	  variable('DMA DISTRIBUTED MULTIPOLES')
  and
	  variable('DMA TOTAL MULTIPOLES')
  commands.

    Psi4 stopped on: Tuesday, 28 April 2020 11:23AM
    Psi4 wall time for execution: 0:00:11.60

*** Psi4 exiting successfully. Buy a developer a beer!
