                               Psi4 1.3.2 release

  ==> Input File <==

--------------------------------------------------------------------------
import numpy as np
set {scf_type pk
basis cc-pvdz
d_convergence 10
gdma_switch   0
gdma_limit    0
gdma_origin   [ 0.0,  0.0,  0.0 ]
}
molecule test {
    units Angstrom
    0 1
    --
    0 1
    C               -0.756668310586691     0.651584265031638    -2.706114973839008
    C               -0.045668310586691    -0.273415734968363    -3.694114973839008
    O               -0.303668310586691     1.986584265031638    -2.810114973839009
    H               -1.828668310586691     0.624584265031638    -2.908114973839008
    H               -0.599668310586691     0.288584265031637    -1.693114973839009
    H               -0.405668310586691    -1.285415734968362    -3.502114973839008
    H               -0.926668310586691     2.572584265031638    -2.333114973839009
    H                1.041592689413309    -0.252434734968362    -3.528515973839009
    H               -0.329102810586691    -0.024423734968363    -4.727394973839009
    C               -0.527668310586691     1.920584265031638     1.341885026160992
    C                0.786331689413309    -0.070415734968363     0.515885026160991
    C               -0.094668310586691     0.473584265031637     1.445885026160992
    C                1.184331689413309    -1.396415734968362     0.616885026160991
    C               -0.532668310586691    -0.319415734968363     2.502885026160992
    C                0.725331689413309    -2.182415734968362     1.667885026160991
    C               -0.122668310586691    -1.633415734968362     2.619885026160991
    H                1.160331689413309     0.535584265031638    -0.296114973839009
    H                1.846331689413309    -1.819415734968363    -0.122114973839009
    H                0.107331689413309     2.420584265031637     0.616885026160991
    H               -0.372668310586691     2.407584265031637     2.303885026160991
    H               -1.172668310586691     0.095584265031637     3.267885026160992
    H                1.017331689413309    -3.218415734968362     1.736885026160992
    H               -0.483668310586691    -2.236415734968363     3.438885026160992
    H               -1.569132310586691     2.056146265031638     1.014815026160991

}
e, wfn = energy('scf', return_wfn=True)
gdma(wfn)
dmavals = variable('DMA DISTRIBUTED MULTIPOLES')
charges = np.array(dmavals)
print(charges)
np.save('SSI-012SER-166PHE-1-dimer.npy', np.array(charges))--------------------------------------------------------------------------

*** tstart() called on ds3
*** at Tue Apr 28 14:36:42 2020

   => Loading Basis Set <=

    Name: CC-PVDZ
    Role: ORBITAL
    Keyword: BASIS
    atoms 1-2, 10-16 entry C          line   138 file /theoryfs2/ds/metcalf/miniconda2/envs/tf2gpu/share/psi4/basis/cc-pvdz.gbs
    atoms 3          entry O          line   198 file /theoryfs2/ds/metcalf/miniconda2/envs/tf2gpu/share/psi4/basis/cc-pvdz.gbs
    atoms 4-9, 17-24 entry H          line    22 file /theoryfs2/ds/metcalf/miniconda2/envs/tf2gpu/share/psi4/basis/cc-pvdz.gbs

         ---------------------------------------------------------
                                   SCF
               by Justin Turney, Rob Parrish, Andy Simmonett
                          and Daniel G. A. Smith
                              RHF Reference
                        1 Threads,    500 MiB Core
         ---------------------------------------------------------

  ==> Geometry <==

    Molecular point group: c1
    Full point group: C1

    Geometry (in Angstrom), charge = 0, multiplicity = 1:

       Center              X                  Y                   Z               Mass
    ------------   -----------------  -----------------  -----------------  -----------------
         C           -0.756668310587     0.651584265032    -2.706114973839    12.000000000000
         C           -0.045668310587    -0.273415734968    -3.694114973839    12.000000000000
         O           -0.303668310587     1.986584265032    -2.810114973839    15.994914619570
         H           -1.828668310587     0.624584265032    -2.908114973839     1.007825032230
         H           -0.599668310587     0.288584265032    -1.693114973839     1.007825032230
         H           -0.405668310587    -1.285415734968    -3.502114973839     1.007825032230
         H           -0.926668310587     2.572584265032    -2.333114973839     1.007825032230
         H            1.041592689413    -0.252434734968    -3.528515973839     1.007825032230
         H           -0.329102810587    -0.024423734968    -4.727394973839     1.007825032230
         C           -0.527668310587     1.920584265032     1.341885026161    12.000000000000
         C            0.786331689413    -0.070415734968     0.515885026161    12.000000000000
         C           -0.094668310587     0.473584265032     1.445885026161    12.000000000000
         C            1.184331689413    -1.396415734968     0.616885026161    12.000000000000
         C           -0.532668310587    -0.319415734968     2.502885026161    12.000000000000
         C            0.725331689413    -2.182415734968     1.667885026161    12.000000000000
         C           -0.122668310587    -1.633415734968     2.619885026161    12.000000000000
         H            1.160331689413     0.535584265032    -0.296114973839     1.007825032230
         H            1.846331689413    -1.819415734968    -0.122114973839     1.007825032230
         H            0.107331689413     2.420584265032     0.616885026161     1.007825032230
         H           -0.372668310587     2.407584265032     2.303885026161     1.007825032230
         H           -1.172668310587     0.095584265032     3.267885026161     1.007825032230
         H            1.017331689413    -3.218415734968     1.736885026161     1.007825032230
         H           -0.483668310587    -2.236415734968     3.438885026161     1.007825032230
         H           -1.569132310587     2.056146265032     1.014815026161     1.007825032230

  Running in c1 symmetry.

  Rotational constants: A =      0.06332  B =      0.02038  C =      0.01654 [cm^-1]
  Rotational constants: A =   1898.31385  B =    610.93496  C =    495.98273 [MHz]
  Nuclear repulsion =  490.212416988028508

  Charge       = 0
  Multiplicity = 1
  Electrons    = 76
  Nalpha       = 38
  Nbeta        = 38

  ==> Algorithm <==

  SCF Algorithm Type is PK.
  DIIS enabled.
  MOM disabled.
  Fractional occupation disabled.
  Guess Type is SAD.
  Energy threshold   = 1.00e-06
  Density threshold  = 1.00e-10
  Integral threshold = 0.00e+00

  ==> Primary Basis <==

  Basis Set: CC-PVDZ
    Blend: CC-PVDZ
    Number of shells: 102
    Number of basis function: 210
    Number of Cartesian functions: 220
    Spherical Harmonics?: true
    Max angular momentum: 2

  ==> Pre-Iterations <==

   -------------------------------------------------------
    Irrep   Nso     Nmo     Nalpha   Nbeta   Ndocc  Nsocc
   -------------------------------------------------------
     A        210     210       0       0       0       0
   -------------------------------------------------------
    Total     210     210      38      38      38       0
   -------------------------------------------------------

  ==> Integral Setup <==

  Using integral reordering PK algorithm.
  Sizing the integral batches needed.
  Building batch lookup table.
   Calculation information:
      Number of atoms:                  24
      Number of AO shells:             102
      Number of primitives:            290
      Number of atomic orbitals:       220
      Number of basis functions:       210

      Integral cutoff                 1.00e-12
      Number of threads:                 1

	Batch   1 pq = [       0,    9405] index = [             0,44231715] size =     44231715
	Batch   2 pq = [    9405,   13301] index = [      44231715,88464951] size =     44233236
	Batch   3 pq = [   13301,   16290] index = [      88464951,132690195] size =     44225244
	Batch   4 pq = [   16290,   18810] index = [     132690195,176917455] size =     44227260
	Batch   5 pq = [   18810,   21030] index = [     176917455,221140965] size =     44223510
	Batch   6 pq = [   21030,   22155] index = [     221140965,245433090] size =     24292125
  Task number: 23
  Buffer size: 11059200
  Buffer per thread: 2
  We computed 12023617 shell quartets total.
  Whereas there are 13799631 unique shell quartets.

  ==> DiskJK: Disk-Based J/K Matrices <==

    J tasked:                  Yes
    K tasked:                  Yes
    wK tasked:                  No
    Memory [MiB]:              375
    Schwarz Cutoff:          1E-12

    OpenMP threads:              1

  Minimum eigenvalue in the overlap matrix is 3.0112258237E-04.
  Using Symmetric Orthogonalization.

  SCF Guess: Superposition of Atomic Densities via on-the-fly atomic UHF.

  ==> Iterations <==

                        Total Energy        Delta E     RMS |[F,P]|

   @RHF iter SAD:  -422.62991228021787   -4.22630e+02   0.00000e+00
   @RHF iter   1:  -423.60012151868290   -9.70209e-01   2.95930e-03 DIIS
   @RHF iter   2:  -423.80949214396890   -2.09371e-01   1.34266e-03 DIIS
   @RHF iter   3:  -423.84601516262944   -3.65230e-02   2.83022e-04 DIIS
   @RHF iter   4:  -423.84881709719389   -2.80193e-03   8.56100e-05 DIIS
   @RHF iter   5:  -423.84899125416882   -1.74157e-04   1.67522e-05 DIIS
   @RHF iter   6:  -423.84900091245527   -9.65829e-06   4.35329e-06 DIIS
   @RHF iter   7:  -423.84900163584888   -7.23394e-07   1.56564e-06 DIIS
   @RHF iter   8:  -423.84900173807500   -1.02226e-07   5.61520e-07 DIIS
   @RHF iter   9:  -423.84900176078980   -2.27148e-08   2.86230e-07 DIIS
   @RHF iter  10:  -423.84900176735664   -6.56684e-09   1.19084e-07 DIIS
   @RHF iter  11:  -423.84900176946616   -2.10952e-09   3.90962e-08 DIIS
   @RHF iter  12:  -423.84900176967483   -2.08672e-10   1.45237e-08 DIIS
   @RHF iter  13:  -423.84900176969330   -1.84741e-11   4.03857e-09 DIIS
   @RHF iter  14:  -423.84900176969580   -2.50111e-12   1.13120e-09 DIIS
   @RHF iter  15:  -423.84900176969325    2.55795e-12   5.45584e-10 DIIS
   @RHF iter  16:  -423.84900176969222    1.02318e-12   2.40379e-10 DIIS
   @RHF iter  17:  -423.84900176969239   -1.70530e-13   9.94994e-11 DIIS
  Energy and wave function converged.

  ==> Post-Iterations <==

    Orbital Energies [Eh]
    ---------------------

    Doubly Occupied:

       1A    -20.547786     2A    -11.269674     3A    -11.242297
       4A    -11.235381     5A    -11.234768     6A    -11.231991
       7A    -11.231708     8A    -11.230650     9A    -11.230374
      10A    -11.220822    11A     -1.347628    12A     -1.156410
      13A     -1.045386    14A     -1.015827    15A     -1.005341
      16A     -0.933977    17A     -0.829824    18A     -0.824957
      19A     -0.799487    20A     -0.694248    21A     -0.687363
      22A     -0.642356    23A     -0.633589    24A     -0.628992
      25A     -0.584947    26A     -0.579948    27A     -0.563949
      28A     -0.563594    29A     -0.536988    30A     -0.534232
      31A     -0.521778    32A     -0.491536    33A     -0.485518
      34A     -0.483128    35A     -0.472171    36A     -0.431140
      37A     -0.334790    38A     -0.323967

    Virtual:

      39A      0.134630    40A      0.139393    41A      0.164019
      42A      0.184002    43A      0.198246    44A      0.222204
      45A      0.224986    46A      0.239809    47A      0.256124
      48A      0.259525    49A      0.263380    50A      0.271242
      51A      0.276709    52A      0.283868    53A      0.313156
      54A      0.320598    55A      0.362925    56A      0.373395
      57A      0.394205    58A      0.411988    59A      0.452607
      60A      0.462014    61A      0.475463    62A      0.501220
      63A      0.560770    64A      0.597764    65A      0.614259
      66A      0.627173    67A      0.637353    68A      0.664475
      69A      0.682294    70A      0.691777    71A      0.700880
      72A      0.711765    73A      0.736189    74A      0.739154
      75A      0.747243    76A      0.753564    77A      0.756804
      78A      0.760648    79A      0.770170    80A      0.781746
      81A      0.788943    82A      0.801043    83A      0.849836
      84A      0.857053    85A      0.861463    86A      0.866318
      87A      0.873454    88A      0.883149    89A      0.890777
      90A      0.890846    91A      0.900669    92A      0.907963
      93A      0.911895    94A      0.927687    95A      0.934532
      96A      0.954082    97A      0.982361    98A      0.987092
      99A      0.997390   100A      1.020243   101A      1.070511
     102A      1.121622   103A      1.131373   104A      1.132386
     105A      1.147920   106A      1.154710   107A      1.170960
     108A      1.188778   109A      1.220054   110A      1.236037
     111A      1.246663   112A      1.253804   113A      1.262669
     114A      1.279101   115A      1.295842   116A      1.306744
     117A      1.321932   118A      1.331855   119A      1.358140
     120A      1.416484   121A      1.457521   122A      1.482105
     123A      1.508201   124A      1.524899   125A      1.537465
     126A      1.541460   127A      1.559799   128A      1.604676
     129A      1.623667   130A      1.677550   131A      1.681213
     132A      1.688336   133A      1.733130   134A      1.747877
     135A      1.757364   136A      1.786172   137A      1.800672
     138A      1.815791   139A      1.860013   140A      1.863067
     141A      1.875490   142A      1.885294   143A      1.891780
     144A      1.897863   145A      1.912955   146A      1.917977
     147A      1.921905   148A      1.937846   149A      1.950628
     150A      1.952595   151A      1.961514   152A      1.964225
     153A      1.977368   154A      1.993897   155A      2.006290
     156A      2.015234   157A      2.018134   158A      2.037295
     159A      2.060051   160A      2.084175   161A      2.104194
     162A      2.118222   163A      2.136624   164A      2.161212
     165A      2.165740   166A      2.178838   167A      2.193839
     168A      2.215501   169A      2.253055   170A      2.258886
     171A      2.278823   172A      2.290475   173A      2.303413
     174A      2.308406   175A      2.321408   176A      2.323556
     177A      2.352653   178A      2.452020   179A      2.458704
     180A      2.475752   181A      2.506750   182A      2.517729
     183A      2.536664   184A      2.553195   185A      2.575552
     186A      2.632335   187A      2.734863   188A      2.757425
     189A      2.763323   190A      2.776608   191A      2.784715
     192A      2.794728   193A      2.810514   194A      2.822839
     195A      2.854556   196A      2.874105   197A      2.891334
     198A      2.952988   199A      2.993697   200A      3.018768
     201A      3.038139   202A      3.162842   203A      3.209913
     204A      3.308116   205A      3.323941   206A      3.421293
     207A      3.457401   208A      3.623103   209A      3.980737
     210A      4.095961

    Final Occupation by Irrep:
              A
    DOCC [    38 ]

  @RHF Final Energy:  -423.84900176969239

   => Energetics <=

    Nuclear Repulsion Energy =            490.2124169880285081
    One-Electron Energy =               -1546.4657872926484288
    Two-Electron Energy =                 632.4043685349275847
    Total Energy =                       -423.8490017696923360

Computation Completed

Properties will be evaluated at   0.000000,   0.000000,   0.000000 [a0]

Properties computed using the SCF density matrix

  Nuclear Dipole Moment: [e a0]
     X:    -2.3592      Y:     2.0389      Z:    -6.3239

  Electronic Dipole Moment: [e a0]
     X:     1.7910      Y:    -2.1449      Z:     6.6830

  Dipole Moment: [e a0]
     X:    -0.5682      Y:    -0.1060      Z:     0.3590     Total:     0.6805

  Dipole Moment: [D]
     X:    -1.4443      Y:    -0.2694      Z:     0.9126     Total:     1.7296

*** tstop() called on ds3 at Tue Apr 28 14:38:44 2020
Module time:
	user time   =      86.88 seconds =       1.45 minutes
	system time =      40.17 seconds =       0.67 minutes
	total time  =        122 seconds =       2.03 minutes
Total time:
	user time   =      86.88 seconds =       1.45 minutes
	system time =      40.17 seconds =       0.67 minutes
	total time  =        122 seconds =       2.03 minutes
                                     G D M A

                                 by Anthony Stone

                           version 2.2.06, 22 June 2011

               Distributed Multipoles from Gaussian wavefunctions

Starting at 14:38:44 on 28 Apr 2020

Using SCF density matrix from file ./SSI/SSI-012SER-166PHE-1-dimer.test.4121.fchk

                         Distributed Multipole Analysis

Standard DMA

Positions and radii in angstrom
Multipole moments in atomic units, ea_0^k for rank k

C          x = -0.756668  y =  0.651584  z = -2.706115 angstrom
           Maximum rank =  0   Radius =  0.650 angstrom
                   Q00  =   0.098627

C          x = -0.045668  y = -0.273416  z = -3.694115 angstrom
           Maximum rank =  0   Radius =  0.650 angstrom
                   Q00  =  -0.244656

O          x = -0.303668  y =  1.986584  z = -2.810115 angstrom
           Maximum rank =  0   Radius =  0.650 angstrom
                   Q00  =  -0.597886

H          x = -1.828668  y =  0.624584  z = -2.908115 angstrom
           Maximum rank =  0   Radius =  0.325 angstrom
                   Q00  =   0.037450

H          x = -0.599668  y =  0.288584  z = -1.693115 angstrom
           Maximum rank =  0   Radius =  0.325 angstrom
                   Q00  =   0.044061

H          x = -0.405668  y = -1.285416  z = -3.502115 angstrom
           Maximum rank =  0   Radius =  0.325 angstrom
                   Q00  =   0.084636

H          x = -0.926668  y =  2.572584  z = -2.333115 angstrom
           Maximum rank =  0   Radius =  0.325 angstrom
                   Q00  =   0.393834

H          x =  1.041593  y = -0.252435  z = -3.528516 angstrom
           Maximum rank =  0   Radius =  0.325 angstrom
                   Q00  =   0.091055

H          x = -0.329103  y = -0.024424  z = -4.727395 angstrom
           Maximum rank =  0   Radius =  0.325 angstrom
                   Q00  =   0.089747

C          x = -0.527668  y =  1.920584  z =  1.341885 angstrom
           Maximum rank =  0   Radius =  0.650 angstrom
                   Q00  =  -0.199275

C          x =  0.786332  y = -0.070416  z =  0.515885 angstrom
           Maximum rank =  0   Radius =  0.650 angstrom
                   Q00  =  -0.092029

C          x = -0.094668  y =  0.473584  z =  1.445885 angstrom
           Maximum rank =  0   Radius =  0.650 angstrom
                   Q00  =  -0.108899

C          x =  1.184332  y = -1.396416  z =  0.616885 angstrom
           Maximum rank =  0   Radius =  0.650 angstrom
                   Q00  =  -0.060755

C          x = -0.532668  y = -0.319416  z =  2.502885 angstrom
           Maximum rank =  0   Radius =  0.650 angstrom
                   Q00  =   0.010855

C          x =  0.725332  y = -2.182416  z =  1.667885 angstrom
           Maximum rank =  0   Radius =  0.650 angstrom
                   Q00  =  -0.086930

C          x = -0.122668  y = -1.633416  z =  2.619885 angstrom
           Maximum rank =  0   Radius =  0.650 angstrom
                   Q00  =  -0.063923

H          x =  1.160332  y =  0.535584  z = -0.296115 angstrom
           Maximum rank =  0   Radius =  0.325 angstrom
                   Q00  =   0.060787

H          x =  1.846332  y = -1.819416  z = -0.122115 angstrom
           Maximum rank =  0   Radius =  0.325 angstrom
                   Q00  =   0.064964

H          x =  0.107332  y =  2.420584  z =  0.616885 angstrom
           Maximum rank =  0   Radius =  0.325 angstrom
                   Q00  =   0.098908

H          x = -0.372668  y =  2.407584  z =  2.303885 angstrom
           Maximum rank =  0   Radius =  0.325 angstrom
                   Q00  =   0.103793

H          x = -1.172668  y =  0.095584  z =  3.267885 angstrom
           Maximum rank =  0   Radius =  0.325 angstrom
                   Q00  =   0.053423

H          x =  1.017332  y = -3.218416  z =  1.736885 angstrom
           Maximum rank =  0   Radius =  0.325 angstrom
                   Q00  =   0.061043

H          x = -0.483668  y = -2.236416  z =  3.438885 angstrom
           Maximum rank =  0   Radius =  0.325 angstrom
                   Q00  =   0.063275

H          x = -1.569132  y =  2.056146  z =  1.014815 angstrom
           Maximum rank =  0   Radius =  0.325 angstrom
                   Q00  =   0.097894

Total multipoles referred to origin at
           x =   0.000000,  y =    0.000000,  z =    0.000000 angstrom
                   Q00  =  -0.000000

Finished at 14:38:44 on 28 Apr 2020

  DMA results are available in the Python driver through the
	  variable('DMA DISTRIBUTED MULTIPOLES')
  and
	  variable('DMA TOTAL MULTIPOLES')
  commands.

    Psi4 stopped on: Tuesday, 28 April 2020 02:38PM
    Psi4 wall time for execution: 0:02:02.11

*** Psi4 exiting successfully. Buy a developer a beer!
