                               Psi4 1.3.2 release

  ==> Input File <==

--------------------------------------------------------------------------
import numpy as np
set {scf_type pk
basis cc-pvdz
d_convergence 10
gdma_switch   0
gdma_limit    0
gdma_origin   [ 0.0,  0.0,  0.0 ]
}
molecule test {
    units Angstrom
    0 1
    --
    0 1
    C                3.007863411043496    -4.014724987564029    -0.686891176561407
    C                2.882863411043496    -4.473724987564030     0.765108823438593
    H                3.948863411043496    -3.504724987564030    -0.856891176561407
    H                2.949863411043496    -4.877724987564029    -1.352891176561407
    H                2.187863411043496    -3.346724987564030    -0.942891176561407
    H                1.893863411043496    -4.898724987564030     0.920108823438593
    H                3.030643411043496    -3.622482987564030     1.445951823438593
    H                3.634063411043496    -5.245869987564030     0.987578823438593
    C               -1.072136588956504     2.545275012435970     2.476108823438593
    C               -0.564136588956504     0.984275012435971     0.438108823438593
    C               -1.178136588956504     2.131275012435971     1.045108823438593
    C               -0.935136588956504     0.980275012435970    -0.933891176561407
    C               -1.871136588956504     2.761275012435970     0.056108823438593
    C                0.689863411043496    -1.030724987564029     0.026108823438593
    C                0.310863411043496    -1.003724987564030    -1.324891176561407
    C                0.263863411043496    -0.041724987564029     0.913108823438593
    C               -0.507136588956504    -0.000724987564029    -1.820891176561407
    N               -1.731136588956504     2.076275012435971    -1.128891176561407
    H                1.333863411043496    -1.812724987564030     0.389108823438593
    H                0.726863411043496    -1.737724987564030    -1.990891176561407
    H                0.592863411043496    -0.040724987564029     1.938108823438593
    H               -0.780136588956504     0.042275012435971    -2.864891176561407
    H               -1.050136588956504     1.657275012435970     3.099108823438593
    H               -1.969136588956504     3.113275012435970     2.717108823438593
    H               -2.434136588956504     3.678275012435970     0.186108823438593
    H               -2.045136588956504     2.417275012435971    -2.041891176561407
    H               -0.201286588956504     3.177903012435970     2.702818823438593

}
e, wfn = energy('scf', return_wfn=True)
gdma(wfn)
dmavals = variable('DMA DISTRIBUTED MULTIPOLES')
charges = np.array(dmavals)
print(charges)
np.save('SSI-086ALA-104TRP-1-dimer.npy', np.array(charges))--------------------------------------------------------------------------

*** tstart() called on ds3
*** at Tue Apr 28 12:01:49 2020

   => Loading Basis Set <=

    Name: CC-PVDZ
    Role: ORBITAL
    Keyword: BASIS
    atoms 1-2, 9-17  entry C          line   138 file /theoryfs2/ds/metcalf/miniconda2/envs/tf2gpu/share/psi4/basis/cc-pvdz.gbs
    atoms 3-8, 19-27 entry H          line    22 file /theoryfs2/ds/metcalf/miniconda2/envs/tf2gpu/share/psi4/basis/cc-pvdz.gbs
    atoms 18         entry N          line   168 file /theoryfs2/ds/metcalf/miniconda2/envs/tf2gpu/share/psi4/basis/cc-pvdz.gbs

         ---------------------------------------------------------
                                   SCF
               by Justin Turney, Rob Parrish, Andy Simmonett
                          and Daniel G. A. Smith
                              RHF Reference
                        1 Threads,    500 MiB Core
         ---------------------------------------------------------

  ==> Geometry <==

    Molecular point group: c1
    Full point group: C1

    Geometry (in Angstrom), charge = 0, multiplicity = 1:

       Center              X                  Y                   Z               Mass
    ------------   -----------------  -----------------  -----------------  -----------------
         C            3.007863411043    -4.014724987564    -0.686891176561    12.000000000000
         C            2.882863411043    -4.473724987564     0.765108823439    12.000000000000
         H            3.948863411043    -3.504724987564    -0.856891176561     1.007825032230
         H            2.949863411043    -4.877724987564    -1.352891176561     1.007825032230
         H            2.187863411043    -3.346724987564    -0.942891176561     1.007825032230
         H            1.893863411043    -4.898724987564     0.920108823439     1.007825032230
         H            3.030643411043    -3.622482987564     1.445951823439     1.007825032230
         H            3.634063411043    -5.245869987564     0.987578823439     1.007825032230
         C           -1.072136588957     2.545275012436     2.476108823439    12.000000000000
         C           -0.564136588957     0.984275012436     0.438108823439    12.000000000000
         C           -1.178136588957     2.131275012436     1.045108823439    12.000000000000
         C           -0.935136588957     0.980275012436    -0.933891176561    12.000000000000
         C           -1.871136588957     2.761275012436     0.056108823439    12.000000000000
         C            0.689863411043    -1.030724987564     0.026108823439    12.000000000000
         C            0.310863411043    -1.003724987564    -1.324891176561    12.000000000000
         C            0.263863411043    -0.041724987564     0.913108823439    12.000000000000
         C           -0.507136588957    -0.000724987564    -1.820891176561    12.000000000000
         N           -1.731136588957     2.076275012436    -1.128891176561    14.003074004430
         H            1.333863411043    -1.812724987564     0.389108823439     1.007825032230
         H            0.726863411043    -1.737724987564    -1.990891176561     1.007825032230
         H            0.592863411043    -0.040724987564     1.938108823439     1.007825032230
         H           -0.780136588957     0.042275012436    -2.864891176561     1.007825032230
         H           -1.050136588957     1.657275012436     3.099108823439     1.007825032230
         H           -1.969136588957     3.113275012436     2.717108823439     1.007825032230
         H           -2.434136588957     3.678275012436     0.186108823439     1.007825032230
         H           -2.045136588957     2.417275012436    -2.041891176561     1.007825032230
         H           -0.201286588957     3.177903012436     2.702818823439     1.007825032230

  Running in c1 symmetry.

  Rotational constants: A =      0.06367  B =      0.01253  C =      0.01058 [cm^-1]
  Rotational constants: A =   1908.80414  B =    375.57269  C =    317.04921 [MHz]
  Nuclear repulsion =  636.839829791089869

  Charge       = 0
  Multiplicity = 1
  Electrons    = 88
  Nalpha       = 44
  Nbeta        = 44

  ==> Algorithm <==

  SCF Algorithm Type is PK.
  DIIS enabled.
  MOM disabled.
  Fractional occupation disabled.
  Guess Type is SAD.
  Energy threshold   = 1.00e-06
  Density threshold  = 1.00e-10
  Integral threshold = 0.00e+00

  ==> Primary Basis <==

  Basis Set: CC-PVDZ
    Blend: CC-PVDZ
    Number of shells: 117
    Number of basis function: 243
    Number of Cartesian functions: 255
    Spherical Harmonics?: true
    Max angular momentum: 2

  ==> Pre-Iterations <==

   -------------------------------------------------------
    Irrep   Nso     Nmo     Nalpha   Nbeta   Ndocc  Nsocc
   -------------------------------------------------------
     A        243     243       0       0       0       0
   -------------------------------------------------------
    Total     243     243      44      44      44       0
   -------------------------------------------------------

  ==> Integral Setup <==

  Using integral reordering PK algorithm.
  Sizing the integral batches needed.
  Building batch lookup table.
   Calculation information:
      Number of atoms:                  27
      Number of AO shells:             117
      Number of primitives:            339
      Number of atomic orbitals:       255
      Number of basis functions:       243

      Integral cutoff                 1.00e-12
      Number of threads:                 1

	Batch   1 pq = [       0,    9405] index = [             0,44231715] size =     44231715
	Batch   2 pq = [    9405,   13301] index = [      44231715,88464951] size =     44233236
	Batch   3 pq = [   13301,   16290] index = [      88464951,132690195] size =     44225244
	Batch   4 pq = [   16290,   18810] index = [     132690195,176917455] size =     44227260
	Batch   5 pq = [   18810,   21030] index = [     176917455,221140965] size =     44223510
	Batch   6 pq = [   21030,   23037] index = [     221140965,265363203] size =     44222238
	Batch   7 pq = [   23037,   24883] index = [     265363203,309594286] size =     44231083
	Batch   8 pq = [   24883,   26601] index = [     309594286,353819901] size =     44225615
	Batch   9 pq = [   26601,   28214] index = [     353819901,398029005] size =     44209104
	Batch  10 pq = [   28214,   29646] index = [     398029005,439457481] size =     41428476
  Task number: 40
  Buffer size: 11059200
  Buffer per thread: 2
  We computed 19558916 shell quartets total.
  Whereas there are 23829156 unique shell quartets.

  ==> DiskJK: Disk-Based J/K Matrices <==

    J tasked:                  Yes
    K tasked:                  Yes
    wK tasked:                  No
    Memory [MiB]:              375
    Schwarz Cutoff:          1E-12

    OpenMP threads:              1

  Minimum eigenvalue in the overlap matrix is 2.3901544152E-04.
  Using Symmetric Orthogonalization.

  SCF Guess: Superposition of Atomic Densities via on-the-fly atomic UHF.

  ==> Iterations <==

                        Total Energy        Delta E     RMS |[F,P]|

   @RHF iter SAD:  -479.05545971497622   -4.79055e+02   0.00000e+00
   @RHF iter   1:  -479.48758016356942   -4.32120e-01   2.60500e-03 DIIS
   @RHF iter   2:  -479.72051515272386   -2.32935e-01   1.15720e-03 DIIS
   @RHF iter   3:  -479.76229674531589   -4.17816e-02   3.06280e-04 DIIS
   @RHF iter   4:  -479.76615945938477   -3.86271e-03   1.41271e-04 DIIS
   @RHF iter   5:  -479.76682716021497   -6.67701e-04   1.99303e-05 DIIS
   @RHF iter   6:  -479.76685650029896   -2.93401e-05   9.16022e-06 DIIS
   @RHF iter   7:  -479.76686247707352   -5.97677e-06   3.84076e-06 DIIS
   @RHF iter   8:  -479.76686419925994   -1.72219e-06   1.51003e-06 DIIS
   @RHF iter   9:  -479.76686453924475   -3.39985e-07   6.68149e-07 DIIS
   @RHF iter  10:  -479.76686460705105   -6.78063e-08   3.07100e-07 DIIS
   @RHF iter  11:  -479.76686462353217   -1.64811e-08   1.15632e-07 DIIS
   @RHF iter  12:  -479.76686462584303   -2.31086e-09   3.74234e-08 DIIS
   @RHF iter  13:  -479.76686462600350   -1.60469e-10   9.75372e-09 DIIS
   @RHF iter  14:  -479.76686462601026   -6.76437e-12   3.95453e-09 DIIS
   @RHF iter  15:  -479.76686462601430   -4.03588e-12   2.19073e-09 DIIS
   @RHF iter  16:  -479.76686462601060    3.69482e-12   9.86687e-10 DIIS
   @RHF iter  17:  -479.76686462601526   -4.66116e-12   3.86438e-10 DIIS
   @RHF iter  18:  -479.76686462601668   -1.42109e-12   1.61604e-10 DIIS
   @RHF iter  19:  -479.76686462602072   -4.03588e-12   5.26897e-11 DIIS
  Energy and wave function converged.

  ==> Post-Iterations <==

    Orbital Energies [Eh]
    ---------------------

    Doubly Occupied:

       1A    -15.601485     2A    -11.263638     3A    -11.262830
       4A    -11.230111     5A    -11.229636     6A    -11.228197
       7A    -11.225330     8A    -11.219713     9A    -11.219468
      10A    -11.218184    11A    -11.216787    12A    -11.214602
      13A     -1.294121    14A     -1.126424    15A     -1.073388
      16A     -1.017730    17A     -0.996112    18A     -0.986758
      19A     -0.931275    20A     -0.839980    21A     -0.836066
      22A     -0.802796    23A     -0.752272    24A     -0.717606
      25A     -0.663627    26A     -0.644248    27A     -0.603353
      28A     -0.598614    29A     -0.596244    30A     -0.592053
      31A     -0.585741    32A     -0.567404    33A     -0.551302
      34A     -0.539135    35A     -0.527560    36A     -0.500337
      37A     -0.495092    38A     -0.486444    39A     -0.482463
      40A     -0.470193    41A     -0.459915    42A     -0.372232
      43A     -0.293994    44A     -0.274452

    Virtual:

      45A      0.125576    46A      0.169176    47A      0.177802
      48A      0.181733    49A      0.192914    50A      0.212693
      51A      0.218826    52A      0.223164    53A      0.241172
      54A      0.242783    55A      0.254974    56A      0.263857
      57A      0.276252    58A      0.281034    59A      0.292110
      60A      0.300128    61A      0.315016    62A      0.364609
      63A      0.375609    64A      0.383096    65A      0.394578
      66A      0.405599    67A      0.423520    68A      0.453326
      69A      0.479109    70A      0.482771    71A      0.509500
      72A      0.542852    73A      0.593758    74A      0.598847
      75A      0.606323    76A      0.611349    77A      0.638840
      78A      0.643313    79A      0.659592    80A      0.664444
      81A      0.682774    82A      0.695207    83A      0.706366
      84A      0.719727    85A      0.724774    86A      0.733980
      87A      0.740158    88A      0.745674    89A      0.749768
      90A      0.760012    91A      0.765495    92A      0.773806
      93A      0.784739    94A      0.793039    95A      0.811039
      96A      0.838607    97A      0.846021    98A      0.851524
      99A      0.873488   100A      0.880071   101A      0.889523
     102A      0.892021   103A      0.897497   104A      0.903738
     105A      0.906700   106A      0.915004   107A      0.920760
     108A      0.942993   109A      0.945091   110A      0.953734
     111A      0.955397   112A      0.967666   113A      0.987182
     114A      1.007604   115A      1.013495   116A      1.052062
     117A      1.069134   118A      1.083096   119A      1.102286
     120A      1.112979   121A      1.126731   122A      1.136627
     123A      1.143619   124A      1.154264   125A      1.165716
     126A      1.206677   127A      1.209720   128A      1.230192
     129A      1.236251   130A      1.245295   131A      1.264578
     132A      1.273204   133A      1.290728   134A      1.299666
     135A      1.311457   136A      1.329850   137A      1.350453
     138A      1.357518   139A      1.394817   140A      1.427125
     141A      1.453254   142A      1.477068   143A      1.486001
     144A      1.525712   145A      1.548212   146A      1.570172
     147A      1.597355   148A      1.615488   149A      1.630837
     150A      1.646202   151A      1.656043   152A      1.690019
     153A      1.694934   154A      1.700347   155A      1.719417
     156A      1.739503   157A      1.757033   158A      1.774995
     159A      1.789418   160A      1.807145   161A      1.824969
     162A      1.831204   163A      1.863833   164A      1.875464
     165A      1.884887   166A      1.889995   167A      1.902260
     168A      1.906083   169A      1.908758   170A      1.919888
     171A      1.928626   172A      1.939794   173A      1.942244
     174A      1.952366   175A      1.954219   176A      1.962160
     177A      1.966518   178A      1.985328   179A      1.989556
     180A      2.004863   181A      2.013037   182A      2.018645
     183A      2.057492   184A      2.069198   185A      2.081713
     186A      2.090855   187A      2.098307   188A      2.105343
     189A      2.109005   190A      2.116425   191A      2.134040
     192A      2.150732   193A      2.163710   194A      2.188894
     195A      2.216765   196A      2.230354   197A      2.265328
     198A      2.282209   199A      2.294321   200A      2.305587
     201A      2.318771   202A      2.329373   203A      2.351066
     204A      2.357220   205A      2.404697   206A      2.419126
     207A      2.450021   208A      2.459397   209A      2.463999
     210A      2.470795   211A      2.542228   212A      2.567311
     213A      2.581406   214A      2.588743   215A      2.603119
     216A      2.640255   217A      2.658939   218A      2.683363
     219A      2.716118   220A      2.765465   221A      2.770303
     222A      2.776691   223A      2.798797   224A      2.804469
     225A      2.812572   226A      2.844673   227A      2.857465
     228A      2.868897   229A      2.876712   230A      2.884569
     231A      2.924800   232A      2.956186   233A      2.974369
     234A      2.995436   235A      3.030887   236A      3.049684
     237A      3.080680   238A      3.117301   239A      3.208185
     240A      3.313864   241A      3.377679   242A      3.723603
     243A      3.952297

    Final Occupation by Irrep:
              A
    DOCC [    44 ]

  @RHF Final Energy:  -479.76686462602072

   => Energetics <=

    Nuclear Repulsion Energy =            636.8398297910898691
    One-Electron Energy =               -1911.5955670624646245
    Two-Electron Energy =                 794.9888726453540357
    Total Energy =                       -479.7668646260207197

Computation Completed

Properties will be evaluated at   0.000000,   0.000000,   0.000000 [a0]

Properties computed using the SCF density matrix

  Nuclear Dipole Moment: [e a0]
     X:    11.0848      Y:   -14.0692      Z:     4.0678

  Electronic Dipole Moment: [e a0]
     X:   -11.4522      Y:    14.6703      Z:    -4.4764

  Dipole Moment: [e a0]
     X:    -0.3675      Y:     0.6012      Z:    -0.4086     Total:     0.8145

  Dipole Moment: [D]
     X:    -0.9340      Y:     1.5280      Z:    -1.0386     Total:     2.0702

*** tstop() called on ds3 at Tue Apr 28 12:06:00 2020
Module time:
	user time   =     161.40 seconds =       2.69 minutes
	system time =      68.54 seconds =       1.14 minutes
	total time  =        251 seconds =       4.18 minutes
Total time:
	user time   =     161.40 seconds =       2.69 minutes
	system time =      68.54 seconds =       1.14 minutes
	total time  =        251 seconds =       4.18 minutes
                                     G D M A

                                 by Anthony Stone

                           version 2.2.06, 22 June 2011

               Distributed Multipoles from Gaussian wavefunctions

Starting at 12:6:0 on 28 Apr 2020

Using SCF density matrix from file ./SSI/SSI-086ALA-104TRP-1-dimer.test.30037.fchk

                         Distributed Multipole Analysis

Standard DMA

Positions and radii in angstrom
Multipole moments in atomic units, ea_0^k for rank k

C          x =  3.007863  y = -4.014725  z = -0.686891 angstrom
           Maximum rank =  0   Radius =  0.650 angstrom
                   Q00  =  -0.230228

C          x =  2.882863  y = -4.473725  z =  0.765109 angstrom
           Maximum rank =  0   Radius =  0.650 angstrom
                   Q00  =  -0.248776

H          x =  3.948863  y = -3.504725  z = -0.856891 angstrom
           Maximum rank =  0   Radius =  0.325 angstrom
                   Q00  =   0.082414

H          x =  2.949863  y = -4.877725  z = -1.352891 angstrom
           Maximum rank =  0   Radius =  0.325 angstrom
                   Q00  =   0.077858

H          x =  2.187863  y = -3.346725  z = -0.942891 angstrom
           Maximum rank =  0   Radius =  0.325 angstrom
                   Q00  =   0.078325

H          x =  1.893863  y = -4.898725  z =  0.920109 angstrom
           Maximum rank =  0   Radius =  0.325 angstrom
                   Q00  =   0.081530

H          x =  3.030643  y = -3.622483  z =  1.445952 angstrom
           Maximum rank =  0   Radius =  0.325 angstrom
                   Q00  =   0.077215

H          x =  3.634063  y = -5.245870  z =  0.987579 angstrom
           Maximum rank =  0   Radius =  0.325 angstrom
                   Q00  =   0.080192

C          x = -1.072137  y =  2.545275  z =  2.476109 angstrom
           Maximum rank =  0   Radius =  0.650 angstrom
                   Q00  =  -0.211007

C          x = -0.564137  y =  0.984275  z =  0.438109 angstrom
           Maximum rank =  0   Radius =  0.650 angstrom
                   Q00  =  -0.051959

C          x = -1.178137  y =  2.131275  z =  1.045109 angstrom
           Maximum rank =  0   Radius =  0.650 angstrom
                   Q00  =  -0.123013

C          x = -0.935137  y =  0.980275  z = -0.933891 angstrom
           Maximum rank =  0   Radius =  0.650 angstrom
                   Q00  =   0.295790

C          x = -1.871137  y =  2.761275  z =  0.056109 angstrom
           Maximum rank =  0   Radius =  0.650 angstrom
                   Q00  =   0.072407

C          x =  0.689863  y = -1.030725  z =  0.026109 angstrom
           Maximum rank =  0   Radius =  0.650 angstrom
                   Q00  =  -0.078936

C          x =  0.310863  y = -1.003725  z = -1.324891 angstrom
           Maximum rank =  0   Radius =  0.650 angstrom
                   Q00  =  -0.083863

C          x =  0.263863  y = -0.041725  z =  0.913109 angstrom
           Maximum rank =  0   Radius =  0.650 angstrom
                   Q00  =  -0.093741

C          x = -0.507137  y = -0.000725  z = -1.820891 angstrom
           Maximum rank =  0   Radius =  0.650 angstrom
                   Q00  =  -0.116442

N          x = -1.731137  y =  2.076275  z = -1.128891 angstrom
           Maximum rank =  0   Radius =  0.650 angstrom
                   Q00  =  -0.495909

H          x =  1.333863  y = -1.812725  z =  0.389109 angstrom
           Maximum rank =  0   Radius =  0.325 angstrom
                   Q00  =   0.059902

H          x =  0.726863  y = -1.737725  z = -1.990891 angstrom
           Maximum rank =  0   Radius =  0.325 angstrom
                   Q00  =   0.063105

H          x =  0.592863  y = -0.040725  z =  1.938109 angstrom
           Maximum rank =  0   Radius =  0.325 angstrom
                   Q00  =   0.069627

H          x = -0.780137  y =  0.042275  z = -2.864891 angstrom
           Maximum rank =  0   Radius =  0.325 angstrom
                   Q00  =   0.073636

H          x = -1.050137  y =  1.657275  z =  3.099109 angstrom
           Maximum rank =  0   Radius =  0.325 angstrom
                   Q00  =   0.104474

H          x = -1.969137  y =  3.113275  z =  2.717109 angstrom
           Maximum rank =  0   Radius =  0.325 angstrom
                   Q00  =   0.102119

H          x = -2.434137  y =  3.678275  z =  0.186109 angstrom
           Maximum rank =  0   Radius =  0.325 angstrom
                   Q00  =   0.099493

H          x = -2.045137  y =  2.417275  z = -2.041891 angstrom
           Maximum rank =  0   Radius =  0.325 angstrom
                   Q00  =   0.217093

H          x = -0.201287  y =  3.177903  z =  2.702819 angstrom
           Maximum rank =  0   Radius =  0.325 angstrom
                   Q00  =   0.098693

Total multipoles referred to origin at
           x =   0.000000,  y =    0.000000,  z =    0.000000 angstrom
                   Q00  =  -0.000000

Finished at 12:6:0 on 28 Apr 2020

  DMA results are available in the Python driver through the
	  variable('DMA DISTRIBUTED MULTIPOLES')
  and
	  variable('DMA TOTAL MULTIPOLES')
  commands.

    Psi4 stopped on: Tuesday, 28 April 2020 12:06PM
    Psi4 wall time for execution: 0:04:10.64

*** Psi4 exiting successfully. Buy a developer a beer!
