                               Psi4 1.3.2 release

  ==> Input File <==

--------------------------------------------------------------------------
import numpy as np
set {scf_type pk
basis cc-pvdz
d_convergence 10
gdma_switch   0
gdma_limit    0
gdma_origin   [ 0.0,  0.0,  0.0 ]
}
molecule test {
    units Angstrom
    0 1
    --
    0 1
    C                1.438271715332496     0.752749365598197     1.590177504770189
    C                2.194271715332496    -0.434250634401803     0.941177504770189
    H                2.109271715332496     1.314749365598197     2.243177504770189
    H                1.079271715332496     1.425749365598197     0.812177504770189
    H                0.585271715332496     0.398749365598197     2.169177504770190
    H                1.510271715332496    -0.988250634401803     0.303177504770189
    H                2.561291715332496    -1.081690134401803     1.751187504770189
    H                3.014511715332496    -0.074510634401803     0.302587504770189
    C               -1.556728284667504     0.186749365598197    -0.499822495229811
    C               -1.589728284667504    -1.342250634401803    -0.560822495229811
    C               -0.587728284667504     0.838749365598197    -1.506822495229811
    H               -2.557728284667504     0.578749365598197    -0.673822495229811
    H               -1.246728284667504     0.510749365598197     0.492177504770189
    H               -0.598728284667504    -1.727250634401803    -0.319822495229811
    H               -0.987728284667504     0.776749365598197    -2.517822495229810
    H               -0.470728284667504     1.893749365598197    -1.257822495229811
    H                0.386271715332496     0.352749365598197    -1.464822495229811
    H               -2.319663284667504    -1.727713734401803     0.166237504770189
    H               -1.854630284667504    -1.673378334401803    -1.575802495229811

}
e, wfn = energy('scf', return_wfn=True)
gdma(wfn)
dmavals = variable('DMA DISTRIBUTED MULTIPOLES')
charges = np.array(dmavals)
print(charges)
np.save('SSI-122VAL-125ILE-1-dimer.npy', np.array(charges))--------------------------------------------------------------------------

*** tstart() called on ds3
*** at Sun Apr 26 18:13:33 2020

   => Loading Basis Set <=

    Name: CC-PVDZ
    Role: ORBITAL
    Keyword: BASIS
    atoms 1-2, 9-11  entry C          line   138 file /theoryfs2/ds/metcalf/miniconda2/envs/tf2gpu/share/psi4/basis/cc-pvdz.gbs
    atoms 3-8, 12-19 entry H          line    22 file /theoryfs2/ds/metcalf/miniconda2/envs/tf2gpu/share/psi4/basis/cc-pvdz.gbs

         ---------------------------------------------------------
                                   SCF
               by Justin Turney, Rob Parrish, Andy Simmonett
                          and Daniel G. A. Smith
                              RHF Reference
                        1 Threads,    500 MiB Core
         ---------------------------------------------------------

  ==> Geometry <==

    Molecular point group: c1
    Full point group: C1

    Geometry (in Angstrom), charge = 0, multiplicity = 1:

       Center              X                  Y                   Z               Mass
    ------------   -----------------  -----------------  -----------------  -----------------
         C            1.438271715332     0.752749365598     1.590177504770    12.000000000000
         C            2.194271715332    -0.434250634402     0.941177504770    12.000000000000
         H            2.109271715332     1.314749365598     2.243177504770     1.007825032230
         H            1.079271715332     1.425749365598     0.812177504770     1.007825032230
         H            0.585271715332     0.398749365598     2.169177504770     1.007825032230
         H            1.510271715332    -0.988250634402     0.303177504770     1.007825032230
         H            2.561291715332    -1.081690134402     1.751187504770     1.007825032230
         H            3.014511715332    -0.074510634402     0.302587504770     1.007825032230
         C           -1.556728284668     0.186749365598    -0.499822495230    12.000000000000
         C           -1.589728284668    -1.342250634402    -0.560822495230    12.000000000000
         C           -0.587728284668     0.838749365598    -1.506822495230    12.000000000000
         H           -2.557728284668     0.578749365598    -0.673822495230     1.007825032230
         H           -1.246728284668     0.510749365598     0.492177504770     1.007825032230
         H           -0.598728284668    -1.727250634402    -0.319822495230     1.007825032230
         H           -0.987728284668     0.776749365598    -2.517822495230     1.007825032230
         H           -0.470728284668     1.893749365598    -1.257822495230     1.007825032230
         H            0.386271715332     0.352749365598    -1.464822495230     1.007825032230
         H           -2.319663284668    -1.727713734402     0.166237504770     1.007825032230
         H           -1.854630284668    -1.673378334402    -1.575802495230     1.007825032230

  Running in c1 symmetry.

  Rotational constants: A =      0.18315  B =      0.05821  C =      0.05273 [cm^-1]
  Rotational constants: A =   5490.78298  B =   1745.22455  C =   1580.70446 [MHz]
  Nuclear repulsion =  186.487119015926197

  Charge       = 0
  Multiplicity = 1
  Electrons    = 44
  Nalpha       = 22
  Nbeta        = 22

  ==> Algorithm <==

  SCF Algorithm Type is PK.
  DIIS enabled.
  MOM disabled.
  Fractional occupation disabled.
  Guess Type is SAD.
  Energy threshold   = 1.00e-06
  Density threshold  = 1.00e-10
  Integral threshold = 0.00e+00

  ==> Primary Basis <==

  Basis Set: CC-PVDZ
    Blend: CC-PVDZ
    Number of shells: 72
    Number of basis function: 140
    Number of Cartesian functions: 145
    Spherical Harmonics?: true
    Max angular momentum: 2

  ==> Pre-Iterations <==

   -------------------------------------------------------
    Irrep   Nso     Nmo     Nalpha   Nbeta   Ndocc  Nsocc
   -------------------------------------------------------
     A        140     140       0       0       0       0
   -------------------------------------------------------
    Total     140     140      22      22      22       0
   -------------------------------------------------------

  ==> Integral Setup <==

  Using integral reordering PK algorithm.
  Sizing the integral batches needed.
  Building batch lookup table.
   Calculation information:
      Number of atoms:                  19
      Number of AO shells:              72
      Number of primitives:            180
      Number of atomic orbitals:       145
      Number of basis functions:       140

      Integral cutoff                 1.00e-12
      Number of threads:                 1

	Batch   1 pq = [       0,    9405] index = [             0,44231715] size =     44231715
	Batch   2 pq = [    9405,    9870] index = [      44231715,48713385] size =      4481670
  Task number: 5
  Buffer size: 11059200
  Buffer per thread: 2
  We computed 3345835 shell quartets total.
  Whereas there are 3454506 unique shell quartets.

  ==> DiskJK: Disk-Based J/K Matrices <==

    J tasked:                  Yes
    K tasked:                  Yes
    wK tasked:                  No
    Memory [MiB]:              375
    Schwarz Cutoff:          1E-12

    OpenMP threads:              1

  Minimum eigenvalue in the overlap matrix is 5.6309054237E-03.
  Using Symmetric Orthogonalization.

  SCF Guess: Superposition of Atomic Densities via on-the-fly atomic UHF.

  ==> Iterations <==

                        Total Energy        Delta E     RMS |[F,P]|

   @RHF iter SAD:  -196.34442008326465   -1.96344e+02   0.00000e+00
   @RHF iter   1:  -197.31390245063912   -9.69482e-01   3.75606e-03 DIIS
   @RHF iter   2:  -197.47138344679638   -1.57481e-01   1.61070e-03 DIIS
   @RHF iter   3:  -197.49890599247135   -2.75225e-02   3.26390e-04 DIIS
   @RHF iter   4:  -197.50112018198234   -2.21419e-03   4.98946e-05 DIIS
   @RHF iter   5:  -197.50116075345565   -4.05715e-05   1.50136e-05 DIIS
   @RHF iter   6:  -197.50116422296324   -3.46951e-06   2.48622e-06 DIIS
   @RHF iter   7:  -197.50116433659898   -1.13636e-07   4.77358e-07 DIIS
   @RHF iter   8:  -197.50116434154654   -4.94757e-09   1.19735e-07 DIIS
   @RHF iter   9:  -197.50116434185139   -3.04851e-10   3.81882e-08 DIIS
   @RHF iter  10:  -197.50116434188601   -3.46176e-11   8.67534e-09 DIIS
   @RHF iter  11:  -197.50116434188854   -2.52953e-12   1.67751e-09 DIIS
   @RHF iter  12:  -197.50116434188811    4.26326e-13   3.72791e-10 DIIS
   @RHF iter  13:  -197.50116434188774    3.69482e-13   6.86269e-11 DIIS
  Energy and wave function converged.

  ==> Post-Iterations <==

    Orbital Energies [Eh]
    ---------------------

    Doubly Occupied:

       1A    -11.221757     2A    -11.219360     3A    -11.218675
       4A    -11.218213     5A    -11.215586     6A     -1.050818
       7A     -1.014242     8A     -0.925454     9A     -0.839570
      10A     -0.796729    11A     -0.630208    12A     -0.598663
      13A     -0.593872    14A     -0.590910    15A     -0.550109
      16A     -0.534396    17A     -0.498040    18A     -0.491305
      19A     -0.487421    20A     -0.471353    21A     -0.467844
      22A     -0.464329

    Virtual:

      23A      0.170173    24A      0.206457    25A      0.216601
      26A      0.219962    27A      0.241189    28A      0.255423
      29A      0.259469    30A      0.267599    31A      0.276930
      32A      0.288585    33A      0.299012    34A      0.317128
      35A      0.327185    36A      0.370753    37A      0.376919
      38A      0.413253    39A      0.438226    40A      0.567426
      41A      0.582038    42A      0.596021    43A      0.609907
      44A      0.619255    45A      0.628192    46A      0.653061
      47A      0.686733    48A      0.712759    49A      0.778697
      50A      0.802622    51A      0.810174    52A      0.839162
      53A      0.849568    54A      0.869939    55A      0.872771
      56A      0.885480    57A      0.894341    58A      0.901465
      59A      0.905324    60A      0.922472    61A      0.928541
      62A      0.937929    63A      0.943929    64A      0.967820
      65A      0.989164    66A      0.997878    67A      1.014692
      68A      1.026652    69A      1.118871    70A      1.126511
      71A      1.127888    72A      1.164907    73A      1.226815
      74A      1.285020    75A      1.375238    76A      1.449582
      77A      1.463680    78A      1.474694    79A      1.492852
      80A      1.528446    81A      1.595262    82A      1.645599
      83A      1.675293    84A      1.682563    85A      1.685861
      86A      1.697675    87A      1.707827    88A      1.848183
      89A      1.859078    90A      1.870557    91A      1.881535
      92A      1.888999    93A      1.897439    94A      1.918153
      95A      1.932347    96A      1.936202    97A      1.941364
      98A      1.950591    99A      1.954036   100A      1.966121
     101A      1.975984   102A      1.985444   103A      1.993108
     104A      2.001601   105A      2.011990   106A      2.039021
     107A      2.068142   108A      2.103434   109A      2.128843
     110A      2.150374   111A      2.174596   112A      2.279532
     113A      2.293121   114A      2.310746   115A      2.317627
     116A      2.327356   117A      2.343253   118A      2.450611
     119A      2.465666   120A      2.489244   121A      2.538398
     122A      2.562748   123A      2.574027   124A      2.581412
     125A      2.621227   126A      2.629323   127A      2.756242
     128A      2.767959   129A      2.785255   130A      2.796382
     131A      2.810889   132A      2.822090   133A      2.851080
     134A      2.855502   135A      2.924479   136A      2.952298
     137A      2.967146   138A      2.969748   139A      2.990971
     140A      3.067482

    Final Occupation by Irrep:
              A
    DOCC [    22 ]

  @RHF Final Energy:  -197.50116434188774

   => Energetics <=

    Nuclear Repulsion Energy =            186.4871190159261971
    One-Electron Energy =                -633.7788577886890380
    Two-Electron Energy =                 249.7905744308751252
    Total Energy =                       -197.5011643418877441

Computation Completed

Properties will be evaluated at   0.000000,   0.000000,   0.000000 [a0]

Properties computed using the SCF density matrix

  Nuclear Dipole Moment: [e a0]
     X:     1.1346      Y:    -0.0195      Z:     0.4031

  Electronic Dipole Moment: [e a0]
     X:    -1.1507      Y:     0.0501      Z:    -0.3812

  Dipole Moment: [e a0]
     X:    -0.0161      Y:     0.0306      Z:     0.0219     Total:     0.0409

  Dipole Moment: [D]
     X:    -0.0409      Y:     0.0777      Z:     0.0557     Total:     0.1040

*** tstop() called on ds3 at Sun Apr 26 18:13:58 2020
Module time:
	user time   =      18.58 seconds =       0.31 minutes
	system time =       6.42 seconds =       0.11 minutes
	total time  =         25 seconds =       0.42 minutes
Total time:
	user time   =      18.58 seconds =       0.31 minutes
	system time =       6.42 seconds =       0.11 minutes
	total time  =         25 seconds =       0.42 minutes
                                     G D M A

                                 by Anthony Stone

                           version 2.2.06, 22 June 2011

               Distributed Multipoles from Gaussian wavefunctions

Starting at 18:13:58 on 26 Apr 2020

Using SCF density matrix from file ./SSI/SSI-122VAL-125ILE-1-dimer.test.21324.fchk

                         Distributed Multipole Analysis

Standard DMA

Positions and radii in angstrom
Multipole moments in atomic units, ea_0^k for rank k

C          x =  1.438272  y =  0.752749  z =  1.590178 angstrom
           Maximum rank =  0   Radius =  0.650 angstrom
                   Q00  =  -0.248438

C          x =  2.194272  y = -0.434251  z =  0.941178 angstrom
           Maximum rank =  0   Radius =  0.650 angstrom
                   Q00  =  -0.241568

H          x =  2.109272  y =  1.314749  z =  2.243178 angstrom
           Maximum rank =  0   Radius =  0.325 angstrom
                   Q00  =   0.081694

H          x =  1.079272  y =  1.425749  z =  0.812178 angstrom
           Maximum rank =  0   Radius =  0.325 angstrom
                   Q00  =   0.081924

H          x =  0.585272  y =  0.398749  z =  2.169178 angstrom
           Maximum rank =  0   Radius =  0.325 angstrom
                   Q00  =   0.081927

H          x =  1.510272  y = -0.988251  z =  0.303178 angstrom
           Maximum rank =  0   Radius =  0.325 angstrom
                   Q00  =   0.081491

H          x =  2.561292  y = -1.081690  z =  1.751188 angstrom
           Maximum rank =  0   Radius =  0.325 angstrom
                   Q00  =   0.080819

H          x =  3.014512  y = -0.074511  z =  0.302588 angstrom
           Maximum rank =  0   Radius =  0.325 angstrom
                   Q00  =   0.082396

C          x = -1.556728  y =  0.186749  z = -0.499822 angstrom
           Maximum rank =  0   Radius =  0.650 angstrom
                   Q00  =  -0.087106

C          x = -1.589728  y = -1.342251  z = -0.560822 angstrom
           Maximum rank =  0   Radius =  0.650 angstrom
                   Q00  =  -0.237686

C          x = -0.587728  y =  0.838749  z = -1.506822 angstrom
           Maximum rank =  0   Radius =  0.650 angstrom
                   Q00  =  -0.255749

H          x = -2.557728  y =  0.578749  z = -0.673822 angstrom
           Maximum rank =  0   Radius =  0.325 angstrom
                   Q00  =   0.049245

H          x = -1.246728  y =  0.510749  z =  0.492178 angstrom
           Maximum rank =  0   Radius =  0.325 angstrom
                   Q00  =   0.049455

H          x = -0.598728  y = -1.727251  z = -0.319822 angstrom
           Maximum rank =  0   Radius =  0.325 angstrom
                   Q00  =   0.078594

H          x = -0.987728  y =  0.776749  z = -2.517822 angstrom
           Maximum rank =  0   Radius =  0.325 angstrom
                   Q00  =   0.080504

H          x = -0.470728  y =  1.893749  z = -1.257822 angstrom
           Maximum rank =  0   Radius =  0.325 angstrom
                   Q00  =   0.083688

H          x =  0.386272  y =  0.352749  z = -1.464822 angstrom
           Maximum rank =  0   Radius =  0.325 angstrom
                   Q00  =   0.076917

H          x = -2.319663  y = -1.727714  z =  0.166238 angstrom
           Maximum rank =  0   Radius =  0.325 angstrom
                   Q00  =   0.085177

H          x = -1.854630  y = -1.673378  z = -1.575802 angstrom
           Maximum rank =  0   Radius =  0.325 angstrom
                   Q00  =   0.076718

Total multipoles referred to origin at
           x =   0.000000,  y =    0.000000,  z =    0.000000 angstrom
                   Q00  =  -0.000000

Finished at 18:13:58 on 26 Apr 2020

  DMA results are available in the Python driver through the
	  variable('DMA DISTRIBUTED MULTIPOLES')
  and
	  variable('DMA TOTAL MULTIPOLES')
  commands.

    Psi4 stopped on: Sunday, 26 April 2020 06:13PM
    Psi4 wall time for execution: 0:00:24.68

*** Psi4 exiting successfully. Buy a developer a beer!
