                               Psi4 1.3.2 release

  ==> Input File <==

--------------------------------------------------------------------------
import numpy as np
set {scf_type pk
basis cc-pvdz
d_convergence 10
gdma_switch   0
gdma_limit    0
gdma_origin   [ 0.0,  0.0,  0.0 ]
}
molecule test {
    units Angstrom
    0 1
    --
    0 1
    C                1.150935118606814     1.296798894499526    -0.846769658838825
    C                2.419935118606813     0.458798894499526    -0.965769658838825
    C                0.810935118606813     2.187798894499526    -1.988769658838825
    H                0.308935118606813     0.644798894499526    -0.631769658838825
    H                1.261935118606814     1.935798894499526     0.032230341161175
    H                2.335935118606813    -0.163201105500474    -1.858769658838825
    H               -0.003064881393187     2.839798894499526    -1.671769658838825
    H                1.652935118606813     2.839798894499526    -2.212769658838825
    H                2.494700118606814    -0.163491105500474    -0.061789658838825
    H                3.320038118606813     1.083408894499526    -1.064159658838825
    H                0.512470438606813     1.662678894499526    -2.908100658838825
    C               -1.112064881393187    -0.848201105500474     1.288230341161175
    C               -1.916064881393187    -1.372201105500474     2.466230341161175
    C               -1.348064881393187    -1.694201105500474     0.067230341161175
    H               -1.382064881393187     0.188798894499526     1.080230341161175
    H               -0.050064881393187    -0.887201105500474     1.530230341161175
    H               -1.712064881393187    -2.441201105500474     2.571230341161175
    H               -2.352064881393186    -1.586201105500474    -0.316769658838825
    H               -0.634064881393187    -1.417201105500474    -0.706769658838825
    H               -1.178064881393186    -2.743201105500474     0.305230341161175
    H               -1.654318881393187    -0.887621105500474     3.418420341161175
    H               -2.987981881393187    -1.248601105500474     2.252410341161175

}
e, wfn = energy('scf', return_wfn=True)
gdma(wfn)
dmavals = variable('DMA DISTRIBUTED MULTIPOLES')
charges = np.array(dmavals)
print(charges)
np.save('SSI-004ARG-057ILE-1-dimer.npy', np.array(charges))--------------------------------------------------------------------------

*** tstart() called on ds3
*** at Sun Apr 26 18:12:51 2020

   => Loading Basis Set <=

    Name: CC-PVDZ
    Role: ORBITAL
    Keyword: BASIS
    atoms 1-3, 12-14  entry C          line   138 file /theoryfs2/ds/metcalf/miniconda2/envs/tf2gpu/share/psi4/basis/cc-pvdz.gbs
    atoms 4-11, 15-22 entry H          line    22 file /theoryfs2/ds/metcalf/miniconda2/envs/tf2gpu/share/psi4/basis/cc-pvdz.gbs

         ---------------------------------------------------------
                                   SCF
               by Justin Turney, Rob Parrish, Andy Simmonett
                          and Daniel G. A. Smith
                              RHF Reference
                        1 Threads,    500 MiB Core
         ---------------------------------------------------------

  ==> Geometry <==

    Molecular point group: c1
    Full point group: C1

    Geometry (in Angstrom), charge = 0, multiplicity = 1:

       Center              X                  Y                   Z               Mass
    ------------   -----------------  -----------------  -----------------  -----------------
         C            1.150935118607     1.296798894500    -0.846769658839    12.000000000000
         C            2.419935118607     0.458798894500    -0.965769658839    12.000000000000
         C            0.810935118607     2.187798894500    -1.988769658839    12.000000000000
         H            0.308935118607     0.644798894500    -0.631769658839     1.007825032230
         H            1.261935118607     1.935798894500     0.032230341161     1.007825032230
         H            2.335935118607    -0.163201105500    -1.858769658839     1.007825032230
         H           -0.003064881393     2.839798894500    -1.671769658839     1.007825032230
         H            1.652935118607     2.839798894500    -2.212769658839     1.007825032230
         H            2.494700118607    -0.163491105500    -0.061789658839     1.007825032230
         H            3.320038118607     1.083408894500    -1.064159658839     1.007825032230
         H            0.512470438607     1.662678894500    -2.908100658839     1.007825032230
         C           -1.112064881393    -0.848201105500     1.288230341161    12.000000000000
         C           -1.916064881393    -1.372201105500     2.466230341161    12.000000000000
         C           -1.348064881393    -1.694201105500     0.067230341161    12.000000000000
         H           -1.382064881393     0.188798894500     1.080230341161     1.007825032230
         H           -0.050064881393    -0.887201105500     1.530230341161     1.007825032230
         H           -1.712064881393    -2.441201105500     2.571230341161     1.007825032230
         H           -2.352064881393    -1.586201105500    -0.316769658839     1.007825032230
         H           -0.634064881393    -1.417201105500    -0.706769658839     1.007825032230
         H           -1.178064881393    -2.743201105500     0.305230341161     1.007825032230
         H           -1.654318881393    -0.887621105500     3.418420341161     1.007825032230
         H           -2.987981881393    -1.248601105500     2.252410341161     1.007825032230

  Running in c1 symmetry.

  Rotational constants: A =      0.16385  B =      0.02966  C =      0.02890 [cm^-1]
  Rotational constants: A =   4912.10966  B =    889.17615  C =    866.27482 [MHz]
  Nuclear repulsion =  241.184782730456817

  Charge       = 0
  Multiplicity = 1
  Electrons    = 52
  Nalpha       = 26
  Nbeta        = 26

  ==> Algorithm <==

  SCF Algorithm Type is PK.
  DIIS enabled.
  MOM disabled.
  Fractional occupation disabled.
  Guess Type is SAD.
  Energy threshold   = 1.00e-06
  Density threshold  = 1.00e-10
  Integral threshold = 0.00e+00

  ==> Primary Basis <==

  Basis Set: CC-PVDZ
    Blend: CC-PVDZ
    Number of shells: 84
    Number of basis function: 164
    Number of Cartesian functions: 170
    Spherical Harmonics?: true
    Max angular momentum: 2

  ==> Pre-Iterations <==

   -------------------------------------------------------
    Irrep   Nso     Nmo     Nalpha   Nbeta   Ndocc  Nsocc
   -------------------------------------------------------
     A        164     164       0       0       0       0
   -------------------------------------------------------
    Total     164     164      26      26      26       0
   -------------------------------------------------------

  ==> Integral Setup <==

  Using integral reordering PK algorithm.
  Sizing the integral batches needed.
  Building batch lookup table.
   Calculation information:
      Number of atoms:                  22
      Number of AO shells:              84
      Number of primitives:            212
      Number of atomic orbitals:       170
      Number of basis functions:       164

      Integral cutoff                 1.00e-12
      Number of threads:                 1

	Batch   1 pq = [       0,    9405] index = [             0,44231715] size =     44231715
	Batch   2 pq = [    9405,   13530] index = [      44231715,91537215] size =     47305500
  Task number: 9
  Buffer size: 11059200
  Buffer per thread: 2
  We computed 5499877 shell quartets total.
  Whereas there are 6374235 unique shell quartets.

  ==> DiskJK: Disk-Based J/K Matrices <==

    J tasked:                  Yes
    K tasked:                  Yes
    wK tasked:                  No
    Memory [MiB]:              375
    Schwarz Cutoff:          1E-12

    OpenMP threads:              1

  Minimum eigenvalue in the overlap matrix is 4.6761635084E-03.
  Using Symmetric Orthogonalization.

  SCF Guess: Superposition of Atomic Densities via on-the-fly atomic UHF.

  ==> Iterations <==

                        Total Energy        Delta E     RMS |[F,P]|

   @RHF iter SAD:  -235.52395813499177   -2.35524e+02   0.00000e+00
   @RHF iter   1:  -236.30684321959285   -7.82885e-01   3.56114e-03 DIIS
   @RHF iter   2:  -236.49868242461713   -1.91839e-01   1.56496e-03 DIIS
   @RHF iter   3:  -236.53392907574062   -3.52467e-02   3.09892e-04 DIIS
   @RHF iter   4:  -236.53661428677481   -2.68521e-03   5.03850e-05 DIIS
   @RHF iter   5:  -236.53666780495007   -5.35182e-05   1.37673e-05 DIIS
   @RHF iter   6:  -236.53667210458789   -4.29964e-06   2.28205e-06 DIIS
   @RHF iter   7:  -236.53667223451703   -1.29929e-07   4.54237e-07 DIIS
   @RHF iter   8:  -236.53667224116003   -6.64301e-09   9.23183e-08 DIIS
   @RHF iter   9:  -236.53667224147068   -3.10649e-10   2.63543e-08 DIIS
   @RHF iter  10:  -236.53667224148893   -1.82467e-11   7.39743e-09 DIIS
   @RHF iter  11:  -236.53667224149126   -2.33058e-12   1.32400e-09 DIIS
   @RHF iter  12:  -236.53667224149171   -4.54747e-13   3.02067e-10 DIIS
   @RHF iter  13:  -236.53667224148961    2.10321e-12   7.16229e-11 DIIS
  Energy and wave function converged.

  ==> Post-Iterations <==

    Orbital Energies [Eh]
    ---------------------

    Doubly Occupied:

       1A    -11.217935     2A    -11.217368     3A    -11.216619
       4A    -11.214376     5A    -11.212782     6A    -11.212177
       7A     -1.062425     8A     -1.058605     9A     -0.929274
      10A     -0.924903    11A     -0.799382    12A     -0.792210
      13A     -0.631284    14A     -0.627566    15A     -0.601966
      16A     -0.593939    17A     -0.556556    18A     -0.549527
      19A     -0.532775    20A     -0.529738    21A     -0.479648
      22A     -0.475978    23A     -0.471576    24A     -0.468750
      25A     -0.463897    26A     -0.458107

    Virtual:

      27A      0.165652    28A      0.195122    29A      0.208393
      30A      0.213801    31A      0.230256    32A      0.240930
      33A      0.242746    34A      0.260559    35A      0.270625
      36A      0.280460    37A      0.285358    38A      0.298771
      39A      0.303094    40A      0.313194    41A      0.325371
      42A      0.341243    43A      0.373611    44A      0.404645
      45A      0.431306    46A      0.441858    47A      0.566259
      48A      0.579143    49A      0.588816    50A      0.607861
      51A      0.611468    52A      0.614702    53A      0.625032
      54A      0.637545    55A      0.662493    56A      0.734637
      57A      0.772052    58A      0.793163    59A      0.809372
      60A      0.817564    61A      0.860209    62A      0.872624
      63A      0.879909    64A      0.882046    65A      0.891985
      66A      0.894372    67A      0.898035    68A      0.901786
      69A      0.904055    70A      0.906318    71A      0.906792
      72A      0.926326    73A      0.933938    74A      0.938888
      75A      0.946466    76A      0.958399    77A      0.965871
      78A      0.989315    79A      1.012136    80A      1.078463
      81A      1.127579    82A      1.129438    83A      1.130522
      84A      1.143488    85A      1.204621    86A      1.278145
      87A      1.384900    88A      1.389074    89A      1.469727
      90A      1.474618    91A      1.479889    92A      1.488527
      93A      1.532300    94A      1.572365    95A      1.608423
      96A      1.648647    97A      1.670412    98A      1.682134
      99A      1.688443   100A      1.700980   101A      1.706010
     102A      1.715313   103A      1.846466   104A      1.858360
     105A      1.879272   106A      1.879813   107A      1.884782
     108A      1.891847   109A      1.908524   110A      1.922240
     111A      1.927877   112A      1.938784   113A      1.948507
     114A      1.959070   115A      1.964140   116A      1.974071
     117A      1.977194   118A      1.984433   119A      1.989680
     120A      1.995562   121A      2.013331   122A      2.016044
     123A      2.032130   124A      2.041960   125A      2.060625
     126A      2.097343   127A      2.141250   128A      2.146383
     129A      2.154152   130A      2.165953   131A      2.280993
     132A      2.305318   133A      2.313492   134A      2.324756
     135A      2.332249   136A      2.351961   137A      2.364240
     138A      2.371923   139A      2.489053   140A      2.492582
     141A      2.534467   142A      2.544444   143A      2.577617
     144A      2.610983   145A      2.614577   146A      2.621666
     147A      2.644776   148A      2.652085   149A      2.754647
     150A      2.756542   151A      2.760866   152A      2.779061
     153A      2.782530   154A      2.801622   155A      2.821626
     156A      2.842601   157A      2.908656   158A      2.952581
     159A      2.965331   160A      2.982116   161A      2.989536
     162A      3.003902   163A      3.069231   164A      3.108961

    Final Occupation by Irrep:
              A
    DOCC [    26 ]

  @RHF Final Energy:  -236.53667224148961

   => Energetics <=

    Nuclear Repulsion Energy =            241.1847827304568170
    One-Electron Energy =                -794.8441881748105970
    Two-Electron Energy =                 317.1227332028641399
    Total Energy =                       -236.5366722414896117

Computation Completed

Properties will be evaluated at   0.000000,   0.000000,   0.000000 [a0]

Properties computed using the SCF density matrix

  Nuclear Dipole Moment: [e a0]
     X:    -0.0626      Y:    -0.3214      Z:    -0.2275

  Electronic Dipole Moment: [e a0]
     X:     0.0494      Y:     0.3407      Z:     0.2597

  Dipole Moment: [e a0]
     X:    -0.0132      Y:     0.0193      Z:     0.0322     Total:     0.0398

  Dipole Moment: [D]
     X:    -0.0336      Y:     0.0490      Z:     0.0818     Total:     0.1011

*** tstop() called on ds3 at Sun Apr 26 18:13:32 2020
Module time:
	user time   =      29.86 seconds =       0.50 minutes
	system time =      12.07 seconds =       0.20 minutes
	total time  =         41 seconds =       0.68 minutes
Total time:
	user time   =      29.86 seconds =       0.50 minutes
	system time =      12.07 seconds =       0.20 minutes
	total time  =         41 seconds =       0.68 minutes
                                     G D M A

                                 by Anthony Stone

                           version 2.2.06, 22 June 2011

               Distributed Multipoles from Gaussian wavefunctions

Starting at 18:13:32 on 26 Apr 2020

Using SCF density matrix from file ./SSI/SSI-004ARG-057ILE-1-dimer.test.9232.fchk

                         Distributed Multipole Analysis

Standard DMA

Positions and radii in angstrom
Multipole moments in atomic units, ea_0^k for rank k

C          x =  1.150935  y =  1.296799  z = -0.846770 angstrom
           Maximum rank =  0   Radius =  0.650 angstrom
                   Q00  =  -0.050192

C          x =  2.419935  y =  0.458799  z = -0.965770 angstrom
           Maximum rank =  0   Radius =  0.650 angstrom
                   Q00  =  -0.257701

C          x =  0.810935  y =  2.187799  z = -1.988770 angstrom
           Maximum rank =  0   Radius =  0.650 angstrom
                   Q00  =  -0.241494

H          x =  0.308935  y =  0.644799  z = -0.631770 angstrom
           Maximum rank =  0   Radius =  0.325 angstrom
                   Q00  =   0.045918

H          x =  1.261935  y =  1.935799  z =  0.032230 angstrom
           Maximum rank =  0   Radius =  0.325 angstrom
                   Q00  =   0.035072

H          x =  2.335935  y = -0.163201  z = -1.858770 angstrom
           Maximum rank =  0   Radius =  0.325 angstrom
                   Q00  =   0.073188

H          x = -0.003065  y =  2.839799  z = -1.671770 angstrom
           Maximum rank =  0   Radius =  0.325 angstrom
                   Q00  =   0.079073

H          x =  1.652935  y =  2.839799  z = -2.212770 angstrom
           Maximum rank =  0   Radius =  0.325 angstrom
                   Q00  =   0.073190

H          x =  2.494700  y = -0.163491  z = -0.061790 angstrom
           Maximum rank =  0   Radius =  0.325 angstrom
                   Q00  =   0.083357

H          x =  3.320038  y =  1.083409  z = -1.064160 angstrom
           Maximum rank =  0   Radius =  0.325 angstrom
                   Q00  =   0.079693

H          x =  0.512470  y =  1.662679  z = -2.908101 angstrom
           Maximum rank =  0   Radius =  0.325 angstrom
                   Q00  =   0.075981

C          x = -1.112065  y = -0.848201  z =  1.288230 angstrom
           Maximum rank =  0   Radius =  0.650 angstrom
                   Q00  =  -0.097695

C          x = -1.916065  y = -1.372201  z =  2.466230 angstrom
           Maximum rank =  0   Radius =  0.650 angstrom
                   Q00  =  -0.219323

C          x = -1.348065  y = -1.694201  z =  0.067230 angstrom
           Maximum rank =  0   Radius =  0.650 angstrom
                   Q00  =  -0.236470

H          x = -1.382065  y =  0.188799  z =  1.080230 angstrom
           Maximum rank =  0   Radius =  0.325 angstrom
                   Q00  =   0.047357

H          x = -0.050065  y = -0.887201  z =  1.530230 angstrom
           Maximum rank =  0   Radius =  0.325 angstrom
                   Q00  =   0.045670

H          x = -1.712065  y = -2.441201  z =  2.571230 angstrom
           Maximum rank =  0   Radius =  0.325 angstrom
                   Q00  =   0.072495

H          x = -2.352065  y = -1.586201  z = -0.316770 angstrom
           Maximum rank =  0   Radius =  0.325 angstrom
                   Q00  =   0.078419

H          x = -0.634065  y = -1.417201  z = -0.706770 angstrom
           Maximum rank =  0   Radius =  0.325 angstrom
                   Q00  =   0.080349

H          x = -1.178065  y = -2.743201  z =  0.305230 angstrom
           Maximum rank =  0   Radius =  0.325 angstrom
                   Q00  =   0.073403

H          x = -1.654319  y = -0.887621  z =  3.418420 angstrom
           Maximum rank =  0   Radius =  0.325 angstrom
                   Q00  =   0.085201

H          x = -2.987982  y = -1.248601  z =  2.252410 angstrom
           Maximum rank =  0   Radius =  0.325 angstrom
                   Q00  =   0.074510

Total multipoles referred to origin at
           x =   0.000000,  y =    0.000000,  z =    0.000000 angstrom
                   Q00  =  -0.000000

Finished at 18:13:32 on 26 Apr 2020

  DMA results are available in the Python driver through the
	  variable('DMA DISTRIBUTED MULTIPOLES')
  and
	  variable('DMA TOTAL MULTIPOLES')
  commands.

    Psi4 stopped on: Sunday, 26 April 2020 06:13PM
    Psi4 wall time for execution: 0:00:40.57

*** Psi4 exiting successfully. Buy a developer a beer!
