                               Psi4 1.3.2 release

  ==> Input File <==

--------------------------------------------------------------------------
import numpy as np
set {scf_type pk
basis cc-pvdz
d_convergence 10
gdma_switch   0
gdma_limit    0
gdma_origin   [ 0.0,  0.0,  0.0 ]
}
molecule test {
    units Angstrom
    0 1
    --
    0 1
    C                4.262272987470691    -2.114434104038193    -0.468650690373688
    C                2.068272987470691     0.752565895961806    -0.701650690373689
    C                1.762272987470691    -1.385434104038193    -0.240650690373688
    C                3.099272987470691    -1.170434104038194    -0.469650690373689
    N                1.136272987470691    -0.154434104038194    -0.387650690373688
    N                3.280272987470691     0.180565895961806    -0.728650690373688
    H                0.138272987470691     0.036565895961806    -0.310650690373688
    H                1.867272987470691     1.800565895961806    -0.890650690373688
    H                1.279272987470691    -2.316434104038194     0.014349309626312
    H                4.972272987470691    -1.759434104038194     0.278349309626312
    H                4.753272987470692    -2.060434104038194    -1.441650690373689
    H                4.008193987470691    -3.160434104038194    -0.242078690373688
    C               -2.003727012529309    -0.880434104038194     1.960349309626312
    C               -2.461727012529309     0.160565895961806     0.982349309626312
    C               -2.323727012529309     1.500565895961806    -0.750650690373689
    C               -3.600727012529309     0.899565895961806     0.943349309626312
    N               -1.664727012529309     0.566565895961806    -0.057650690373688
    N               -3.501727012529309     1.727565895961806    -0.161650690373688
    H               -1.954727012529309     2.006565895961807    -1.636650690373688
    H               -2.230727012529309    -0.540434104038194     2.962349309626311
    H               -0.917727012529309    -0.956434104038194     1.887349309626312
    H               -4.190727012529308     2.401565895961806    -0.472650690373689
    H               -4.427727012529308     0.837565895961806     1.638349309626312
    H               -2.428905012529309    -1.886574104038194     1.830295309626311

}
e, wfn = energy('scf', return_wfn=True)
gdma(wfn)
dmavals = variable('DMA DISTRIBUTED MULTIPOLES')
charges = np.array(dmavals)
print(charges)
np.save('SSI-040HIE-103HIE-1-dimer.npy', np.array(charges))--------------------------------------------------------------------------

*** tstart() called on ds3
*** at Mon Apr 27 00:04:48 2020

   => Loading Basis Set <=

    Name: CC-PVDZ
    Role: ORBITAL
    Keyword: BASIS
    atoms 1-4, 13-16  entry C          line   138 file /theoryfs2/ds/metcalf/miniconda2/envs/tf2gpu/share/psi4/basis/cc-pvdz.gbs
    atoms 5-6, 17-18  entry N          line   168 file /theoryfs2/ds/metcalf/miniconda2/envs/tf2gpu/share/psi4/basis/cc-pvdz.gbs
    atoms 7-12, 19-24 entry H          line    22 file /theoryfs2/ds/metcalf/miniconda2/envs/tf2gpu/share/psi4/basis/cc-pvdz.gbs

         ---------------------------------------------------------
                                   SCF
               by Justin Turney, Rob Parrish, Andy Simmonett
                          and Daniel G. A. Smith
                              RHF Reference
                        1 Threads,    500 MiB Core
         ---------------------------------------------------------

  ==> Geometry <==

    Molecular point group: c1
    Full point group: C1

    Geometry (in Angstrom), charge = 0, multiplicity = 1:

       Center              X                  Y                   Z               Mass
    ------------   -----------------  -----------------  -----------------  -----------------
         C            4.262272987471    -2.114434104038    -0.468650690374    12.000000000000
         C            2.068272987471     0.752565895962    -0.701650690374    12.000000000000
         C            1.762272987471    -1.385434104038    -0.240650690374    12.000000000000
         C            3.099272987471    -1.170434104038    -0.469650690374    12.000000000000
         N            1.136272987471    -0.154434104038    -0.387650690374    14.003074004430
         N            3.280272987471     0.180565895962    -0.728650690374    14.003074004430
         H            0.138272987471     0.036565895962    -0.310650690374     1.007825032230
         H            1.867272987471     1.800565895962    -0.890650690374     1.007825032230
         H            1.279272987471    -2.316434104038     0.014349309626     1.007825032230
         H            4.972272987471    -1.759434104038     0.278349309626     1.007825032230
         H            4.753272987471    -2.060434104038    -1.441650690374     1.007825032230
         H            4.008193987471    -3.160434104038    -0.242078690374     1.007825032230
         C           -2.003727012529    -0.880434104038     1.960349309626    12.000000000000
         C           -2.461727012529     0.160565895962     0.982349309626    12.000000000000
         C           -2.323727012529     1.500565895962    -0.750650690374    12.000000000000
         C           -3.600727012529     0.899565895962     0.943349309626    12.000000000000
         N           -1.664727012529     0.566565895962    -0.057650690374    14.003074004430
         N           -3.501727012529     1.727565895962    -0.161650690374    14.003074004430
         H           -1.954727012529     2.006565895962    -1.636650690374     1.007825032230
         H           -2.230727012529    -0.540434104038     2.962349309626     1.007825032230
         H           -0.917727012529    -0.956434104038     1.887349309626     1.007825032230
         H           -4.190727012529     2.401565895962    -0.472650690374     1.007825032230
         H           -4.427727012529     0.837565895962     1.638349309626     1.007825032230
         H           -2.428905012529    -1.886574104038     1.830295309626     1.007825032230

  Running in c1 symmetry.

  Rotational constants: A =      0.07948  B =      0.01178  C =      0.01055 [cm^-1]
  Rotational constants: A =   2382.86360  B =    353.03408  C =    316.18161 [MHz]
  Nuclear repulsion =  639.454839945513413

  Charge       = 0
  Multiplicity = 1
  Electrons    = 88
  Nalpha       = 44
  Nbeta        = 44

  ==> Algorithm <==

  SCF Algorithm Type is PK.
  DIIS enabled.
  MOM disabled.
  Fractional occupation disabled.
  Guess Type is SAD.
  Energy threshold   = 1.00e-06
  Density threshold  = 1.00e-10
  Integral threshold = 0.00e+00

  ==> Primary Basis <==

  Basis Set: CC-PVDZ
    Blend: CC-PVDZ
    Number of shells: 108
    Number of basis function: 228
    Number of Cartesian functions: 240
    Spherical Harmonics?: true
    Max angular momentum: 2

  ==> Pre-Iterations <==

   -------------------------------------------------------
    Irrep   Nso     Nmo     Nalpha   Nbeta   Ndocc  Nsocc
   -------------------------------------------------------
     A        228     228       0       0       0       0
   -------------------------------------------------------
    Total     228     228      44      44      44       0
   -------------------------------------------------------

  ==> Integral Setup <==

  Using integral reordering PK algorithm.
  Sizing the integral batches needed.
  Building batch lookup table.
   Calculation information:
      Number of atoms:                  24
      Number of AO shells:             108
      Number of primitives:            324
      Number of atomic orbitals:       240
      Number of basis functions:       228

      Integral cutoff                 1.00e-12
      Number of threads:                 1

	Batch   1 pq = [       0,    9405] index = [             0,44231715] size =     44231715
	Batch   2 pq = [    9405,   13301] index = [      44231715,88464951] size =     44233236
	Batch   3 pq = [   13301,   16290] index = [      88464951,132690195] size =     44225244
	Batch   4 pq = [   16290,   18810] index = [     132690195,176917455] size =     44227260
	Batch   5 pq = [   18810,   21030] index = [     176917455,221140965] size =     44223510
	Batch   6 pq = [   21030,   23037] index = [     221140965,265363203] size =     44222238
	Batch   7 pq = [   23037,   24883] index = [     265363203,309594286] size =     44231083
	Batch   8 pq = [   24883,   26106] index = [     309594286,340774671] size =     31180385
  Task number: 31
  Buffer size: 11059200
  Buffer per thread: 2
  We computed 13833031 shell quartets total.
  Whereas there are 17325441 unique shell quartets.

  ==> DiskJK: Disk-Based J/K Matrices <==

    J tasked:                  Yes
    K tasked:                  Yes
    wK tasked:                  No
    Memory [MiB]:              375
    Schwarz Cutoff:          1E-12

    OpenMP threads:              1

  Minimum eigenvalue in the overlap matrix is 1.1402383905E-03.
  Using Symmetric Orthogonalization.

  SCF Guess: Superposition of Atomic Densities via on-the-fly atomic UHF.

  ==> Iterations <==

                        Total Energy        Delta E     RMS |[F,P]|

   @RHF iter SAD:  -526.98413089847577   -5.26984e+02   0.00000e+00
   @RHF iter   1:  -527.50680542926318   -5.22675e-01   2.72713e-03 DIIS
   @RHF iter   2:  -527.70645268210740   -1.99647e-01   1.38549e-03 DIIS
   @RHF iter   3:  -527.75228090645896   -4.58282e-02   3.75647e-04 DIIS
   @RHF iter   4:  -527.75679774940795   -4.51684e-03   1.33907e-04 DIIS
   @RHF iter   5:  -527.75734213964085   -5.44390e-04   2.40664e-05 DIIS
   @RHF iter   6:  -527.75737128840933   -2.91488e-05   1.11332e-05 DIIS
   @RHF iter   7:  -527.75737720958921   -5.92118e-06   3.78278e-06 DIIS
   @RHF iter   8:  -527.75737847863888   -1.26905e-06   1.53851e-06 DIIS
   @RHF iter   9:  -527.75737871451872   -2.35880e-07   6.55925e-07 DIIS
   @RHF iter  10:  -527.75737874461731   -3.00986e-08   2.09199e-07 DIIS
   @RHF iter  11:  -527.75737874874335   -4.12604e-09   8.71090e-08 DIIS
   @RHF iter  12:  -527.75737874923959   -4.96243e-10   4.42676e-08 DIIS
   @RHF iter  13:  -527.75737874935101   -1.11413e-10   1.25701e-08 DIIS
   @RHF iter  14:  -527.75737874936306   -1.20508e-11   4.35012e-09 DIIS
   @RHF iter  15:  -527.75737874936829   -5.22959e-12   1.86995e-09 DIIS
   @RHF iter  16:  -527.75737874936715    1.13687e-12   6.64464e-10 DIIS
   @RHF iter  17:  -527.75737874936817   -1.02318e-12   3.15721e-10 DIIS
   @RHF iter  18:  -527.75737874936613    2.04636e-12   6.49341e-11 DIIS
  Energy and wave function converged.

  ==> Post-Iterations <==

    Orbital Energies [Eh]
    ---------------------

    Doubly Occupied:

       1A    -15.647501     2A    -15.577591     3A    -15.562879
       4A    -15.506198     5A    -11.323581     6A    -11.272922
       7A    -11.267392     8A    -11.266411     9A    -11.238698
      10A    -11.226012    11A    -11.220686    12A    -11.206593
      13A     -1.364160    14A     -1.299986    15A     -1.183886
      16A     -1.121128    17A     -1.052030    18A     -1.002083
      19A     -0.960706    20A     -0.915913    21A     -0.847950
      22A     -0.791454    23A     -0.780202    24A     -0.762881
      25A     -0.731585    26A     -0.709052    27A     -0.635307
      28A     -0.625449    29A     -0.619418    30A     -0.584280
      31A     -0.572470    32A     -0.570519    33A     -0.567903
      34A     -0.559460    35A     -0.538957    36A     -0.526009
      37A     -0.516075    38A     -0.505527    39A     -0.447142
      40A     -0.410620    41A     -0.390373    42A     -0.346794
      43A     -0.331237    44A     -0.281604

    Virtual:

      45A      0.157021    46A      0.158548    47A      0.184058
      48A      0.196012    49A      0.205321    50A      0.213162
      51A      0.216031    52A      0.225088    53A      0.242261
      54A      0.245106    55A      0.251127    56A      0.270524
      57A      0.282669    58A      0.299203    59A      0.320563
      60A      0.324682    61A      0.356760    62A      0.372975
      63A      0.402516    64A      0.426359    65A      0.431693
      66A      0.443097    67A      0.465172    68A      0.478667
      69A      0.504069    70A      0.516272    71A      0.580011
      72A      0.608368    73A      0.628215    74A      0.635663
      75A      0.641201    76A      0.646328    77A      0.652033
      78A      0.670482    79A      0.686472    80A      0.693406
      81A      0.714584    82A      0.724955    83A      0.728136
      84A      0.743296    85A      0.752047    86A      0.775814
      87A      0.778702    88A      0.805938    89A      0.811485
      90A      0.826964    91A      0.833809    92A      0.844859
      93A      0.851879    94A      0.869648    95A      0.876574
      96A      0.892005    97A      0.899381    98A      0.909808
      99A      0.914358   100A      0.922907   101A      0.935874
     102A      0.948789   103A      0.957156   104A      0.974442
     105A      0.981573   106A      0.997585   107A      1.010492
     108A      1.024526   109A      1.059086   110A      1.078445
     111A      1.091454   112A      1.109854   113A      1.114446
     114A      1.124843   115A      1.141843   116A      1.161166
     117A      1.166977   118A      1.190699   119A      1.197592
     120A      1.226556   121A      1.251827   122A      1.268504
     123A      1.281948   124A      1.289676   125A      1.297059
     126A      1.300981   127A      1.331953   128A      1.342372
     129A      1.355145   130A      1.396074   131A      1.409408
     132A      1.440581   133A      1.451288   134A      1.463883
     135A      1.480597   136A      1.506329   137A      1.520988
     138A      1.526132   139A      1.547104   140A      1.589182
     141A      1.630078   142A      1.644897   143A      1.654498
     144A      1.681957   145A      1.691785   146A      1.705318
     147A      1.714600   148A      1.757309   149A      1.769993
     150A      1.783883   151A      1.806677   152A      1.818848
     153A      1.826438   154A      1.835155   155A      1.850655
     156A      1.882615   157A      1.892601   158A      1.896343
     159A      1.919948   160A      1.924082   161A      1.932463
     162A      1.935959   163A      1.940730   164A      1.951545
     165A      1.966233   166A      1.989214   167A      1.997906
     168A      2.019033   169A      2.029084   170A      2.039353
     171A      2.054368   172A      2.064290   173A      2.105757
     174A      2.131278   175A      2.137218   176A      2.170713
     177A      2.177174   178A      2.199751   179A      2.208527
     180A      2.231478   181A      2.242014   182A      2.279672
     183A      2.284576   184A      2.324288   185A      2.343454
     186A      2.367258   187A      2.390538   188A      2.399680
     189A      2.420554   190A      2.436966   191A      2.461131
     192A      2.465074   193A      2.502559   194A      2.547512
     195A      2.562413   196A      2.575776   197A      2.600653
     198A      2.628154   199A      2.649176   200A      2.712375
     201A      2.717758   202A      2.744893   203A      2.755119
     204A      2.768132   205A      2.770762   206A      2.777897
     207A      2.801791   208A      2.813316   209A      2.829955
     210A      2.836033   211A      2.854541   212A      2.872670
     213A      2.890437   214A      2.895178   215A      2.901262
     216A      2.940648   217A      2.954078   218A      3.006156
     219A      3.077540   220A      3.085284   221A      3.114343
     222A      3.181312   223A      3.223828   224A      3.272015
     225A      3.436499   226A      3.480028   227A      3.756768
     228A      3.838955

    Final Occupation by Irrep:
              A
    DOCC [    44 ]

  @RHF Final Energy:  -527.75737874936613

   => Energetics <=

    Nuclear Repulsion Energy =            639.4548399455134131
    One-Electron Energy =               -1984.6871923906196571
    Two-Electron Energy =                 817.4749736957401183
    Total Energy =                       -527.7573787493661257

Computation Completed

Properties will be evaluated at   0.000000,   0.000000,   0.000000 [a0]

Properties computed using the SCF density matrix

  Nuclear Dipole Moment: [e a0]
     X:     0.8159      Y:    -5.2541      Z:     3.3944

  Electronic Dipole Moment: [e a0]
     X:    -4.0091      Y:     6.0528      Z:    -3.1850

  Dipole Moment: [e a0]
     X:    -3.1932      Y:     0.7987      Z:     0.2095     Total:     3.2983

  Dipole Moment: [D]
     X:    -8.1164      Y:     2.0301      Z:     0.5324     Total:     8.3833

*** tstop() called on ds3 at Mon Apr 27 00:10:20 2020
Module time:
	user time   =     112.32 seconds =       1.87 minutes
	system time =      50.65 seconds =       0.84 minutes
	total time  =        332 seconds =       5.53 minutes
Total time:
	user time   =     112.32 seconds =       1.87 minutes
	system time =      50.65 seconds =       0.84 minutes
	total time  =        332 seconds =       5.53 minutes
                                     G D M A

                                 by Anthony Stone

                           version 2.2.06, 22 June 2011

               Distributed Multipoles from Gaussian wavefunctions

Starting at 0:10:20 on 27 Apr 2020

Using SCF density matrix from file ./SSI/SSI-040HIE-103HIE-1-dimer.test.7507.fchk

                         Distributed Multipole Analysis

Standard DMA

Positions and radii in angstrom
Multipole moments in atomic units, ea_0^k for rank k

C          x =  4.262273  y = -2.114434  z = -0.468651 angstrom
           Maximum rank =  0   Radius =  0.650 angstrom
                   Q00  =  -0.192911

C          x =  2.068273  y =  0.752566  z = -0.701651 angstrom
           Maximum rank =  0   Radius =  0.650 angstrom
                   Q00  =   0.462994

C          x =  1.762273  y = -1.385434  z = -0.240651 angstrom
           Maximum rank =  0   Radius =  0.650 angstrom
                   Q00  =   0.003527

C          x =  3.099273  y = -1.170434  z = -0.469651 angstrom
           Maximum rank =  0   Radius =  0.650 angstrom
                   Q00  =   0.202635

N          x =  1.136273  y = -0.154434  z = -0.387651 angstrom
           Maximum rank =  0   Radius =  0.650 angstrom
                   Q00  =  -0.519160

N          x =  3.280273  y =  0.180566  z = -0.728651 angstrom
           Maximum rank =  0   Radius =  0.650 angstrom
                   Q00  =  -0.774013

H          x =  0.138273  y =  0.036566  z = -0.310651 angstrom
           Maximum rank =  0   Radius =  0.325 angstrom
                   Q00  =   0.322688

H          x =  1.867273  y =  1.800566  z = -0.890651 angstrom
           Maximum rank =  0   Radius =  0.325 angstrom
                   Q00  =   0.110285

H          x =  1.279273  y = -2.316434  z =  0.014349 angstrom
           Maximum rank =  0   Radius =  0.325 angstrom
                   Q00  =   0.089377

H          x =  4.972273  y = -1.759434  z =  0.278349 angstrom
           Maximum rank =  0   Radius =  0.325 angstrom
                   Q00  =   0.105289

H          x =  4.753273  y = -2.060434  z = -1.441651 angstrom
           Maximum rank =  0   Radius =  0.325 angstrom
                   Q00  =   0.106576

H          x =  4.008194  y = -3.160434  z = -0.242079 angstrom
           Maximum rank =  0   Radius =  0.325 angstrom
                   Q00  =   0.086238

C          x = -2.003727  y = -0.880434  z =  1.960349 angstrom
           Maximum rank =  0   Radius =  0.650 angstrom
                   Q00  =  -0.213275

C          x = -2.461727  y =  0.160566  z =  0.982349 angstrom
           Maximum rank =  0   Radius =  0.650 angstrom
                   Q00  =   0.210673

C          x = -2.323727  y =  1.500566  z = -0.750651 angstrom
           Maximum rank =  0   Radius =  0.650 angstrom
                   Q00  =   0.461467

C          x = -3.600727  y =  0.899566  z =  0.943349 angstrom
           Maximum rank =  0   Radius =  0.650 angstrom
                   Q00  =   0.009374

N          x = -1.664727  y =  0.566566  z = -0.057651 angstrom
           Maximum rank =  0   Radius =  0.650 angstrom
                   Q00  =  -0.819138

N          x = -3.501727  y =  1.727566  z = -0.161651 angstrom
           Maximum rank =  0   Radius =  0.650 angstrom
                   Q00  =  -0.464236

H          x = -1.954727  y =  2.006566  z = -1.636651 angstrom
           Maximum rank =  0   Radius =  0.325 angstrom
                   Q00  =   0.132038

H          x = -2.230727  y = -0.540434  z =  2.962349 angstrom
           Maximum rank =  0   Radius =  0.325 angstrom
                   Q00  =   0.105328

H          x = -0.917727  y = -0.956434  z =  1.887349 angstrom
           Maximum rank =  0   Radius =  0.325 angstrom
                   Q00  =   0.126260

H          x = -4.190727  y =  2.401566  z = -0.472651 angstrom
           Maximum rank =  0   Radius =  0.325 angstrom
                   Q00  =   0.232126

H          x = -4.427727  y =  0.837566  z =  1.638349 angstrom
           Maximum rank =  0   Radius =  0.325 angstrom
                   Q00  =   0.108942

H          x = -2.428905  y = -1.886574  z =  1.830295 angstrom
           Maximum rank =  0   Radius =  0.325 angstrom
                   Q00  =   0.106915

Total multipoles referred to origin at
           x =   0.000000,  y =    0.000000,  z =    0.000000 angstrom
                   Q00  =  -0.000000

Finished at 0:10:20 on 27 Apr 2020

  DMA results are available in the Python driver through the
	  variable('DMA DISTRIBUTED MULTIPOLES')
  and
	  variable('DMA TOTAL MULTIPOLES')
  commands.

    Psi4 stopped on: Monday, 27 April 2020 12:10AM
    Psi4 wall time for execution: 0:05:31.59

*** Psi4 exiting successfully. Buy a developer a beer!
