                               Psi4 1.3.2 release

  ==> Input File <==

--------------------------------------------------------------------------
import numpy as np
set {scf_type pk
basis cc-pvdz
d_convergence 10
gdma_switch   0
gdma_limit    0
gdma_origin   [ 0.0,  0.0,  0.0 ]
}
molecule test {
    units Angstrom
    -1 1
    --
    -1 1
    C                1.579534055256924     0.390866832338626     3.278936898433108
    C                0.776534055256924    -0.495133167661374     2.334936898433108
    O               -0.390465944743076    -0.155133167661374     2.045936898433109
    O                1.320534055256924    -1.526133167661374     1.878936898433108
    H                2.280534055256924     0.965866832338626     2.672936898433108
    H                2.164534055256924    -0.212133167661374     3.973936898433108
    H                0.950394055256924     1.116686832338626     3.815004898433108
    C               -0.668465944743076     2.285866832338626    -0.702063101566892
    C               -0.591465944743076     0.971866832338626    -1.426063101566892
    C               -0.610465944743076    -1.213133167661374    -1.686063101566892
    C               -0.498465944743076     0.709866832338626    -2.756063101566891
    N               -0.660465944743076    -0.245133167661374    -0.780063101566892
    N               -0.512465944743076    -0.661133167661374    -2.890063101566892
    H               -0.674465944743076    -2.277133167661374    -1.484063101566892
    H               -0.182465944743076     3.041866832338626    -1.314063101566892
    H               -0.109465944743076     2.207866832338626     0.229936898433108
    H               -0.569465944743076    -1.170133167661374    -3.771063101566892
    H               -0.473465944743076     1.441866832338626    -3.552063101566892
    H               -1.697505944743076     2.604654832338626    -0.479703301566892

}
e, wfn = energy('scf', return_wfn=True)
gdma(wfn)
dmavals = variable('DMA DISTRIBUTED MULTIPOLES')
charges = np.array(dmavals)
print(charges)
np.save('SSI-012GLU-068HIE-1-dimer.npy', np.array(charges))--------------------------------------------------------------------------

*** tstart() called on ds3
*** at Sun Apr 26 18:08:14 2020

   => Loading Basis Set <=

    Name: CC-PVDZ
    Role: ORBITAL
    Keyword: BASIS
    atoms 1-2, 8-11  entry C          line   138 file /theoryfs2/ds/metcalf/miniconda2/envs/tf2gpu/share/psi4/basis/cc-pvdz.gbs
    atoms 3-4        entry O          line   198 file /theoryfs2/ds/metcalf/miniconda2/envs/tf2gpu/share/psi4/basis/cc-pvdz.gbs
    atoms 5-7, 14-19 entry H          line    22 file /theoryfs2/ds/metcalf/miniconda2/envs/tf2gpu/share/psi4/basis/cc-pvdz.gbs
    atoms 12-13      entry N          line   168 file /theoryfs2/ds/metcalf/miniconda2/envs/tf2gpu/share/psi4/basis/cc-pvdz.gbs

         ---------------------------------------------------------
                                   SCF
               by Justin Turney, Rob Parrish, Andy Simmonett
                          and Daniel G. A. Smith
                              RHF Reference
                        1 Threads,    500 MiB Core
         ---------------------------------------------------------

  ==> Geometry <==

    Molecular point group: c1
    Full point group: C1

    Geometry (in Angstrom), charge = -1, multiplicity = 1:

       Center              X                  Y                   Z               Mass
    ------------   -----------------  -----------------  -----------------  -----------------
         C            1.579534055257     0.390866832339     3.278936898433    12.000000000000
         C            0.776534055257    -0.495133167661     2.334936898433    12.000000000000
         O           -0.390465944743    -0.155133167661     2.045936898433    15.994914619570
         O            1.320534055257    -1.526133167661     1.878936898433    15.994914619570
         H            2.280534055257     0.965866832339     2.672936898433     1.007825032230
         H            2.164534055257    -0.212133167661     3.973936898433     1.007825032230
         H            0.950394055257     1.116686832339     3.815004898433     1.007825032230
         C           -0.668465944743     2.285866832339    -0.702063101567    12.000000000000
         C           -0.591465944743     0.971866832339    -1.426063101567    12.000000000000
         C           -0.610465944743    -1.213133167661    -1.686063101567    12.000000000000
         C           -0.498465944743     0.709866832339    -2.756063101567    12.000000000000
         N           -0.660465944743    -0.245133167661    -0.780063101567    14.003074004430
         N           -0.512465944743    -0.661133167661    -2.890063101567    14.003074004430
         H           -0.674465944743    -2.277133167661    -1.484063101567     1.007825032230
         H           -0.182465944743     3.041866832339    -1.314063101567     1.007825032230
         H           -0.109465944743     2.207866832339     0.229936898433     1.007825032230
         H           -0.569465944743    -1.170133167661    -3.771063101567     1.007825032230
         H           -0.473465944743     1.441866832339    -3.552063101567     1.007825032230
         H           -1.697505944743     2.604654832339    -0.479703301567     1.007825032230

  Running in c1 symmetry.

  Rotational constants: A =      0.07924  B =      0.02163  C =      0.01832 [cm^-1]
  Rotational constants: A =   2375.47797  B =    648.37562  C =    549.10986 [MHz]
  Nuclear repulsion =  494.167753002618213

  Charge       = -1
  Multiplicity = 1
  Electrons    = 76
  Nalpha       = 38
  Nbeta        = 38

  ==> Algorithm <==

  SCF Algorithm Type is PK.
  DIIS enabled.
  MOM disabled.
  Fractional occupation disabled.
  Guess Type is SAD.
  Energy threshold   = 1.00e-06
  Density threshold  = 1.00e-10
  Integral threshold = 0.00e+00

  ==> Primary Basis <==

  Basis Set: CC-PVDZ
    Blend: CC-PVDZ
    Number of shells: 87
    Number of basis function: 185
    Number of Cartesian functions: 195
    Spherical Harmonics?: true
    Max angular momentum: 2

  ==> Pre-Iterations <==

   -------------------------------------------------------
    Irrep   Nso     Nmo     Nalpha   Nbeta   Ndocc  Nsocc
   -------------------------------------------------------
     A        185     185       0       0       0       0
   -------------------------------------------------------
    Total     185     185      38      38      38       0
   -------------------------------------------------------

  ==> Integral Setup <==

  Using integral reordering PK algorithm.
  Sizing the integral batches needed.
  Building batch lookup table.
   Calculation information:
      Number of atoms:                  19
      Number of AO shells:              87
      Number of primitives:            265
      Number of atomic orbitals:       195
      Number of basis functions:       185

      Integral cutoff                 1.00e-12
      Number of threads:                 1

	Batch   1 pq = [       0,    9405] index = [             0,44231715] size =     44231715
	Batch   2 pq = [    9405,   13301] index = [      44231715,88464951] size =     44233236
	Batch   3 pq = [   13301,   16290] index = [      88464951,132690195] size =     44225244
	Batch   4 pq = [   16290,   17205] index = [     132690195,148014615] size =     15324420
  Task number: 14
  Buffer size: 11059200
  Buffer per thread: 2
  We computed 5777358 shell quartets total.
  Whereas there are 7328706 unique shell quartets.

  ==> DiskJK: Disk-Based J/K Matrices <==

    J tasked:                  Yes
    K tasked:                  Yes
    wK tasked:                  No
    Memory [MiB]:              375
    Schwarz Cutoff:          1E-12

    OpenMP threads:              1

  Minimum eigenvalue in the overlap matrix is 1.2133383145E-03.
  Using Symmetric Orthogonalization.

  SCF Guess: Superposition of Atomic Densities via on-the-fly atomic UHF.

  ==> Iterations <==

                        Total Energy        Delta E     RMS |[F,P]|

   @RHF iter SAD:  -489.68904703340797   -4.89689e+02   0.00000e+00
   @RHF iter   1:  -490.73744884352868   -1.04840e+00   4.41292e-03 DIIS
   @RHF iter   2:  -490.98601471905096   -2.48566e-01   2.68214e-03 DIIS
   @RHF iter   3:  -491.08158758785646   -9.55729e-02   4.51558e-04 DIIS
   @RHF iter   4:  -491.08581087787763   -4.22329e-03   1.87858e-04 DIIS
   @RHF iter   5:  -491.08656539578669   -7.54518e-04   4.24911e-05 DIIS
   @RHF iter   6:  -491.08661138855899   -4.59928e-05   1.80283e-05 DIIS
   @RHF iter   7:  -491.08662058298484   -9.19443e-06   5.21870e-06 DIIS
   @RHF iter   8:  -491.08662197119639   -1.38821e-06   2.28527e-06 DIIS
   @RHF iter   9:  -491.08662224671986   -2.75523e-07   9.94906e-07 DIIS
   @RHF iter  10:  -491.08662230548561   -5.87657e-08   3.17902e-07 DIIS
   @RHF iter  11:  -491.08662231098208   -5.49647e-09   1.40859e-07 DIIS
   @RHF iter  12:  -491.08662231185946   -8.77378e-10   5.42206e-08 DIIS
   @RHF iter  13:  -491.08662231201515   -1.55694e-10   1.66270e-08 DIIS
   @RHF iter  14:  -491.08662231202425   -9.09495e-12   5.26731e-09 DIIS
   @RHF iter  15:  -491.08662231202686   -2.61480e-12   2.19733e-09 DIIS
   @RHF iter  16:  -491.08662231202959   -2.72848e-12   8.66720e-10 DIIS
   @RHF iter  17:  -491.08662231202953    5.68434e-14   3.50505e-10 DIIS
   @RHF iter  18:  -491.08662231202737    2.16005e-12   9.56906e-11 DIIS
  Energy and wave function converged.

  ==> Post-Iterations <==

    Orbital Energies [Eh]
    ---------------------

    Doubly Occupied:

       1A    -20.235395     2A    -20.235263     3A    -15.502316
       4A    -15.390836     5A    -11.163954     6A    -11.132881
       7A    -11.120348     8A    -11.103893     9A    -11.094410
      10A    -11.037104    11A     -1.219048    12A     -1.125824
      13A     -1.025964    14A     -1.012252    15A     -0.908821
      16A     -0.821306    17A     -0.781878    18A     -0.693947
      19A     -0.638522    20A     -0.620875    21A     -0.487174
      22A     -0.482216    23A     -0.481521    24A     -0.477906
      25A     -0.434132    26A     -0.418593    27A     -0.398808
      28A     -0.395730    29A     -0.390818    30A     -0.381776
      31A     -0.324130    32A     -0.287174    33A     -0.261062
      34A     -0.246527    35A     -0.190338    36A     -0.158895
      37A     -0.148036    38A     -0.135488

    Virtual:

      39A      0.272836    40A      0.303608    41A      0.306824
      42A      0.339143    43A      0.345459    44A      0.351346
      45A      0.367275    46A      0.399194    47A      0.409110
      48A      0.425105    49A      0.441308    50A      0.487319
      51A      0.506791    52A      0.515622    53A      0.537212
      54A      0.585866    55A      0.598003    56A      0.603871
      57A      0.712497    58A      0.714499    59A      0.739635
      60A      0.753749    61A      0.763695    62A      0.783896
      63A      0.821475    64A      0.825643    65A      0.829263
      66A      0.857734    67A      0.884266    68A      0.886263
      69A      0.892678    70A      0.927754    71A      0.952509
      72A      0.969912    73A      0.980653    74A      1.000133
      75A      1.006667    76A      1.025393    77A      1.033057
      78A      1.047234    79A      1.050388    80A      1.057310
      81A      1.073209    82A      1.076084    83A      1.095583
      84A      1.125598    85A      1.153826    86A      1.161197
      87A      1.165525    88A      1.206874    89A      1.237961
      90A      1.245781    91A      1.259793    92A      1.262694
      93A      1.330303    94A      1.359840    95A      1.365445
      96A      1.380604    97A      1.404549    98A      1.429412
      99A      1.436247   100A      1.442430   101A      1.454869
     102A      1.539309   103A      1.558897   104A      1.576524
     105A      1.594323   106A      1.604464   107A      1.620803
     108A      1.634570   109A      1.644111   110A      1.686874
     111A      1.692889   112A      1.718555   113A      1.751520
     114A      1.764525   115A      1.799980   116A      1.814607
     117A      1.833319   118A      1.854099   119A      1.873747
     120A      1.903725   121A      1.922609   122A      1.964751
     123A      1.983495   124A      2.019350   125A      2.045023
     126A      2.063157   127A      2.063455   128A      2.074910
     129A      2.080745   130A      2.094000   131A      2.098108
     132A      2.114966   133A      2.157104   134A      2.168676
     135A      2.181149   136A      2.217076   137A      2.226350
     138A      2.259659   139A      2.275575   140A      2.316085
     141A      2.345856   142A      2.350493   143A      2.376592
     144A      2.407891   145A      2.454459   146A      2.455136
     147A      2.472713   148A      2.497605   149A      2.540866
     150A      2.579550   151A      2.585360   152A      2.626975
     153A      2.679453   154A      2.681641   155A      2.730850
     156A      2.738150   157A      2.797401   158A      2.814802
     159A      2.851681   160A      2.881634   161A      2.903323
     162A      2.923801   163A      2.933252   164A      2.963887
     165A      2.974602   166A      2.987355   167A      3.001734
     168A      3.015459   169A      3.047780   170A      3.086910
     171A      3.190555   172A      3.267917   173A      3.284990
     174A      3.300884   175A      3.330051   176A      3.366746
     177A      3.387234   178A      3.599651   179A      3.659199
     180A      3.816104   181A      3.855501   182A      3.901976
     183A      4.086003   184A      4.107630   185A      4.222120

    Final Occupation by Irrep:
              A
    DOCC [    38 ]

  @RHF Final Energy:  -491.08662231202737

   => Energetics <=

    Nuclear Repulsion Energy =            494.1677530026182126
    One-Electron Energy =               -1664.5784287549777218
    Two-Electron Energy =                 679.3240534403321362
    Total Energy =                       -491.0866223120274299

Computation Completed

Properties will be evaluated at   0.000000,   0.000000,   0.000000 [a0]

Properties computed using the SCF density matrix

  Nuclear Dipole Moment: [e a0]
     X:     1.5909      Y:     7.2313      Z:     0.1147

  Electronic Dipole Moment: [e a0]
     X:    -2.3455      Y:    -6.0450      Z:    -4.3891

  Dipole Moment: [e a0]
     X:    -0.7546      Y:     1.1862      Z:    -4.2744     Total:     4.4997

  Dipole Moment: [D]
     X:    -1.9181      Y:     3.0151      Z:   -10.8645     Total:    11.4371

*** tstop() called on ds3 at Sun Apr 26 18:09:27 2020
Module time:
	user time   =      50.55 seconds =       0.84 minutes
	system time =      25.53 seconds =       0.43 minutes
	total time  =         73 seconds =       1.22 minutes
Total time:
	user time   =      50.55 seconds =       0.84 minutes
	system time =      25.53 seconds =       0.43 minutes
	total time  =         73 seconds =       1.22 minutes
                                     G D M A

                                 by Anthony Stone

                           version 2.2.06, 22 June 2011

               Distributed Multipoles from Gaussian wavefunctions

Starting at 18:9:27 on 26 Apr 2020

Using SCF density matrix from file ./SSI/SSI-012GLU-068HIE-1-dimer.test.506.fchk

                         Distributed Multipole Analysis

Standard DMA

Positions and radii in angstrom
Multipole moments in atomic units, ea_0^k for rank k

C          x =  1.579534  y =  0.390867  z =  3.278937 angstrom
           Maximum rank =  0   Radius =  0.650 angstrom
                   Q00  =  -0.269340

C          x =  0.776534  y = -0.495133  z =  2.334937 angstrom
           Maximum rank =  0   Radius =  0.650 angstrom
                   Q00  =   0.961163

O          x = -0.390466  y = -0.155133  z =  2.045937 angstrom
           Maximum rank =  0   Radius =  0.650 angstrom
                   Q00  =  -0.898478

O          x =  1.320534  y = -1.526133  z =  1.878937 angstrom
           Maximum rank =  0   Radius =  0.650 angstrom
                   Q00  =  -0.937972

H          x =  2.280534  y =  0.965867  z =  2.672937 angstrom
           Maximum rank =  0   Radius =  0.325 angstrom
                   Q00  =   0.064966

H          x =  2.164534  y = -0.212133  z =  3.973937 angstrom
           Maximum rank =  0   Radius =  0.325 angstrom
                   Q00  =   0.051996

H          x =  0.950394  y =  1.116687  z =  3.815005 angstrom
           Maximum rank =  0   Radius =  0.325 angstrom
                   Q00  =   0.042808

C          x = -0.668466  y =  2.285867  z = -0.702063 angstrom
           Maximum rank =  0   Radius =  0.650 angstrom
                   Q00  =  -0.191048

C          x = -0.591466  y =  0.971867  z = -1.426063 angstrom
           Maximum rank =  0   Radius =  0.650 angstrom
                   Q00  =   0.273592

C          x = -0.610466  y = -1.213133  z = -1.686063 angstrom
           Maximum rank =  0   Radius =  0.650 angstrom
                   Q00  =   0.438386

C          x = -0.498466  y =  0.709867  z = -2.756063 angstrom
           Maximum rank =  0   Radius =  0.650 angstrom
                   Q00  =  -0.042839

N          x = -0.660466  y = -0.245133  z = -0.780063 angstrom
           Maximum rank =  0   Radius =  0.650 angstrom
                   Q00  =  -0.714938

N          x = -0.512466  y = -0.661133  z = -2.890063 angstrom
           Maximum rank =  0   Radius =  0.650 angstrom
                   Q00  =  -0.447152

H          x = -0.674466  y = -2.277133  z = -1.484063 angstrom
           Maximum rank =  0   Radius =  0.325 angstrom
                   Q00  =   0.116487

H          x = -0.182466  y =  3.041867  z = -1.314063 angstrom
           Maximum rank =  0   Radius =  0.325 angstrom
                   Q00  =   0.053634

H          x = -0.109466  y =  2.207867  z =  0.229937 angstrom
           Maximum rank =  0   Radius =  0.325 angstrom
                   Q00  =   0.140600

H          x = -0.569466  y = -1.170133  z = -3.771063 angstrom
           Maximum rank =  0   Radius =  0.325 angstrom
                   Q00  =   0.186419

H          x = -0.473466  y =  1.441867  z = -3.552063 angstrom
           Maximum rank =  0   Radius =  0.325 angstrom
                   Q00  =   0.077542

H          x = -1.697506  y =  2.604655  z = -0.479703 angstrom
           Maximum rank =  0   Radius =  0.325 angstrom
                   Q00  =   0.094175

Total multipoles referred to origin at
           x =   0.000000,  y =    0.000000,  z =    0.000000 angstrom
                   Q00  =  -1.000000

Finished at 18:9:28 on 26 Apr 2020

  DMA results are available in the Python driver through the
	  variable('DMA DISTRIBUTED MULTIPOLES')
  and
	  variable('DMA TOTAL MULTIPOLES')
  commands.

    Psi4 stopped on: Sunday, 26 April 2020 06:09PM
    Psi4 wall time for execution: 0:01:13.43

*** Psi4 exiting successfully. Buy a developer a beer!
