                               Psi4 1.3.2 release

  ==> Input File <==

--------------------------------------------------------------------------
import numpy as np
set {scf_type pk
basis cc-pvdz
d_convergence 10
gdma_switch   0
gdma_limit    0
gdma_origin   [ 0.0,  0.0,  0.0 ]
}
molecule test {
    units Angstrom
    -1 1
    --
    -1 1
    C               -0.027071871945389     2.067226587385986     1.946168192145610
    C                0.300928128054611     2.763226587385986     0.641168192145610
    H                0.050928128054611     2.767226587385986     2.779168192145610
    H               -1.046071871945389     1.685226587385986     1.899168192145611
    H                0.646928128054611     1.229226587385986     2.113168192145610
    H                0.286928128054611     2.055226587385986    -0.185831807854390
    H                1.290978028054611     3.239676587385987     0.694028192145610
    H               -0.460223771945389     3.537526587385986     0.464804192145610
    C                1.336928128054611    -1.100773412614014    -0.944831807854389
    C               -0.149071871945389    -1.242773412614014    -0.634831807854390
    O               -0.725071871945389    -0.270773412614014    -0.095831807854390
    O               -0.743071871945389    -2.304773412614014    -0.955831807854389
    H                1.830928128054611    -2.049773412614014    -0.739831807854390
    H                1.800928128054611    -0.335773412614014    -0.324831807854390
    H                1.494823128054611    -0.863933412614014    -2.007363807854390

}
e, wfn = energy('scf', return_wfn=True)
gdma(wfn)
dmavals = variable('DMA DISTRIBUTED MULTIPOLES')
charges = np.array(dmavals)
print(charges)
np.save('SSI-024THR-041GLU-1-dimer.npy', np.array(charges))--------------------------------------------------------------------------

*** tstart() called on ds3
*** at Mon Apr 27 12:43:07 2020

   => Loading Basis Set <=

    Name: CC-PVDZ
    Role: ORBITAL
    Keyword: BASIS
    atoms 1-2, 9-10  entry C          line   138 file /theoryfs2/ds/metcalf/miniconda2/envs/tf2gpu/share/psi4/basis/cc-pvdz.gbs
    atoms 3-8, 13-15 entry H          line    22 file /theoryfs2/ds/metcalf/miniconda2/envs/tf2gpu/share/psi4/basis/cc-pvdz.gbs
    atoms 11-12      entry O          line   198 file /theoryfs2/ds/metcalf/miniconda2/envs/tf2gpu/share/psi4/basis/cc-pvdz.gbs

         ---------------------------------------------------------
                                   SCF
               by Justin Turney, Rob Parrish, Andy Simmonett
                          and Daniel G. A. Smith
                              RHF Reference
                        1 Threads,    500 MiB Core
         ---------------------------------------------------------

  ==> Geometry <==

    Molecular point group: c1
    Full point group: C1

    Geometry (in Angstrom), charge = -1, multiplicity = 1:

       Center              X                  Y                   Z               Mass
    ------------   -----------------  -----------------  -----------------  -----------------
         C           -0.027071871945     2.067226587386     1.946168192146    12.000000000000
         C            0.300928128055     2.763226587386     0.641168192146    12.000000000000
         H            0.050928128055     2.767226587386     2.779168192146     1.007825032230
         H           -1.046071871945     1.685226587386     1.899168192146     1.007825032230
         H            0.646928128055     1.229226587386     2.113168192146     1.007825032230
         H            0.286928128055     2.055226587386    -0.185831807854     1.007825032230
         H            1.290978028055     3.239676587386     0.694028192146     1.007825032230
         H           -0.460223771945     3.537526587386     0.464804192146     1.007825032230
         C            1.336928128055    -1.100773412614    -0.944831807854    12.000000000000
         C           -0.149071871945    -1.242773412614    -0.634831807854    12.000000000000
         O           -0.725071871945    -0.270773412614    -0.095831807854    15.994914619570
         O           -0.743071871945    -2.304773412614    -0.955831807854    15.994914619570
         H            1.830928128055    -2.049773412614    -0.739831807854     1.007825032230
         H            1.800928128055    -0.335773412614    -0.324831807854     1.007825032230
         H            1.494823128055    -0.863933412614    -2.007363807854     1.007825032230

  Running in c1 symmetry.

  Rotational constants: A =      0.22066  B =      0.04175  C =      0.03810 [cm^-1]
  Rotational constants: A =   6615.31289  B =   1251.69827  C =   1142.27707 [MHz]
  Nuclear repulsion =  225.289969036584267

  Charge       = -1
  Multiplicity = 1
  Electrons    = 50
  Nalpha       = 25
  Nbeta        = 25

  ==> Algorithm <==

  SCF Algorithm Type is PK.
  DIIS enabled.
  MOM disabled.
  Fractional occupation disabled.
  Guess Type is SAD.
  Energy threshold   = 1.00e-06
  Density threshold  = 1.00e-10
  Integral threshold = 0.00e+00

  ==> Primary Basis <==

  Basis Set: CC-PVDZ
    Blend: CC-PVDZ
    Number of shells: 63
    Number of basis function: 129
    Number of Cartesian functions: 135
    Spherical Harmonics?: true
    Max angular momentum: 2

  ==> Pre-Iterations <==

   -------------------------------------------------------
    Irrep   Nso     Nmo     Nalpha   Nbeta   Ndocc  Nsocc
   -------------------------------------------------------
     A        129     129       0       0       0       0
   -------------------------------------------------------
    Total     129     129      25      25      25       0
   -------------------------------------------------------

  ==> Integral Setup <==

  Using integral reordering PK algorithm.
  Sizing the integral batches needed.
  Building batch lookup table.
   Calculation information:
      Number of atoms:                  15
      Number of AO shells:              63
      Number of primitives:            177
      Number of atomic orbitals:       135
      Number of basis functions:       129

      Integral cutoff                 1.00e-12
      Number of threads:                 1

	Batch   1 pq = [       0,    8385] index = [             0,35158305] size =     35158305
  Task number: 4
  Buffer size: 11059200
  Buffer per thread: 2
  We computed 1787814 shell quartets total.
  Whereas there are 2033136 unique shell quartets.

  ==> DiskJK: Disk-Based J/K Matrices <==

    J tasked:                  Yes
    K tasked:                  Yes
    wK tasked:                  No
    Memory [MiB]:              375
    Schwarz Cutoff:          1E-12

    OpenMP threads:              1

  Minimum eigenvalue in the overlap matrix is 5.5471194838E-03.
  Using Symmetric Orthogonalization.

  SCF Guess: Superposition of Atomic Densities via on-the-fly atomic UHF.

  ==> Iterations <==

                        Total Energy        Delta E     RMS |[F,P]|

   @RHF iter SAD:  -304.85233793921503   -3.04852e+02   0.00000e+00
   @RHF iter   1:  -306.20909881471783   -1.35676e+00   5.68648e-03 DIIS
   @RHF iter   2:  -306.41092181644080   -2.01823e-01   3.23487e-03 DIIS
   @RHF iter   3:  -306.47525945163886   -6.43376e-02   4.79396e-04 DIIS
   @RHF iter   4:  -306.47786532314666   -2.60587e-03   1.79243e-04 DIIS
   @RHF iter   5:  -306.47825674609038   -3.91423e-04   2.62803e-05 DIIS
   @RHF iter   6:  -306.47826704629358   -1.03002e-05   7.24095e-06 DIIS
   @RHF iter   7:  -306.47826765350203   -6.07208e-07   2.94352e-06 DIIS
   @RHF iter   8:  -306.47826772965544   -7.61534e-08   7.71484e-07 DIIS
   @RHF iter   9:  -306.47826773893064   -9.27520e-09   3.12085e-07 DIIS
   @RHF iter  10:  -306.47826774082995   -1.89931e-09   1.05864e-07 DIIS
   @RHF iter  11:  -306.47826774121143   -3.81476e-10   3.14527e-08 DIIS
   @RHF iter  12:  -306.47826774124093   -2.95017e-11   7.18238e-09 DIIS
   @RHF iter  13:  -306.47826774124314   -2.21689e-12   2.04220e-09 DIIS
   @RHF iter  14:  -306.47826774124303    1.13687e-13   7.08128e-10 DIIS
   @RHF iter  15:  -306.47826774124201    1.02318e-12   2.86617e-10 DIIS
   @RHF iter  16:  -306.47826774124275   -7.38964e-13   1.20913e-10 DIIS
   @RHF iter  17:  -306.47826774124246    2.84217e-13   5.05217e-11 DIIS
  Energy and wave function converged.

  ==> Post-Iterations <==

    Orbital Energies [Eh]
    ---------------------

    Doubly Occupied:

       1A    -20.262952     2A    -20.256627     3A    -11.117515
       4A    -11.084894     5A    -11.081936     6A    -11.050885
       7A     -1.146242     8A     -1.033696     9A     -0.887101
      10A     -0.796796    11A     -0.702697    12A     -0.502574
      13A     -0.466779    14A     -0.464415    15A     -0.411195
      16A     -0.407474    17A     -0.400234    18A     -0.370631
      19A     -0.351709    20A     -0.350633    21A     -0.340541
      22A     -0.302738    23A     -0.182886    24A     -0.171241
      25A     -0.160325

    Virtual:

      26A      0.310022    27A      0.349267    28A      0.360411
      29A      0.372488    30A      0.383687    31A      0.399159
      32A      0.412783    33A      0.450818    34A      0.460892
      35A      0.487658    36A      0.528011    37A      0.579369
      38A      0.683830    39A      0.706747    40A      0.729013
      41A      0.739337    42A      0.780328    43A      0.801359
      44A      0.841404    45A      0.843709    46A      0.873724
      47A      0.948147    48A      0.965627    49A      0.982736
      50A      1.008006    51A      1.010975    52A      1.024178
      53A      1.031543    54A      1.042634    55A      1.049908
      56A      1.053023    57A      1.083545    58A      1.100348
      59A      1.131027    60A      1.152933    61A      1.223772
      62A      1.257509    63A      1.262075    64A      1.341404
      65A      1.348861    66A      1.374768    67A      1.440514
      68A      1.530262    69A      1.575517    70A      1.595944
      71A      1.602469    72A      1.612784    73A      1.618915
      74A      1.665935    75A      1.690557    76A      1.744465
      77A      1.763462    78A      1.820255    79A      1.832427
      80A      1.839017    81A      1.845606    82A      1.994072
      83A      2.019663    84A      2.037660    85A      2.048802
      86A      2.069881    87A      2.085552    88A      2.088110
      89A      2.094425    90A      2.096122    91A      2.098692
      92A      2.155615    93A      2.168009    94A      2.218407
      95A      2.237058    96A      2.251772    97A      2.289881
      98A      2.350472    99A      2.402584   100A      2.429259
     101A      2.439859   102A      2.458805   103A      2.551346
     104A      2.589200   105A      2.601165   106A      2.672754
     107A      2.705454   108A      2.711911   109A      2.726410
     110A      2.771554   111A      2.897532   112A      2.915638
     113A      2.938142   114A      2.978220   115A      2.983735
     116A      2.992627   117A      3.008924   118A      3.086577
     119A      3.101534   120A      3.246399   121A      3.275507
     122A      3.295606   123A      3.357977   124A      3.628237
     125A      3.772085   126A      3.831646   127A      4.049287
     128A      4.103298   129A      4.185568

    Final Occupation by Irrep:
              A
    DOCC [    25 ]

  @RHF Final Energy:  -306.47826774124246

   => Energetics <=

    Nuclear Repulsion Energy =            225.2899690365842673
    One-Electron Energy =                -874.9270401824219334
    Two-Electron Energy =                 343.1588034045952327
    Total Energy =                       -306.4782677412424619

Computation Completed

Properties will be evaluated at   0.000000,   0.000000,   0.000000 [a0]

Properties computed using the SCF density matrix

  Nuclear Dipole Moment: [e a0]
     X:     5.5204      Y:    10.5479      Z:     4.3940

  Electronic Dipole Moment: [e a0]
     X:    -4.0510      Y:    -8.5934      Z:    -3.6981

  Dipole Moment: [e a0]
     X:     1.4694      Y:     1.9545      Z:     0.6959     Total:     2.5424

  Dipole Moment: [D]
     X:     3.7349      Y:     4.9679      Z:     1.7689     Total:     6.4620

*** tstop() called on ds3 at Mon Apr 27 12:43:29 2020
Module time:
	user time   =      16.08 seconds =       0.27 minutes
	system time =       6.88 seconds =       0.11 minutes
	total time  =         22 seconds =       0.37 minutes
Total time:
	user time   =      16.08 seconds =       0.27 minutes
	system time =       6.88 seconds =       0.11 minutes
	total time  =         22 seconds =       0.37 minutes
                                     G D M A

                                 by Anthony Stone

                           version 2.2.06, 22 June 2011

               Distributed Multipoles from Gaussian wavefunctions

Starting at 12:43:29 on 27 Apr 2020

Using SCF density matrix from file ./SSI/SSI-024THR-041GLU-1-dimer.test.3854.fchk

                         Distributed Multipole Analysis

Standard DMA

Positions and radii in angstrom
Multipole moments in atomic units, ea_0^k for rank k

C          x = -0.027072  y =  2.067227  z =  1.946168 angstrom
           Maximum rank =  0   Radius =  0.650 angstrom
                   Q00  =  -0.205864

C          x =  0.300928  y =  2.763227  z =  0.641168 angstrom
           Maximum rank =  0   Radius =  0.650 angstrom
                   Q00  =  -0.198299

H          x =  0.050928  y =  2.767227  z =  2.779168 angstrom
           Maximum rank =  0   Radius =  0.325 angstrom
                   Q00  =   0.010278

H          x = -1.046072  y =  1.685227  z =  1.899168 angstrom
           Maximum rank =  0   Radius =  0.325 angstrom
                   Q00  =   0.105819

H          x =  0.646928  y =  1.229227  z =  2.113168 angstrom
           Maximum rank =  0   Radius =  0.325 angstrom
                   Q00  =   0.088669

H          x =  0.286928  y =  2.055227  z = -0.185832 angstrom
           Maximum rank =  0   Radius =  0.325 angstrom
                   Q00  =   0.114474

H          x =  1.290978  y =  3.239677  z =  0.694028 angstrom
           Maximum rank =  0   Radius =  0.325 angstrom
                   Q00  =   0.027424

H          x = -0.460224  y =  3.537527  z =  0.464804 angstrom
           Maximum rank =  0   Radius =  0.325 angstrom
                   Q00  =   0.040793

C          x =  1.336928  y = -1.100773  z = -0.944832 angstrom
           Maximum rank =  0   Radius =  0.650 angstrom
                   Q00  =  -0.287423

C          x = -0.149072  y = -1.242773  z = -0.634832 angstrom
           Maximum rank =  0   Radius =  0.650 angstrom
                   Q00  =   0.970080

O          x = -0.725072  y = -0.270773  z = -0.095832 angstrom
           Maximum rank =  0   Radius =  0.650 angstrom
                   Q00  =  -0.925039

O          x = -0.743072  y = -2.304773  z = -0.955832 angstrom
           Maximum rank =  0   Radius =  0.650 angstrom
                   Q00  =  -0.931260

H          x =  1.830928  y = -2.049773  z = -0.739832 angstrom
           Maximum rank =  0   Radius =  0.325 angstrom
                   Q00  =   0.057426

H          x =  1.800928  y = -0.335773  z = -0.324832 angstrom
           Maximum rank =  0   Radius =  0.325 angstrom
                   Q00  =   0.056247

H          x =  1.494823  y = -0.863933  z = -2.007364 angstrom
           Maximum rank =  0   Radius =  0.325 angstrom
                   Q00  =   0.076674

Total multipoles referred to origin at
           x =   0.000000,  y =    0.000000,  z =    0.000000 angstrom
                   Q00  =  -1.000000

Finished at 12:43:29 on 27 Apr 2020

  DMA results are available in the Python driver through the
	  variable('DMA DISTRIBUTED MULTIPOLES')
  and
	  variable('DMA TOTAL MULTIPOLES')
  commands.

    Psi4 stopped on: Monday, 27 April 2020 12:43PM
    Psi4 wall time for execution: 0:00:22.45

*** Psi4 exiting successfully. Buy a developer a beer!
