                               Psi4 1.3.2 release

  ==> Input File <==

--------------------------------------------------------------------------
import numpy as np
set {scf_type pk
basis cc-pvdz
d_convergence 10
gdma_switch   0
gdma_limit    0
gdma_origin   [ 0.0,  0.0,  0.0 ]
}
molecule test {
    units Angstrom
    0 1
    --
    0 1
    C               -3.245440414376019    -2.998592815922476    -1.730859783102465
    C               -1.412440414376019    -1.142592815922476    -1.404859783102465
    C               -2.437440414376019    -1.811592815922477    -2.161859783102465
    C               -0.931440414376019    -0.070592815922476    -2.199859783102465
    C               -2.535440414376020    -1.144592815922476    -3.342859783102465
    C                0.158559585623981    -0.474592815922476     0.303140216897535
    C                0.615559585623980     0.576407184077524    -0.509859783102465
    C               -0.848440414376019    -1.339592815922477    -0.136859783102465
    C                0.078559585623981     0.787407184077524    -1.764859783102465
    N               -1.637440414376020    -0.105592815922476    -3.374859783102465
    H                0.604559585623981    -0.634592815922476     1.274140216897536
    H                1.402559585623980     1.226407184077524    -0.150859783102465
    H               -1.144440414376020    -2.178592815922476     0.468140216897535
    H                0.460559585623981     1.563407184077523    -2.399859783102465
    H               -2.590440414376019    -3.691592815922476    -1.200859783102465
    H               -3.608440414376019    -3.516592815922476    -2.619859783102465
    H               -3.230440414376019    -1.395592815922477    -4.136859783102465
    H               -1.538440414376019     0.535407184077524    -4.151859783102465
    H               -4.100715414376019    -2.745522815922476    -1.087073783102465
    C                2.010559585623980     1.313407184077524     3.048140216897535
    C                1.004559585623981     1.446407184077524     4.191140216897535
    S                3.657559585623980     1.959407184077524     3.411140216897535
    H                2.100559585623980     0.255407184077524     2.796140216897535
    H                1.627559585623980     1.837407184077523     2.170140216897535
    H                0.939559585623981     2.491407184077524     4.488140216897536
    H                4.283559585623981     1.432407184077523     2.353140216897535
    H                1.307939585623980     0.826877184077524     5.047964216897536
    H                0.016786585623981     1.150577184077524     3.808008216897535

}
e, wfn = energy('scf', return_wfn=True)
gdma(wfn)
dmavals = variable('DMA DISTRIBUTED MULTIPOLES')
charges = np.array(dmavals)
print(charges)
np.save('SSI-136TRP-155CYS-1-dimer.npy', np.array(charges))--------------------------------------------------------------------------

*** tstart() called on ds3
*** at Mon Apr 27 07:12:51 2020

   => Loading Basis Set <=

    Name: CC-PVDZ
    Role: ORBITAL
    Keyword: BASIS
    atoms 1-9, 20-21   entry C          line   138 file /theoryfs2/ds/metcalf/miniconda2/envs/tf2gpu/share/psi4/basis/cc-pvdz.gbs
    atoms 10           entry N          line   168 file /theoryfs2/ds/metcalf/miniconda2/envs/tf2gpu/share/psi4/basis/cc-pvdz.gbs
    atoms 11-19, 23-28 entry H          line    22 file /theoryfs2/ds/metcalf/miniconda2/envs/tf2gpu/share/psi4/basis/cc-pvdz.gbs
    atoms 22           entry S          line   598 file /theoryfs2/ds/metcalf/miniconda2/envs/tf2gpu/share/psi4/basis/cc-pvdz.gbs

         ---------------------------------------------------------
                                   SCF
               by Justin Turney, Rob Parrish, Andy Simmonett
                          and Daniel G. A. Smith
                              RHF Reference
                        1 Threads,    500 MiB Core
         ---------------------------------------------------------

  ==> Geometry <==

    Molecular point group: c1
    Full point group: C1

    Geometry (in Angstrom), charge = 0, multiplicity = 1:

       Center              X                  Y                   Z               Mass
    ------------   -----------------  -----------------  -----------------  -----------------
         C           -3.245440414376    -2.998592815922    -1.730859783102    12.000000000000
         C           -1.412440414376    -1.142592815922    -1.404859783102    12.000000000000
         C           -2.437440414376    -1.811592815922    -2.161859783102    12.000000000000
         C           -0.931440414376    -0.070592815922    -2.199859783102    12.000000000000
         C           -2.535440414376    -1.144592815922    -3.342859783102    12.000000000000
         C            0.158559585624    -0.474592815922     0.303140216898    12.000000000000
         C            0.615559585624     0.576407184078    -0.509859783102    12.000000000000
         C           -0.848440414376    -1.339592815922    -0.136859783102    12.000000000000
         C            0.078559585624     0.787407184078    -1.764859783102    12.000000000000
         N           -1.637440414376    -0.105592815922    -3.374859783102    14.003074004430
         H            0.604559585624    -0.634592815922     1.274140216898     1.007825032230
         H            1.402559585624     1.226407184078    -0.150859783102     1.007825032230
         H           -1.144440414376    -2.178592815922     0.468140216898     1.007825032230
         H            0.460559585624     1.563407184078    -2.399859783102     1.007825032230
         H           -2.590440414376    -3.691592815922    -1.200859783102     1.007825032230
         H           -3.608440414376    -3.516592815922    -2.619859783102     1.007825032230
         H           -3.230440414376    -1.395592815922    -4.136859783102     1.007825032230
         H           -1.538440414376     0.535407184078    -4.151859783102     1.007825032230
         H           -4.100715414376    -2.745522815922    -1.087073783102     1.007825032230
         C            2.010559585624     1.313407184078     3.048140216898    12.000000000000
         C            1.004559585624     1.446407184078     4.191140216898    12.000000000000
         S            3.657559585624     1.959407184078     3.411140216898    31.972071174400
         H            2.100559585624     0.255407184078     2.796140216898     1.007825032230
         H            1.627559585624     1.837407184078     2.170140216898     1.007825032230
         H            0.939559585624     2.491407184078     4.488140216898     1.007825032230
         H            4.283559585624     1.432407184078     2.353140216898     1.007825032230
         H            1.307939585624     0.826877184078     5.047964216898     1.007825032230
         H            0.016786585624     1.150577184078     3.808008216898     1.007825032230

  Running in c1 symmetry.

  Rotational constants: A =      0.05679  B =      0.00687  C =      0.00633 [cm^-1]
  Rotational constants: A =   1702.55246  B =    205.96495  C =    189.77859 [MHz]
  Nuclear repulsion =  783.113862837850093

  Charge       = 0
  Multiplicity = 1
  Electrons    = 104
  Nalpha       = 52
  Nbeta        = 52

  ==> Algorithm <==

  SCF Algorithm Type is PK.
  DIIS enabled.
  MOM disabled.
  Fractional occupation disabled.
  Guess Type is SAD.
  Energy threshold   = 1.00e-06
  Density threshold  = 1.00e-10
  Integral threshold = 0.00e+00

  ==> Primary Basis <==

  Basis Set: CC-PVDZ
    Blend: CC-PVDZ
    Number of shells: 125
    Number of basis function: 261
    Number of Cartesian functions: 274
    Spherical Harmonics?: true
    Max angular momentum: 2

  ==> Pre-Iterations <==

   -------------------------------------------------------
    Irrep   Nso     Nmo     Nalpha   Nbeta   Ndocc  Nsocc
   -------------------------------------------------------
     A        261     261       0       0       0       0
   -------------------------------------------------------
    Total     261     261      52      52      52       0
   -------------------------------------------------------

  ==> Integral Setup <==

  Using integral reordering PK algorithm.
  Sizing the integral batches needed.
  Building batch lookup table.
   Calculation information:
      Number of atoms:                  28
      Number of AO shells:             125
      Number of primitives:            389
      Number of atomic orbitals:       274
      Number of basis functions:       261

      Integral cutoff                 1.00e-12
      Number of threads:                 1

	Batch   1 pq = [       0,    9405] index = [             0,44231715] size =     44231715
	Batch   2 pq = [    9405,   13301] index = [      44231715,88464951] size =     44233236
	Batch   3 pq = [   13301,   16290] index = [      88464951,132690195] size =     44225244
	Batch   4 pq = [   16290,   18810] index = [     132690195,176917455] size =     44227260
	Batch   5 pq = [   18810,   21030] index = [     176917455,221140965] size =     44223510
	Batch   6 pq = [   21030,   23037] index = [     221140965,265363203] size =     44222238
	Batch   7 pq = [   23037,   24883] index = [     265363203,309594286] size =     44231083
	Batch   8 pq = [   24883,   26601] index = [     309594286,353819901] size =     44225615
	Batch   9 pq = [   26601,   28214] index = [     353819901,398029005] size =     44209104
	Batch  10 pq = [   28214,   29740] index = [     398029005,442248670] size =     44219665
	Batch  11 pq = [   29740,   31191] index = [     442248670,486454836] size =     44206166
	Batch  12 pq = [   31191,   32578] index = [     486454836,530679331] size =     44224495
	Batch  13 pq = [   32578,   33908] index = [     530679331,574893186] size =     44213855
	Batch  14 pq = [   33908,   34191] index = [     574893186,584529336] size =      9636150
  Task number: 53
  Buffer size: 11059200
  Buffer per thread: 2
  We computed 23320941 shell quartets total.
  Whereas there are 31011750 unique shell quartets.

  ==> DiskJK: Disk-Based J/K Matrices <==

    J tasked:                  Yes
    K tasked:                  Yes
    wK tasked:                  No
    Memory [MiB]:              375
    Schwarz Cutoff:          1E-12

    OpenMP threads:              1

  Minimum eigenvalue in the overlap matrix is 2.3881835772E-04.
  Using Symmetric Orthogonalization.

  SCF Guess: Superposition of Atomic Densities via on-the-fly atomic UHF.

  ==> Iterations <==

                        Total Energy        Delta E     RMS |[F,P]|

   @RHF iter SAD:  -876.66008498876693   -8.76660e+02   0.00000e+00
   @RHF iter   1:  -877.01886965762390   -3.58785e-01   2.38096e-03 DIIS
   @RHF iter   2:  -877.25181607845047   -2.32946e-01   1.04381e-03 DIIS
   @RHF iter   3:  -877.29153929942868   -3.97232e-02   2.93255e-04 DIIS
   @RHF iter   4:  -877.29566603743478   -4.12674e-03   1.26307e-04 DIIS
   @RHF iter   5:  -877.29629055036276   -6.24513e-04   1.99407e-05 DIIS
   @RHF iter   6:  -877.29632202182813   -3.14715e-05   8.82048e-06 DIIS
   @RHF iter   7:  -877.29632821851214   -6.19668e-06   3.49663e-06 DIIS
   @RHF iter   8:  -877.29632981213956   -1.59363e-06   1.40100e-06 DIIS
   @RHF iter   9:  -877.29633014681303   -3.34673e-07   6.36239e-07 DIIS
   @RHF iter  10:  -877.29633021282871   -6.60157e-08   2.93402e-07 DIIS
   @RHF iter  11:  -877.29633023036513   -1.75364e-08   1.06727e-07 DIIS
   @RHF iter  12:  -877.29633023281701   -2.45188e-09   3.52390e-08 DIIS
   @RHF iter  13:  -877.29633023298152   -1.64505e-10   1.11972e-08 DIIS
   @RHF iter  14:  -877.29633023299243   -1.09139e-11   4.14502e-09 DIIS
   @RHF iter  15:  -877.29633023299618   -3.75167e-12   2.03848e-09 DIIS
   @RHF iter  16:  -877.29633023299164    4.54747e-12   9.14099e-10 DIIS
   @RHF iter  17:  -877.29633023299732   -5.68434e-12   4.40844e-10 DIIS
   @RHF iter  18:  -877.29633023299141    5.91172e-12   1.67253e-10 DIIS
   @RHF iter  19:  -877.29633023299448   -3.06954e-12   5.85545e-11 DIIS
  Energy and wave function converged.

  ==> Post-Iterations <==

    Orbital Energies [Eh]
    ---------------------

    Doubly Occupied:

       1A    -91.940374     2A    -15.604335     3A    -11.268091
       4A    -11.266627     5A    -11.259599     6A    -11.234890
       7A    -11.234131     8A    -11.233211     9A    -11.232840
      10A    -11.229337    11A    -11.226143    12A    -11.224257
      13A    -11.220288    14A     -8.943900    15A     -6.626034
      16A     -6.624595    17A     -6.622205    18A     -1.298335
      19A     -1.131033    20A     -1.075797    21A     -1.068181
      22A     -0.999821    23A     -0.991538    24A     -0.943701
      25A     -0.933852    26A     -0.843809    27A     -0.809124
      28A     -0.807183    29A     -0.755868    30A     -0.723757
      31A     -0.667245    32A     -0.646806    33A     -0.628250
      34A     -0.609337    35A     -0.605977    36A     -0.594386
      37A     -0.593651    38A     -0.570207    39A     -0.555066
      40A     -0.540945    41A     -0.534255    42A     -0.530497
      43A     -0.512619    44A     -0.500375    45A     -0.497526
      46A     -0.474940    47A     -0.464142    48A     -0.439093
      49A     -0.375685    50A     -0.347408    51A     -0.298222
      52A     -0.279114

    Virtual:

      53A      0.121231    54A      0.151959    55A      0.163667
      56A      0.179292    57A      0.188123    58A      0.201903
      59A      0.207550    60A      0.220720    61A      0.222527
      62A      0.228809    63A      0.236147    64A      0.240879
      65A      0.255793    66A      0.259983    67A      0.276557
      68A      0.285055    69A      0.290726    70A      0.319476
      71A      0.355649    72A      0.364772    73A      0.371655
      74A      0.382272    75A      0.402654    76A      0.433088
      77A      0.434587    78A      0.465928    79A      0.480354
      80A      0.493680    81A      0.506151    82A      0.516489
      83A      0.582367    84A      0.592604    85A      0.597937
      86A      0.607537    87A      0.633058    88A      0.638231
      89A      0.642208    90A      0.662684    91A      0.666929
      92A      0.678884    93A      0.688058    94A      0.700286
      95A      0.715642    96A      0.720198    97A      0.720845
      98A      0.728656    99A      0.735977   100A      0.737807
     101A      0.741079   102A      0.758514   103A      0.764916
     104A      0.769586   105A      0.778790   106A      0.788038
     107A      0.795096   108A      0.796628   109A      0.820060
     110A      0.838317   111A      0.842168   112A      0.862451
     113A      0.865049   114A      0.874584   115A      0.878089
     116A      0.878742   117A      0.888144   118A      0.895632
     119A      0.902846   120A      0.906120   121A      0.917938
     122A      0.929018   123A      0.938373   124A      0.948453
     125A      0.949978   126A      0.960392   127A      0.966924
     128A      0.967741   129A      0.975604   130A      0.991451
     131A      1.012787   132A      1.028621   133A      1.055211
     134A      1.068865   135A      1.092198   136A      1.123300
     137A      1.133750   138A      1.142525   139A      1.163831
     140A      1.185451   141A      1.199118   142A      1.209612
     143A      1.222056   144A      1.226215   145A      1.231351
     146A      1.248004   147A      1.253136   148A      1.271741
     149A      1.284685   150A      1.292338   151A      1.299984
     152A      1.321053   153A      1.324294   154A      1.338542
     155A      1.356287   156A      1.384671   157A      1.397320
     158A      1.412786   159A      1.448359   160A      1.477987
     161A      1.517896   162A      1.549197   163A      1.568335
     164A      1.590859   165A      1.622023   166A      1.622896
     167A      1.632504   168A      1.639893   169A      1.650219
     170A      1.671378   171A      1.683319   172A      1.698911
     173A      1.716745   174A      1.734028   175A      1.745079
     176A      1.757193   177A      1.770148   178A      1.784064
     179A      1.806325   180A      1.818479   181A      1.829473
     182A      1.864133   183A      1.870966   184A      1.877098
     185A      1.879358   186A      1.885946   187A      1.899814
     188A      1.906060   189A      1.907106   190A      1.927282
     191A      1.930311   192A      1.939845   193A      1.943941
     194A      1.958784   195A      1.976483   196A      1.988018
     197A      2.000578   198A      2.007119   199A      2.009526
     200A      2.021662   201A      2.044828   202A      2.046983
     203A      2.069306   204A      2.078092   205A      2.082090
     206A      2.098120   207A      2.111944   208A      2.116638
     209A      2.120772   210A      2.147447   211A      2.153906
     212A      2.188842   213A      2.193421   214A      2.219892
     215A      2.243652   216A      2.255301   217A      2.276107
     218A      2.283582   219A      2.303769   220A      2.310806
     221A      2.314149   222A      2.338958   223A      2.352673
     224A      2.396984   225A      2.407009   226A      2.411353
     227A      2.447101   228A      2.457255   229A      2.462093
     230A      2.534360   231A      2.539497   232A      2.566168
     233A      2.583312   234A      2.598551   235A      2.630641
     236A      2.661587   237A      2.678366   238A      2.700602
     239A      2.756050   240A      2.766233   241A      2.783907
     242A      2.785402   243A      2.793279   244A      2.801211
     245A      2.819855   246A      2.824583   247A      2.867410
     248A      2.873021   249A      2.881568   250A      2.921053
     251A      2.955782   252A      2.966822   253A      3.030485
     254A      3.046469   255A      3.069701   256A      3.115462
     257A      3.198114   258A      3.302437   259A      3.378246
     260A      3.738717   261A      3.943226

    Final Occupation by Irrep:
              A
    DOCC [    52 ]

  @RHF Final Energy:  -877.29633023299448

   => Energetics <=

    Nuclear Repulsion Energy =            783.1138628378500925
    One-Electron Energy =               -2753.5431796861948897
    Two-Electron Energy =                1093.1329866153503190
    Total Energy =                       -877.2963302329944781

Computation Completed

Properties will be evaluated at   0.000000,   0.000000,   0.000000 [a0]

Properties computed using the SCF density matrix

  Nuclear Dipole Moment: [e a0]
     X:    -3.1511      Y:    -2.6134      Z:     6.3420

  Electronic Dipole Moment: [e a0]
     X:     2.4193      Y:     2.4341      Z:    -7.5433

  Dipole Moment: [e a0]
     X:    -0.7318      Y:    -0.1793      Z:    -1.2013     Total:     1.4180

  Dipole Moment: [D]
     X:    -1.8600      Y:    -0.4556      Z:    -3.0534     Total:     3.6042

*** tstop() called on ds3 at Mon Apr 27 07:19:37 2020
Module time:
	user time   =     220.69 seconds =       3.68 minutes
	system time =      94.31 seconds =       1.57 minutes
	total time  =        406 seconds =       6.77 minutes
Total time:
	user time   =     220.69 seconds =       3.68 minutes
	system time =      94.31 seconds =       1.57 minutes
	total time  =        406 seconds =       6.77 minutes
                                     G D M A

                                 by Anthony Stone

                           version 2.2.06, 22 June 2011

               Distributed Multipoles from Gaussian wavefunctions

Starting at 7:19:37 on 27 Apr 2020

Using SCF density matrix from file ./SSI/SSI-136TRP-155CYS-1-dimer.test.26252.fchk

                         Distributed Multipole Analysis

Standard DMA

Positions and radii in angstrom
Multipole moments in atomic units, ea_0^k for rank k

C          x = -3.245440  y = -2.998593  z = -1.730860 angstrom
           Maximum rank =  0   Radius =  0.650 angstrom
                   Q00  =  -0.209754

C          x = -1.412440  y = -1.142593  z = -1.404860 angstrom
           Maximum rank =  0   Radius =  0.650 angstrom
                   Q00  =  -0.050144

C          x = -2.437440  y = -1.811593  z = -2.161860 angstrom
           Maximum rank =  0   Radius =  0.650 angstrom
                   Q00  =  -0.125251

C          x = -0.931440  y = -0.070593  z = -2.199860 angstrom
           Maximum rank =  0   Radius =  0.650 angstrom
                   Q00  =   0.295810

C          x = -2.535440  y = -1.144593  z = -3.342860 angstrom
           Maximum rank =  0   Radius =  0.650 angstrom
                   Q00  =   0.076046

C          x =  0.158560  y = -0.474593  z =  0.303140 angstrom
           Maximum rank =  0   Radius =  0.650 angstrom
                   Q00  =  -0.085656

C          x =  0.615560  y =  0.576407  z = -0.509860 angstrom
           Maximum rank =  0   Radius =  0.650 angstrom
                   Q00  =  -0.081175

C          x = -0.848440  y = -1.339593  z = -0.136860 angstrom
           Maximum rank =  0   Radius =  0.650 angstrom
                   Q00  =  -0.094081

C          x =  0.078560  y =  0.787407  z = -1.764860 angstrom
           Maximum rank =  0   Radius =  0.650 angstrom
                   Q00  =  -0.114377

N          x = -1.637440  y = -0.105593  z = -3.374860 angstrom
           Maximum rank =  0   Radius =  0.650 angstrom
                   Q00  =  -0.497345

H          x =  0.604560  y = -0.634593  z =  1.274140 angstrom
           Maximum rank =  0   Radius =  0.325 angstrom
                   Q00  =   0.056745

H          x =  1.402560  y =  1.226407  z = -0.150860 angstrom
           Maximum rank =  0   Radius =  0.325 angstrom
                   Q00  =   0.061193

H          x = -1.144440  y = -2.178593  z =  0.468140 angstrom
           Maximum rank =  0   Radius =  0.325 angstrom
                   Q00  =   0.071080

H          x =  0.460560  y =  1.563407  z = -2.399860 angstrom
           Maximum rank =  0   Radius =  0.325 angstrom
                   Q00  =   0.073723

H          x = -2.590440  y = -3.691593  z = -1.200860 angstrom
           Maximum rank =  0   Radius =  0.325 angstrom
                   Q00  =   0.101343

H          x = -3.608440  y = -3.516593  z = -2.619860 angstrom
           Maximum rank =  0   Radius =  0.325 angstrom
                   Q00  =   0.103381

H          x = -3.230440  y = -1.395593  z = -4.136860 angstrom
           Maximum rank =  0   Radius =  0.325 angstrom
                   Q00  =   0.101310

H          x = -1.538440  y =  0.535407  z = -4.151860 angstrom
           Maximum rank =  0   Radius =  0.325 angstrom
                   Q00  =   0.216673

H          x = -4.100715  y = -2.745523  z = -1.087074 angstrom
           Maximum rank =  0   Radius =  0.325 angstrom
                   Q00  =   0.099743

C          x =  2.010560  y =  1.313407  z =  3.048140 angstrom
           Maximum rank =  0   Radius =  0.650 angstrom
                   Q00  =  -0.181496

C          x =  1.004560  y =  1.446407  z =  4.191140 angstrom
           Maximum rank =  0   Radius =  0.650 angstrom
                   Q00  =  -0.229998

S          x =  3.657560  y =  1.959407  z =  3.411140 angstrom
           Maximum rank =  0   Radius =  0.650 angstrom
                   Q00  =  -0.107491

H          x =  2.100560  y =  0.255407  z =  2.796140 angstrom
           Maximum rank =  0   Radius =  0.325 angstrom
                   Q00  =   0.066484

H          x =  1.627560  y =  1.837407  z =  2.170140 angstrom
           Maximum rank =  0   Radius =  0.325 angstrom
                   Q00  =   0.064489

H          x =  0.939560  y =  2.491407  z =  4.488140 angstrom
           Maximum rank =  0   Radius =  0.325 angstrom
                   Q00  =   0.088222

H          x =  4.283560  y =  1.432407  z =  2.353140 angstrom
           Maximum rank =  0   Radius =  0.325 angstrom
                   Q00  =   0.112115

H          x =  1.307940  y =  0.826877  z =  5.047964 angstrom
           Maximum rank =  0   Radius =  0.325 angstrom
                   Q00  =   0.090223

H          x =  0.016787  y =  1.150577  z =  3.808008 angstrom
           Maximum rank =  0   Radius =  0.325 angstrom
                   Q00  =   0.098187

Total multipoles referred to origin at
           x =   0.000000,  y =    0.000000,  z =    0.000000 angstrom
                   Q00  =  -0.000000

Finished at 7:19:37 on 27 Apr 2020

  DMA results are available in the Python driver through the
	  variable('DMA DISTRIBUTED MULTIPOLES')
  and
	  variable('DMA TOTAL MULTIPOLES')
  commands.

    Psi4 stopped on: Monday, 27 April 2020 07:19AM
    Psi4 wall time for execution: 0:06:46.90

*** Psi4 exiting successfully. Buy a developer a beer!
