                               Psi4 1.3.2 release

  ==> Input File <==

--------------------------------------------------------------------------
import numpy as np
set {scf_type pk
basis cc-pvdz
d_convergence 10
gdma_switch   0
gdma_limit    0
gdma_origin   [ 0.0,  0.0,  0.0 ]
}
molecule test {
    units Angstrom
    0 1
    --
    0 1
    C               -2.475089294272132     2.665759028646884     1.566610689237586
    C               -1.909089294272132     3.164759028646884     2.902610689237586
    H               -3.473089294272131     3.062759028646884     1.406610689237586
    H               -1.842089294272132     3.009759028646884     0.748610689237586
    H               -2.511089294272132     1.575759028646884     1.555610689237586
    H               -2.006089294272132     4.250759028646883     2.911610689237586
    H               -2.474729294272132     2.730859028646884     3.740330689237586
    H               -0.843979294272132     2.908729028646884     3.002580689237586
    C                2.564910705727868     1.221759028646884     0.216610689237586
    C                0.233910705727868     0.269759028646884     0.185610689237586
    C                1.574910705727868     0.144759028646884    -0.177389310762414
    C               -0.714089294272132    -0.691240971353116    -0.212389310762414
    C                1.957910705727868    -0.912240971353116    -1.006389310762414
    C               -0.313089294272132    -1.759240971353116    -0.997389310762414
    C                1.018910705727868    -1.868240971353116    -1.412389310762414
    O               -1.256089294272132    -2.662240971353116    -1.408389310762414
    H               -0.081089294272132     1.108759028646884     0.784610689237586
    H               -1.747089294272132    -0.601240971353116     0.087610689237586
    H                3.458910705727868     0.741759028646884     0.612610689237586
    H                2.143910705727869     1.841759028646884     1.008610689237586
    H                2.985910705727868    -1.003240971353116    -1.328389310762414
    H                1.322910705727868    -2.686240971353116    -2.049389310762414
    H               -0.945089294272132    -3.171240971353116    -2.186389310762415
    H                2.858060705727868     1.861099028646884    -0.629149310762414

}
e, wfn = energy('scf', return_wfn=True)
gdma(wfn)
dmavals = variable('DMA DISTRIBUTED MULTIPOLES')
charges = np.array(dmavals)
print(charges)
np.save('SSI-003VAL-121TYR-1-dimer.npy', np.array(charges))--------------------------------------------------------------------------

*** tstart() called on ds3
*** at Tue Apr 28 20:05:06 2020

   => Loading Basis Set <=

    Name: CC-PVDZ
    Role: ORBITAL
    Keyword: BASIS
    atoms 1-2, 9-15  entry C          line   138 file /theoryfs2/ds/metcalf/miniconda2/envs/tf2gpu/share/psi4/basis/cc-pvdz.gbs
    atoms 3-8, 17-24 entry H          line    22 file /theoryfs2/ds/metcalf/miniconda2/envs/tf2gpu/share/psi4/basis/cc-pvdz.gbs
    atoms 16         entry O          line   198 file /theoryfs2/ds/metcalf/miniconda2/envs/tf2gpu/share/psi4/basis/cc-pvdz.gbs

         ---------------------------------------------------------
                                   SCF
               by Justin Turney, Rob Parrish, Andy Simmonett
                          and Daniel G. A. Smith
                              RHF Reference
                        1 Threads,    500 MiB Core
         ---------------------------------------------------------

  ==> Geometry <==

    Molecular point group: c1
    Full point group: C1

    Geometry (in Angstrom), charge = 0, multiplicity = 1:

       Center              X                  Y                   Z               Mass
    ------------   -----------------  -----------------  -----------------  -----------------
         C           -2.475089294272     2.665759028647     1.566610689238    12.000000000000
         C           -1.909089294272     3.164759028647     2.902610689238    12.000000000000
         H           -3.473089294272     3.062759028647     1.406610689238     1.007825032230
         H           -1.842089294272     3.009759028647     0.748610689238     1.007825032230
         H           -2.511089294272     1.575759028647     1.555610689238     1.007825032230
         H           -2.006089294272     4.250759028647     2.911610689238     1.007825032230
         H           -2.474729294272     2.730859028647     3.740330689238     1.007825032230
         H           -0.843979294272     2.908729028647     3.002580689238     1.007825032230
         C            2.564910705728     1.221759028647     0.216610689238    12.000000000000
         C            0.233910705728     0.269759028647     0.185610689238    12.000000000000
         C            1.574910705728     0.144759028647    -0.177389310762    12.000000000000
         C           -0.714089294272    -0.691240971353    -0.212389310762    12.000000000000
         C            1.957910705728    -0.912240971353    -1.006389310762    12.000000000000
         C           -0.313089294272    -1.759240971353    -0.997389310762    12.000000000000
         C            1.018910705728    -1.868240971353    -1.412389310762    12.000000000000
         O           -1.256089294272    -2.662240971353    -1.408389310762    15.994914619570
         H           -0.081089294272     1.108759028647     0.784610689238     1.007825032230
         H           -1.747089294272    -0.601240971353     0.087610689238     1.007825032230
         H            3.458910705728     0.741759028647     0.612610689238     1.007825032230
         H            2.143910705728     1.841759028647     1.008610689238     1.007825032230
         H            2.985910705728    -1.003240971353    -1.328389310762     1.007825032230
         H            1.322910705728    -2.686240971353    -2.049389310762     1.007825032230
         H           -0.945089294272    -3.171240971353    -2.186389310762     1.007825032230
         H            2.858060705728     1.861099028647    -0.629149310762     1.007825032230

  Running in c1 symmetry.

  Rotational constants: A =      0.05012  B =      0.01998  C =      0.01459 [cm^-1]
  Rotational constants: A =   1502.63124  B =    599.02578  C =    437.35612 [MHz]
  Nuclear repulsion =  483.774056409131163

  Charge       = 0
  Multiplicity = 1
  Electrons    = 76
  Nalpha       = 38
  Nbeta        = 38

  ==> Algorithm <==

  SCF Algorithm Type is PK.
  DIIS enabled.
  MOM disabled.
  Fractional occupation disabled.
  Guess Type is SAD.
  Energy threshold   = 1.00e-06
  Density threshold  = 1.00e-10
  Integral threshold = 0.00e+00

  ==> Primary Basis <==

  Basis Set: CC-PVDZ
    Blend: CC-PVDZ
    Number of shells: 102
    Number of basis function: 210
    Number of Cartesian functions: 220
    Spherical Harmonics?: true
    Max angular momentum: 2

  ==> Pre-Iterations <==

   -------------------------------------------------------
    Irrep   Nso     Nmo     Nalpha   Nbeta   Ndocc  Nsocc
   -------------------------------------------------------
     A        210     210       0       0       0       0
   -------------------------------------------------------
    Total     210     210      38      38      38       0
   -------------------------------------------------------

  ==> Integral Setup <==

  Using integral reordering PK algorithm.
  Sizing the integral batches needed.
  Building batch lookup table.
   Calculation information:
      Number of atoms:                  24
      Number of AO shells:             102
      Number of primitives:            290
      Number of atomic orbitals:       220
      Number of basis functions:       210

      Integral cutoff                 1.00e-12
      Number of threads:                 1

	Batch   1 pq = [       0,    9405] index = [             0,44231715] size =     44231715
	Batch   2 pq = [    9405,   13301] index = [      44231715,88464951] size =     44233236
	Batch   3 pq = [   13301,   16290] index = [      88464951,132690195] size =     44225244
	Batch   4 pq = [   16290,   18810] index = [     132690195,176917455] size =     44227260
	Batch   5 pq = [   18810,   21030] index = [     176917455,221140965] size =     44223510
	Batch   6 pq = [   21030,   22155] index = [     221140965,245433090] size =     24292125
  Task number: 23
  Buffer size: 11059200
  Buffer per thread: 2
  We computed 10695264 shell quartets total.
  Whereas there are 13799631 unique shell quartets.

  ==> DiskJK: Disk-Based J/K Matrices <==

    J tasked:                  Yes
    K tasked:                  Yes
    wK tasked:                  No
    Memory [MiB]:              375
    Schwarz Cutoff:          1E-12

    OpenMP threads:              1

  Minimum eigenvalue in the overlap matrix is 3.2356133045E-04.
  Using Symmetric Orthogonalization.

  SCF Guess: Superposition of Atomic Densities via on-the-fly atomic UHF.

  ==> Iterations <==

                        Total Energy        Delta E     RMS |[F,P]|

   @RHF iter SAD:  -422.59151025195717   -4.22592e+02   0.00000e+00
   @RHF iter   1:  -423.60219009943370   -1.01068e+00   2.96297e-03 DIIS
   @RHF iter   2:  -423.81751265830707   -2.15323e-01   1.25043e-03 DIIS
   @RHF iter   3:  -423.85192357581280   -3.44109e-02   2.84467e-04 DIIS
   @RHF iter   4:  -423.85480734738746   -2.88377e-03   1.17257e-04 DIIS
   @RHF iter   5:  -423.85515962947079   -3.52282e-04   2.06884e-05 DIIS
   @RHF iter   6:  -423.85517708051134   -1.74510e-05   6.44109e-06 DIIS
   @RHF iter   7:  -423.85517870174476   -1.62123e-06   2.09688e-06 DIIS
   @RHF iter   8:  -423.85517891856540   -2.16821e-07   7.79610e-07 DIIS
   @RHF iter   9:  -423.85517895031660   -3.17512e-08   2.66731e-07 DIIS
   @RHF iter  10:  -423.85517895528164   -4.96505e-09   1.05119e-07 DIIS
   @RHF iter  11:  -423.85517895652549   -1.24385e-09   4.78621e-08 DIIS
   @RHF iter  12:  -423.85517895681426   -2.88765e-10   2.66202e-08 DIIS
   @RHF iter  13:  -423.85517895689190   -7.76481e-11   7.87685e-09 DIIS
   @RHF iter  14:  -423.85517895690276   -1.08571e-11   2.08206e-09 DIIS
   @RHF iter  15:  -423.85517895689975    3.01270e-12   8.08220e-10 DIIS
   @RHF iter  16:  -423.85517895689924    5.11591e-13   2.92707e-10 DIIS
   @RHF iter  17:  -423.85517895690089   -1.64846e-12   1.41036e-10 DIIS
   @RHF iter  18:  -423.85517895690151   -6.25278e-13   7.00720e-11 DIIS
  Energy and wave function converged.

  ==> Post-Iterations <==

    Orbital Energies [Eh]
    ---------------------

    Doubly Occupied:

       1A    -20.582291     2A    -11.297622     3A    -11.240269
       4A    -11.237435     5A    -11.235694     6A    -11.234113
       7A    -11.229518     8A    -11.228351     9A    -11.221919
      10A    -11.218855    11A     -1.392046    12A     -1.147064
      13A     -1.035069    14A     -1.019585    15A     -1.014076
      16A     -0.924434    17A     -0.843456    18A     -0.839157
      19A     -0.797819    20A     -0.726804    21A     -0.664017
      22A     -0.640152    23A     -0.609876    24A     -0.602182
      25A     -0.599136    26A     -0.584337    27A     -0.583216
      28A     -0.568873    29A     -0.562029    30A     -0.524333
      31A     -0.501427    32A     -0.496135    33A     -0.489359
      34A     -0.487124    35A     -0.484221    36A     -0.464766
      37A     -0.335348    38A     -0.302953

    Virtual:

      39A      0.128088    40A      0.154475    41A      0.165391
      42A      0.180783    43A      0.196155    44A      0.206824
      45A      0.225903    46A      0.233023    47A      0.245071
      48A      0.264980    49A      0.272716    50A      0.274368
      51A      0.278639    52A      0.301298    53A      0.323061
      54A      0.337051    55A      0.372642    56A      0.382014
      57A      0.391696    58A      0.426652    59A      0.455630
      60A      0.489539    61A      0.494614    62A      0.507634
      63A      0.597333    64A      0.602707    65A      0.613302
      66A      0.620990    67A      0.635159    68A      0.655360
      69A      0.661834    70A      0.680932    71A      0.684382
      72A      0.695990    73A      0.712996    74A      0.724661
      75A      0.730059    76A      0.742814    77A      0.765647
      78A      0.771891    79A      0.780481    80A      0.794041
      81A      0.808792    82A      0.829096    83A      0.836279
      84A      0.842447    85A      0.857056    86A      0.875335
      87A      0.879967    88A      0.889286    89A      0.892377
      90A      0.895557    91A      0.903212    92A      0.908048
      93A      0.919615    94A      0.922731    95A      0.935039
      96A      0.950898    97A      0.970881    98A      0.980551
      99A      1.003102   100A      1.015199   101A      1.050823
     102A      1.082796   103A      1.107740   104A      1.123071
     105A      1.134162   106A      1.139061   107A      1.144916
     108A      1.177499   109A      1.216728   110A      1.239758
     111A      1.243463   112A      1.251549   113A      1.263042
     114A      1.293006   115A      1.296882   116A      1.305323
     117A      1.348797   118A      1.360874   119A      1.379513
     120A      1.387110   121A      1.468231   122A      1.482608
     123A      1.488281   124A      1.503447   125A      1.527805
     126A      1.559118   127A      1.593864   128A      1.621206
     129A      1.627376   130A      1.676929   131A      1.679678
     132A      1.690217   133A      1.702325   134A      1.728763
     135A      1.743143   136A      1.779107   137A      1.798516
     138A      1.808132   139A      1.859537   140A      1.866694
     141A      1.876634   142A      1.879414   143A      1.888677
     144A      1.898848   145A      1.907143   146A      1.916648
     147A      1.920869   148A      1.937074   149A      1.943786
     150A      1.944542   151A      1.952112   152A      1.959183
     153A      1.967723   154A      1.970278   155A      1.988203
     156A      2.012124   157A      2.017938   158A      2.043571
     159A      2.056117   160A      2.064918   161A      2.078525
     162A      2.098534   163A      2.124176   164A      2.140522
     165A      2.162414   166A      2.177233   167A      2.194223
     168A      2.227376   169A      2.253700   170A      2.270469
     171A      2.289080   172A      2.302700   173A      2.319999
     174A      2.342246   175A      2.366830   176A      2.404309
     177A      2.424649   178A      2.448261   179A      2.460216
     180A      2.487354   181A      2.500298   182A      2.524067
     183A      2.535324   184A      2.565275   185A      2.578350
     186A      2.605483   187A      2.623589   188A      2.749734
     189A      2.759568   190A      2.770342   191A      2.792055
     192A      2.794178   193A      2.827274   194A      2.841058
     195A      2.847395   196A      2.861913   197A      2.895296
     198A      2.945819   199A      2.956673   200A      2.977029
     201A      2.998674   202A      3.082239   203A      3.109337
     204A      3.258087   205A      3.278152   206A      3.345523
     207A      3.563565   208A      3.669283   209A      3.945727
     210A      4.156453

    Final Occupation by Irrep:
              A
    DOCC [    38 ]

  @RHF Final Energy:  -423.85517895690151

   => Energetics <=

    Nuclear Repulsion Energy =            483.7740564091311626
    One-Electron Energy =               -1533.3283495953280635
    Two-Electron Energy =                 625.6991142292954464
    Total Energy =                       -423.8551789569014545

Computation Completed

Properties will be evaluated at   0.000000,   0.000000,   0.000000 [a0]

Properties computed using the SCF density matrix

  Nuclear Dipole Moment: [e a0]
     X:    -2.9634      Y:    14.6399      Z:     9.0543

  Electronic Dipole Moment: [e a0]
     X:     3.4074      Y:   -14.6207      Z:    -9.4406

  Dipole Moment: [e a0]
     X:     0.4440      Y:     0.0192      Z:    -0.3863     Total:     0.5889

  Dipole Moment: [D]
     X:     1.1286      Y:     0.0489      Z:    -0.9818     Total:     1.4967

*** tstop() called on ds3 at Tue Apr 28 20:06:59 2020
Module time:
	user time   =      80.20 seconds =       1.34 minutes
	system time =      37.86 seconds =       0.63 minutes
	total time  =        113 seconds =       1.88 minutes
Total time:
	user time   =      80.20 seconds =       1.34 minutes
	system time =      37.86 seconds =       0.63 minutes
	total time  =        113 seconds =       1.88 minutes
                                     G D M A

                                 by Anthony Stone

                           version 2.2.06, 22 June 2011

               Distributed Multipoles from Gaussian wavefunctions

Starting at 20:6:59 on 28 Apr 2020

Using SCF density matrix from file ./SSI/SSI-003VAL-121TYR-1-dimer.test.30466.fchk

                         Distributed Multipole Analysis

Standard DMA

Positions and radii in angstrom
Multipole moments in atomic units, ea_0^k for rank k

C          x = -2.475089  y =  2.665759  z =  1.566611 angstrom
           Maximum rank =  0   Radius =  0.650 angstrom
                   Q00  =  -0.243535

C          x = -1.909089  y =  3.164759  z =  2.902611 angstrom
           Maximum rank =  0   Radius =  0.650 angstrom
                   Q00  =  -0.236039

H          x = -3.473089  y =  3.062759  z =  1.406611 angstrom
           Maximum rank =  0   Radius =  0.325 angstrom
                   Q00  =   0.084514

H          x = -1.842089  y =  3.009759  z =  0.748611 angstrom
           Maximum rank =  0   Radius =  0.325 angstrom
                   Q00  =   0.077628

H          x = -2.511089  y =  1.575759  z =  1.555611 angstrom
           Maximum rank =  0   Radius =  0.325 angstrom
                   Q00  =   0.078304

H          x = -2.006089  y =  4.250759  z =  2.911611 angstrom
           Maximum rank =  0   Radius =  0.325 angstrom
                   Q00  =   0.079015

H          x = -2.474729  y =  2.730859  z =  3.740331 angstrom
           Maximum rank =  0   Radius =  0.325 angstrom
                   Q00  =   0.082346

H          x = -0.843979  y =  2.908729  z =  3.002581 angstrom
           Maximum rank =  0   Radius =  0.325 angstrom
                   Q00  =   0.077318

C          x =  2.564911  y =  1.221759  z =  0.216611 angstrom
           Maximum rank =  0   Radius =  0.650 angstrom
                   Q00  =  -0.202266

C          x =  0.233911  y =  0.269759  z =  0.185611 angstrom
           Maximum rank =  0   Radius =  0.650 angstrom
                   Q00  =   0.049956

C          x =  1.574911  y =  0.144759  z = -0.177389 angstrom
           Maximum rank =  0   Radius =  0.650 angstrom
                   Q00  =  -0.126918

C          x = -0.714089  y = -0.691241  z = -0.212389 angstrom
           Maximum rank =  0   Radius =  0.650 angstrom
                   Q00  =  -0.114435

C          x =  1.957911  y = -0.912241  z = -1.006389 angstrom
           Maximum rank =  0   Radius =  0.650 angstrom
                   Q00  =  -0.066911

C          x = -0.313089  y = -1.759241  z = -0.997389 angstrom
           Maximum rank =  0   Radius =  0.650 angstrom
                   Q00  =   0.313228

C          x =  1.018911  y = -1.868241  z = -1.412389 angstrom
           Maximum rank =  0   Radius =  0.650 angstrom
                   Q00  =  -0.168122

O          x = -1.256089  y = -2.662241  z = -1.408389 angstrom
           Maximum rank =  0   Radius =  0.650 angstrom
                   Q00  =  -0.674941

H          x = -0.081089  y =  1.108759  z =  0.784611 angstrom
           Maximum rank =  0   Radius =  0.325 angstrom
                   Q00  =   0.066157

H          x = -1.747089  y = -0.601241  z =  0.087611 angstrom
           Maximum rank =  0   Radius =  0.325 angstrom
                   Q00  =   0.079158

H          x =  3.458911  y =  0.741759  z =  0.612611 angstrom
           Maximum rank =  0   Radius =  0.325 angstrom
                   Q00  =   0.096820

H          x =  2.143911  y =  1.841759  z =  1.008611 angstrom
           Maximum rank =  0   Radius =  0.325 angstrom
                   Q00  =   0.096781

H          x =  2.985911  y = -1.003241  z = -1.328389 angstrom
           Maximum rank =  0   Radius =  0.325 angstrom
                   Q00  =   0.068877

H          x =  1.322911  y = -2.686241  z = -2.049389 angstrom
           Maximum rank =  0   Radius =  0.325 angstrom
                   Q00  =   0.073691

H          x = -0.945089  y = -3.171241  z = -2.186389 angstrom
           Maximum rank =  0   Radius =  0.325 angstrom
                   Q00  =   0.409995

H          x =  2.858061  y =  1.861099  z = -0.629149 angstrom
           Maximum rank =  0   Radius =  0.325 angstrom
                   Q00  =   0.099381

Total multipoles referred to origin at
           x =   0.000000,  y =    0.000000,  z =    0.000000 angstrom
                   Q00  =  -0.000000

Finished at 20:6:59 on 28 Apr 2020

  DMA results are available in the Python driver through the
	  variable('DMA DISTRIBUTED MULTIPOLES')
  and
	  variable('DMA TOTAL MULTIPOLES')
  commands.

    Psi4 stopped on: Tuesday, 28 April 2020 08:06PM
    Psi4 wall time for execution: 0:01:53.55

*** Psi4 exiting successfully. Buy a developer a beer!
