                               Psi4 1.3.2 release

  ==> Input File <==

--------------------------------------------------------------------------
import numpy as np
set {scf_type pk
basis cc-pvdz
d_convergence 10
gdma_switch   0
gdma_limit    0
gdma_origin   [ 0.0,  0.0,  0.0 ]
}
molecule test {
    units Angstrom
    0 1
    --
    0 1
    C               -0.886211922623533    -3.242559199468966    -2.063735345756445
    C                0.060788077376467    -1.255559199468967    -0.946735345756445
    N               -0.464211922623533    -1.600559199468967     0.221264654243555
    N               -0.093211922623533    -2.015559199468966    -2.017735345756444
    N                0.753788077376467    -0.143559199468967    -1.053735345756445
    H               -0.908211922623533    -2.500559199468967     0.364264654243555
    H               -0.407211922623533    -0.924559199468967     0.979264654243555
    H                0.416788077376467    -1.737559199468967    -2.859735345756445
    H                1.178788077376467     0.107440800531033    -1.948735345756445
    H                0.899788077376467     0.449440800531033    -0.239735345756445
    H               -0.712211922623533    -3.853559199468966    -1.179735345756445
    H               -0.595211922623533    -3.827559199468967    -2.938735345756445
    H               -1.949151922623533    -2.972282199468967    -2.148015345756445
    C               -0.440211922623533     3.357440800531034     1.624264654243555
    C                0.189788077376467     1.993440800531034     1.450264654243555
    O               -0.467211922623533     0.974440800531033     1.774264654243555
    O                1.346788077376467     1.940440800531034     0.988264654243555
    H               -1.314211922623533     3.420440800531034     0.973264654243555
    H                0.256788077376467     4.144440800531033     1.324264654243555
    H               -0.743871922623533     3.517600800531034     2.669314654243555

}
e, wfn = energy('scf', return_wfn=True)
gdma(wfn)
dmavals = variable('DMA DISTRIBUTED MULTIPOLES')
charges = np.array(dmavals)
print(charges)
np.save('SSI-036ARG-042GLU-1-dimer.npy', np.array(charges))--------------------------------------------------------------------------

*** tstart() called on ds3
*** at Sun Apr 26 21:58:04 2020

   => Loading Basis Set <=

    Name: CC-PVDZ
    Role: ORBITAL
    Keyword: BASIS
    atoms 1-2, 14-15  entry C          line   138 file /theoryfs2/ds/metcalf/miniconda2/envs/tf2gpu/share/psi4/basis/cc-pvdz.gbs
    atoms 3-5         entry N          line   168 file /theoryfs2/ds/metcalf/miniconda2/envs/tf2gpu/share/psi4/basis/cc-pvdz.gbs
    atoms 6-13, 18-20 entry H          line    22 file /theoryfs2/ds/metcalf/miniconda2/envs/tf2gpu/share/psi4/basis/cc-pvdz.gbs
    atoms 16-17       entry O          line   198 file /theoryfs2/ds/metcalf/miniconda2/envs/tf2gpu/share/psi4/basis/cc-pvdz.gbs

         ---------------------------------------------------------
                                   SCF
               by Justin Turney, Rob Parrish, Andy Simmonett
                          and Daniel G. A. Smith
                              RHF Reference
                        1 Threads,    500 MiB Core
         ---------------------------------------------------------

  ==> Geometry <==

    Molecular point group: c1
    Full point group: C1

    Geometry (in Angstrom), charge = 0, multiplicity = 1:

       Center              X                  Y                   Z               Mass
    ------------   -----------------  -----------------  -----------------  -----------------
         C           -0.886211922624    -3.242559199469    -2.063735345756    12.000000000000
         C            0.060788077376    -1.255559199469    -0.946735345756    12.000000000000
         N           -0.464211922624    -1.600559199469     0.221264654244    14.003074004430
         N           -0.093211922624    -2.015559199469    -2.017735345756    14.003074004430
         N            0.753788077376    -0.143559199469    -1.053735345756    14.003074004430
         H           -0.908211922624    -2.500559199469     0.364264654244     1.007825032230
         H           -0.407211922624    -0.924559199469     0.979264654244     1.007825032230
         H            0.416788077376    -1.737559199469    -2.859735345756     1.007825032230
         H            1.178788077376     0.107440800531    -1.948735345756     1.007825032230
         H            0.899788077376     0.449440800531    -0.239735345756     1.007825032230
         H           -0.712211922624    -3.853559199469    -1.179735345756     1.007825032230
         H           -0.595211922624    -3.827559199469    -2.938735345756     1.007825032230
         H           -1.949151922624    -2.972282199469    -2.148015345756     1.007825032230
         C           -0.440211922624     3.357440800531     1.624264654244    12.000000000000
         C            0.189788077376     1.993440800531     1.450264654244    12.000000000000
         O           -0.467211922624     0.974440800531     1.774264654244    15.994914619570
         O            1.346788077376     1.940440800531     0.988264654244    15.994914619570
         H           -1.314211922624     3.420440800531     0.973264654244     1.007825032230
         H            0.256788077376     4.144440800531     1.324264654244     1.007825032230
         H           -0.743871922624     3.517600800531     2.669314654244     1.007825032230

  Running in c1 symmetry.

  Rotational constants: A =      0.13838  B =      0.01963  C =      0.01836 [cm^-1]
  Rotational constants: A =   4148.44405  B =    588.48156  C =    550.55495 [MHz]
  Nuclear repulsion =  457.909385539556638

  Charge       = 0
  Multiplicity = 1
  Electrons    = 72
  Nalpha       = 36
  Nbeta        = 36

  ==> Algorithm <==

  SCF Algorithm Type is PK.
  DIIS enabled.
  MOM disabled.
  Fractional occupation disabled.
  Guess Type is SAD.
  Energy threshold   = 1.00e-06
  Density threshold  = 1.00e-10
  Integral threshold = 0.00e+00

  ==> Primary Basis <==

  Basis Set: CC-PVDZ
    Blend: CC-PVDZ
    Number of shells: 87
    Number of basis function: 181
    Number of Cartesian functions: 190
    Spherical Harmonics?: true
    Max angular momentum: 2

  ==> Pre-Iterations <==

   -------------------------------------------------------
    Irrep   Nso     Nmo     Nalpha   Nbeta   Ndocc  Nsocc
   -------------------------------------------------------
     A        181     181       0       0       0       0
   -------------------------------------------------------
    Total     181     181      36      36      36       0
   -------------------------------------------------------

  ==> Integral Setup <==

  Using integral reordering PK algorithm.
  Sizing the integral batches needed.
  Building batch lookup table.
   Calculation information:
      Number of atoms:                  20
      Number of AO shells:              87
      Number of primitives:            253
      Number of atomic orbitals:       190
      Number of basis functions:       181

      Integral cutoff                 1.00e-12
      Number of threads:                 1

	Batch   1 pq = [       0,    9405] index = [             0,44231715] size =     44231715
	Batch   2 pq = [    9405,   13301] index = [      44231715,88464951] size =     44233236
	Batch   3 pq = [   13301,   16471] index = [      88464951,135655156] size =     47190205
  Task number: 13
  Buffer size: 11059200
  Buffer per thread: 2
  We computed 5791165 shell quartets total.
  Whereas there are 7328706 unique shell quartets.

  ==> DiskJK: Disk-Based J/K Matrices <==

    J tasked:                  Yes
    K tasked:                  Yes
    wK tasked:                  No
    Memory [MiB]:              375
    Schwarz Cutoff:          1E-12

    OpenMP threads:              1

  Minimum eigenvalue in the overlap matrix is 3.8096710525E-03.
  Using Symmetric Orthogonalization.

  SCF Guess: Superposition of Atomic Densities via on-the-fly atomic UHF.

  ==> Iterations <==

                        Total Energy        Delta E     RMS |[F,P]|

   @RHF iter SAD:  -469.70780133231079   -4.69708e+02   0.00000e+00
   @RHF iter   1:  -470.71183646936373   -1.00404e+00   4.22147e-03 DIIS
   @RHF iter   2:  -470.93606383120556   -2.24227e-01   2.19181e-03 DIIS
   @RHF iter   3:  -470.99323163422991   -5.71678e-02   3.86963e-04 DIIS
   @RHF iter   4:  -470.99640240075018   -3.17077e-03   1.31069e-04 DIIS
   @RHF iter   5:  -470.99676077555114   -3.58375e-04   2.33445e-05 DIIS
   @RHF iter   6:  -470.99677823397889   -1.74584e-05   7.47397e-06 DIIS
   @RHF iter   7:  -470.99677962210950   -1.38813e-06   2.16163e-06 DIIS
   @RHF iter   8:  -470.99677980827693   -1.86167e-07   8.66256e-07 DIIS
   @RHF iter   9:  -470.99677982824409   -1.99672e-08   3.28214e-07 DIIS
   @RHF iter  10:  -470.99677983193487   -3.69079e-09   1.20266e-07 DIIS
   @RHF iter  11:  -470.99677983259812   -6.63249e-10   3.67309e-08 DIIS
   @RHF iter  12:  -470.99677983266764   -6.95195e-11   1.70089e-08 DIIS
   @RHF iter  13:  -470.99677983267981   -1.21645e-11   4.91279e-09 DIIS
   @RHF iter  14:  -470.99677983268072   -9.09495e-13   1.39482e-09 DIIS
   @RHF iter  15:  -470.99677983267912    1.59162e-12   5.29133e-10 DIIS
   @RHF iter  16:  -470.99677983267856    5.68434e-13   1.74243e-10 DIIS
   @RHF iter  17:  -470.99677983268123   -2.67164e-12   6.34941e-11 DIIS
  Energy and wave function converged.

  ==> Post-Iterations <==

    Orbital Energies [Eh]
    ---------------------

    Doubly Occupied:

       1A    -20.417567     2A    -20.416964     3A    -15.653221
       4A    -15.623187     5A    -15.616107     6A    -11.434468
       7A    -11.333132     8A    -11.264205     9A    -11.167571
      10A     -1.393614    11A     -1.308056    12A     -1.256446
      13A     -1.225258    14A     -1.193002    15A     -1.018735
      16A     -0.920231    17A     -0.885870    18A     -0.822560
      19A     -0.779994    20A     -0.707752    21A     -0.696418
      22A     -0.685679    23A     -0.662258    24A     -0.637982
      25A     -0.613044    26A     -0.611370    27A     -0.551897
      28A     -0.543791    29A     -0.538527    30A     -0.476220
      31A     -0.456165    32A     -0.449382    33A     -0.442361
      34A     -0.336415    35A     -0.328224    36A     -0.322215

    Virtual:

      37A      0.118977    38A      0.142516    39A      0.171140
      40A      0.178009    41A      0.214932    42A      0.228144
      43A      0.244524    44A      0.248893    45A      0.275970
      46A      0.291668    47A      0.312666    48A      0.325423
      49A      0.350259    50A      0.380811    51A      0.426234
      52A      0.456629    53A      0.479270    54A      0.487710
      55A      0.562522    56A      0.572366    57A      0.606051
      58A      0.612709    59A      0.640419    60A      0.666297
      61A      0.676655    62A      0.695134    63A      0.700848
      64A      0.707355    65A      0.714612    66A      0.752798
      67A      0.795052    68A      0.809820    69A      0.817535
      70A      0.820885    71A      0.836534    72A      0.856652
      73A      0.869345    74A      0.897031    75A      0.914268
      76A      0.921292    77A      0.927410    78A      0.949801
      79A      0.957409    80A      0.965803    81A      0.999687
      82A      1.011722    83A      1.034417    84A      1.047534
      85A      1.074347    86A      1.083685    87A      1.114065
      88A      1.124530    89A      1.194812    90A      1.205949
      91A      1.236698    92A      1.269157    93A      1.276787
      94A      1.299540    95A      1.324283    96A      1.339479
      97A      1.352657    98A      1.410196    99A      1.426021
     100A      1.445389   101A      1.451380   102A      1.474403
     103A      1.489696   104A      1.523785   105A      1.560155
     106A      1.587967   107A      1.591834   108A      1.603604
     109A      1.636632   110A      1.649067   111A      1.686456
     112A      1.713111   113A      1.715617   114A      1.729160
     115A      1.789224   116A      1.836168   117A      1.841281
     118A      1.856867   119A      1.875238   120A      1.899233
     121A      1.900947   122A      1.915133   123A      1.928904
     124A      1.956822   125A      1.971974   126A      1.976469
     127A      1.986658   128A      1.990717   129A      2.029454
     130A      2.069269   131A      2.097183   132A      2.136349
     133A      2.158538   134A      2.176499   135A      2.190047
     136A      2.200356   137A      2.249255   138A      2.274400
     139A      2.281923   140A      2.314722   141A      2.334847
     142A      2.367700   143A      2.425750   144A      2.448271
     145A      2.452625   146A      2.473989   147A      2.484819
     148A      2.527763   149A      2.544031   150A      2.587205
     151A      2.610816   152A      2.621636   153A      2.664390
     154A      2.688461   155A      2.704926   156A      2.720331
     157A      2.760488   158A      2.803904   159A      2.837817
     160A      2.843517   161A      2.874880   162A      2.903495
     163A      2.928510   164A      2.969921   165A      2.986962
     166A      3.030055   167A      3.097319   168A      3.118297
     169A      3.159125   170A      3.202308   171A      3.213047
     172A      3.288478   173A      3.294835   174A      3.486630
     175A      3.648638   176A      3.678865   177A      3.716507
     178A      3.792723   179A      3.926549   180A      3.943881
     181A      4.066989

    Final Occupation by Irrep:
              A
    DOCC [    36 ]

  @RHF Final Energy:  -470.99677983268123

   => Energetics <=

    Nuclear Repulsion Energy =            457.9093855395566379
    One-Electron Energy =               -1552.2325520591757595
    Two-Electron Energy =                 623.3263866869377807
    Total Energy =                       -470.9967798326812272

Computation Completed

Properties will be evaluated at   0.000000,   0.000000,   0.000000 [a0]

Properties computed using the SCF density matrix

  Nuclear Dipole Moment: [e a0]
     X:    -3.6318      Y:    -3.8906      Z:    -4.6698

  Electronic Dipole Moment: [e a0]
     X:     2.8290      Y:     0.0300      Z:     1.0502

  Dipole Moment: [e a0]
     X:    -0.8028      Y:    -3.8607      Z:    -3.6197     Total:     5.3527

  Dipole Moment: [D]
     X:    -2.0404      Y:    -9.8128      Z:    -9.2003     Total:    13.6051

*** tstop() called on ds3 at Sun Apr 26 21:59:24 2020
Module time:
	user time   =      44.27 seconds =       0.74 minutes
	system time =      18.62 seconds =       0.31 minutes
	total time  =         80 seconds =       1.33 minutes
Total time:
	user time   =      44.27 seconds =       0.74 minutes
	system time =      18.62 seconds =       0.31 minutes
	total time  =         80 seconds =       1.33 minutes
                                     G D M A

                                 by Anthony Stone

                           version 2.2.06, 22 June 2011

               Distributed Multipoles from Gaussian wavefunctions

Starting at 21:59:24 on 26 Apr 2020

Using SCF density matrix from file ./SSI/SSI-036ARG-042GLU-1-dimer.test.16178.fchk

                         Distributed Multipole Analysis

Standard DMA

Positions and radii in angstrom
Multipole moments in atomic units, ea_0^k for rank k

C          x = -0.886212  y = -3.242559  z = -2.063735 angstrom
           Maximum rank =  0   Radius =  0.650 angstrom
                   Q00  =  -0.111501

C          x =  0.060788  y = -1.255559  z = -0.946735 angstrom
           Maximum rank =  0   Radius =  0.650 angstrom
                   Q00  =   1.062068

N          x = -0.464212  y = -1.600559  z =  0.221265 angstrom
           Maximum rank =  0   Radius =  0.650 angstrom
                   Q00  =  -0.585549

N          x = -0.093212  y = -2.015559  z = -2.017735 angstrom
           Maximum rank =  0   Radius =  0.650 angstrom
                   Q00  =  -0.500330

N          x =  0.753788  y = -0.143559  z = -1.053735 angstrom
           Maximum rank =  0   Radius =  0.650 angstrom
                   Q00  =  -0.587682

H          x = -0.908212  y = -2.500559  z =  0.364265 angstrom
           Maximum rank =  0   Radius =  0.325 angstrom
                   Q00  =   0.239576

H          x = -0.407212  y = -0.924559  z =  0.979265 angstrom
           Maximum rank =  0   Radius =  0.325 angstrom
                   Q00  =   0.307517

H          x =  0.416788  y = -1.737559  z = -2.859735 angstrom
           Maximum rank =  0   Radius =  0.325 angstrom
                   Q00  =   0.212671

H          x =  1.178788  y =  0.107441  z = -1.948735 angstrom
           Maximum rank =  0   Radius =  0.325 angstrom
                   Q00  =   0.232973

H          x =  0.899788  y =  0.449441  z = -0.239735 angstrom
           Maximum rank =  0   Radius =  0.325 angstrom
                   Q00  =   0.316794

H          x = -0.712212  y = -3.853559  z = -1.179735 angstrom
           Maximum rank =  0   Radius =  0.325 angstrom
                   Q00  =   0.101725

H          x = -0.595212  y = -3.827559  z = -2.938735 angstrom
           Maximum rank =  0   Radius =  0.325 angstrom
                   Q00  =   0.139804

H          x = -1.949152  y = -2.972282  z = -2.148015 angstrom
           Maximum rank =  0   Radius =  0.325 angstrom
                   Q00  =   0.110381

C          x = -0.440212  y =  3.357441  z =  1.624265 angstrom
           Maximum rank =  0   Radius =  0.650 angstrom
                   Q00  =  -0.265944

C          x =  0.189788  y =  1.993441  z =  1.450265 angstrom
           Maximum rank =  0   Radius =  0.650 angstrom
                   Q00  =   0.911932

O          x = -0.467212  y =  0.974441  z =  1.774265 angstrom
           Maximum rank =  0   Radius =  0.650 angstrom
                   Q00  =  -0.933920

O          x =  1.346788  y =  1.940441  z =  0.988265 angstrom
           Maximum rank =  0   Radius =  0.650 angstrom
                   Q00  =  -0.911924

H          x = -1.314212  y =  3.420441  z =  0.973265 angstrom
           Maximum rank =  0   Radius =  0.325 angstrom
                   Q00  =   0.082532

H          x =  0.256788  y =  4.144441  z =  1.324265 angstrom
           Maximum rank =  0   Radius =  0.325 angstrom
                   Q00  =   0.079638

H          x = -0.743872  y =  3.517601  z =  2.669315 angstrom
           Maximum rank =  0   Radius =  0.325 angstrom
                   Q00  =   0.099237

Total multipoles referred to origin at
           x =   0.000000,  y =    0.000000,  z =    0.000000 angstrom
                   Q00  =  -0.000000

Finished at 21:59:24 on 26 Apr 2020

  DMA results are available in the Python driver through the
	  variable('DMA DISTRIBUTED MULTIPOLES')
  and
	  variable('DMA TOTAL MULTIPOLES')
  commands.

    Psi4 stopped on: Sunday, 26 April 2020 09:59PM
    Psi4 wall time for execution: 0:01:20.15

*** Psi4 exiting successfully. Buy a developer a beer!
