                               Psi4 1.3.2 release

  ==> Input File <==

--------------------------------------------------------------------------
import numpy as np
set {scf_type pk
basis cc-pvdz
d_convergence 10
gdma_switch   0
gdma_limit    0
gdma_origin   [ 0.0,  0.0,  0.0 ]
}
molecule test {
    units Angstrom
    0 1
    --
    0 1
    C               -0.016414731316350     1.784551592842147     0.759482991965785
    C                1.360585268683650     2.444551592842148     1.097482991965785
    H               -0.117414731316350     1.671551592842147    -0.321517008034215
    H               -0.082414731316350     0.799551592842147     1.224482991965785
    H               -0.832414731316350     2.398551592842147     1.142482991965785
    H                1.368585268683650     2.745551592842147     2.145482991965785
    H                1.525601068683650     3.319131592842147     0.451051991965785
    H                2.159004268683650     1.710041592842147     0.915778991965785
    C               -1.038414731316350    -1.455448407157853    -0.978517008034215
    C               -0.303414731316350    -2.771448407157853    -0.873517008034215
    H               -0.335414731316350    -0.633448407157853    -0.859517008034215
    H               -1.509414731316350    -1.360448407157853    -1.951517008034215
    H               -1.801414731316350    -1.400448407157853    -0.200517008034215
    H               -1.041414731316350    -3.572448407157853    -0.868517008034215
    H                0.316041668683650    -2.818548407157853     0.034257991965785
    H                0.322796068683650    -2.885308407157853    -1.770677008034215

}
e, wfn = energy('scf', return_wfn=True)
gdma(wfn)
dmavals = variable('DMA DISTRIBUTED MULTIPOLES')
charges = np.array(dmavals)
print(charges)
np.save('SSI-039THR-077LEU-1-dimer.npy', np.array(charges))--------------------------------------------------------------------------

*** tstart() called on ds3
*** at Mon Apr 27 23:21:41 2020

   => Loading Basis Set <=

    Name: CC-PVDZ
    Role: ORBITAL
    Keyword: BASIS
    atoms 1-2, 9-10  entry C          line   138 file /theoryfs2/ds/metcalf/miniconda2/envs/tf2gpu/share/psi4/basis/cc-pvdz.gbs
    atoms 3-8, 11-16 entry H          line    22 file /theoryfs2/ds/metcalf/miniconda2/envs/tf2gpu/share/psi4/basis/cc-pvdz.gbs

         ---------------------------------------------------------
                                   SCF
               by Justin Turney, Rob Parrish, Andy Simmonett
                          and Daniel G. A. Smith
                              RHF Reference
                        1 Threads,    500 MiB Core
         ---------------------------------------------------------

  ==> Geometry <==

    Molecular point group: c1
    Full point group: C1

    Geometry (in Angstrom), charge = 0, multiplicity = 1:

       Center              X                  Y                   Z               Mass
    ------------   -----------------  -----------------  -----------------  -----------------
         C           -0.016414731316     1.784551592842     0.759482991966    12.000000000000
         C            1.360585268684     2.444551592842     1.097482991966    12.000000000000
         H           -0.117414731316     1.671551592842    -0.321517008034     1.007825032230
         H           -0.082414731316     0.799551592842     1.224482991966     1.007825032230
         H           -0.832414731316     2.398551592842     1.142482991966     1.007825032230
         H            1.368585268684     2.745551592842     2.145482991966     1.007825032230
         H            1.525601068684     3.319131592842     0.451051991966     1.007825032230
         H            2.159004268684     1.710041592842     0.915778991966     1.007825032230
         C           -1.038414731316    -1.455448407158    -0.978517008034    12.000000000000
         C           -0.303414731316    -2.771448407158    -0.873517008034    12.000000000000
         H           -0.335414731316    -0.633448407158    -0.859517008034     1.007825032230
         H           -1.509414731316    -1.360448407158    -1.951517008034     1.007825032230
         H           -1.801414731316    -1.400448407158    -0.200517008034     1.007825032230
         H           -1.041414731316    -3.572448407158    -0.868517008034     1.007825032230
         H            0.316041668684    -2.818548407158     0.034257991966     1.007825032230
         H            0.322796068684    -2.885308407158    -1.770677008034     1.007825032230

  Running in c1 symmetry.

  Rotational constants: A =      0.49260  B =      0.04465  C =      0.04254 [cm^-1]
  Rotational constants: A =  14767.81365  B =   1338.70603  C =   1275.32819 [MHz]
  Nuclear repulsion =  120.417805735742931

  Charge       = 0
  Multiplicity = 1
  Electrons    = 36
  Nalpha       = 18
  Nbeta        = 18

  ==> Algorithm <==

  SCF Algorithm Type is PK.
  DIIS enabled.
  MOM disabled.
  Fractional occupation disabled.
  Guess Type is SAD.
  Energy threshold   = 1.00e-06
  Density threshold  = 1.00e-10
  Integral threshold = 0.00e+00

  ==> Primary Basis <==

  Basis Set: CC-PVDZ
    Blend: CC-PVDZ
    Number of shells: 60
    Number of basis function: 116
    Number of Cartesian functions: 120
    Spherical Harmonics?: true
    Max angular momentum: 2

  ==> Pre-Iterations <==

   -------------------------------------------------------
    Irrep   Nso     Nmo     Nalpha   Nbeta   Ndocc  Nsocc
   -------------------------------------------------------
     A        116     116       0       0       0       0
   -------------------------------------------------------
    Total     116     116      18      18      18       0
   -------------------------------------------------------

  ==> Integral Setup <==

  Using integral reordering PK algorithm.
  Sizing the integral batches needed.
  Building batch lookup table.
   Calculation information:
      Number of atoms:                  16
      Number of AO shells:              60
      Number of primitives:            148
      Number of atomic orbitals:       120
      Number of basis functions:       116

      Integral cutoff                 1.00e-12
      Number of threads:                 1

	Batch   1 pq = [       0,    6786] index = [             0,23028291] size =     23028291
  Task number: 3
  Buffer size: 11059200
  Buffer per thread: 2
  We computed 1366062 shell quartets total.
  Whereas there are 1675365 unique shell quartets.

  ==> DiskJK: Disk-Based J/K Matrices <==

    J tasked:                  Yes
    K tasked:                  Yes
    wK tasked:                  No
    Memory [MiB]:              375
    Schwarz Cutoff:          1E-12

    OpenMP threads:              1

  Minimum eigenvalue in the overlap matrix is 7.0670729550E-03.
  Using Symmetric Orthogonalization.

  SCF Guess: Superposition of Atomic Densities via on-the-fly atomic UHF.

  ==> Iterations <==

                        Total Energy        Delta E     RMS |[F,P]|

   @RHF iter SAD:  -157.32478572876278   -1.57325e+02   0.00000e+00
   @RHF iter   1:  -158.30730252812316   -9.82517e-01   4.18942e-03 DIIS
   @RHF iter   2:  -158.43958185021455   -1.32279e-01   1.77724e-03 DIIS
   @RHF iter   3:  -158.46254868781776   -2.29668e-02   3.48663e-04 DIIS
   @RHF iter   4:  -158.46436883778662   -1.82015e-03   3.93777e-05 DIIS
   @RHF iter   5:  -158.46439305806172   -2.42203e-05   7.42799e-06 DIIS
   @RHF iter   6:  -158.46439379838077   -7.40319e-07   1.68854e-06 DIIS
   @RHF iter   7:  -158.46439382455756   -2.61768e-08   3.18443e-07 DIIS
   @RHF iter   8:  -158.46439382567465   -1.11709e-09   4.10819e-08 DIIS
   @RHF iter   9:  -158.46439382570108   -2.64322e-11   1.06346e-08 DIIS
   @RHF iter  10:  -158.46439382570233   -1.25056e-12   2.82098e-09 DIIS
   @RHF iter  11:  -158.46439382570239   -5.68434e-14   5.68674e-10 DIIS
   @RHF iter  12:  -158.46439382570247   -8.52651e-14   9.44800e-11 DIIS
  Energy and wave function converged.

  ==> Post-Iterations <==

    Orbital Energies [Eh]
    ---------------------

    Doubly Occupied:

       1A    -11.222258     2A    -11.219353     3A    -11.217106
       4A    -11.212897     5A     -1.022698     6A     -1.009809
       7A     -0.840125     8A     -0.832482     9A     -0.603334
      10A     -0.600659    11A     -0.595341    12A     -0.591690
      13A     -0.503469    14A     -0.494859    15A     -0.491915
      16A     -0.487419    17A     -0.482131    18A     -0.477477

    Virtual:

      19A      0.173045    20A      0.197025    21A      0.227286
      22A      0.236612    23A      0.247877    24A      0.252847
      25A      0.258580    26A      0.268952    27A      0.286014
      28A      0.289814    29A      0.301352    30A      0.341458
      31A      0.379102    32A      0.405021    33A      0.576370
      34A      0.591290    35A      0.599225    36A      0.605851
      37A      0.611945    38A      0.636674    39A      0.669968
      40A      0.679094    41A      0.696351    42A      0.791578
      43A      0.834847    44A      0.870100    45A      0.884104
      46A      0.887252    47A      0.889332    48A      0.894717
      49A      0.897678    50A      0.901524    51A      0.910253
      52A      0.915207    53A      0.929726    54A      0.950506
      55A      0.972068    56A      0.989812    57A      1.117610
      58A      1.121530    59A      1.129063    60A      1.165141
      61A      1.224584    62A      1.261356    63A      1.466170
      64A      1.472982    65A      1.485848    66A      1.497472
      67A      1.564005    68A      1.584674    69A      1.678059
      70A      1.679410    71A      1.695438    72A      1.697563
      73A      1.845420    74A      1.858832    75A      1.865990
      76A      1.869280    77A      1.900786    78A      1.918013
      79A      1.928126    80A      1.932649    81A      1.940109
      82A      1.942176    83A      1.946103    84A      1.949973
      85A      1.961896    86A      1.968366    87A      1.979439
      88A      2.003453    89A      2.108583    90A      2.120503
      91A      2.122977    92A      2.141400    93A      2.279630
      94A      2.299629    95A      2.303829    96A      2.314781
      97A      2.438091    98A      2.441256    99A      2.460799
     100A      2.479430   101A      2.566589   102A      2.569185
     103A      2.573231   104A      2.590988   105A      2.761814
     106A      2.764678   107A      2.781300   108A      2.794510
     109A      2.824593   110A      2.837712   111A      2.847611
     112A      2.860052   113A      2.927861   114A      2.945490
     115A      2.960760   116A      2.988948

    Final Occupation by Irrep:
              A
    DOCC [    18 ]

  @RHF Final Energy:  -158.46439382570247

   => Energetics <=

    Nuclear Repulsion Energy =            120.4178057357429310
    One-Electron Energy =                -449.9543531276384556
    Two-Electron Energy =                 171.0721535661930375
    Total Energy =                       -158.4643938257024729

Computation Completed

Properties will be evaluated at   0.000000,   0.000000,   0.000000 [a0]

Properties computed using the SCF density matrix

  Nuclear Dipole Moment: [e a0]
     X:    -0.0261      Y:    -0.0246      Z:    -0.0551

  Electronic Dipole Moment: [e a0]
     X:     0.0134      Y:     0.0398      Z:     0.0537

  Dipole Moment: [e a0]
     X:    -0.0127      Y:     0.0152      Z:    -0.0014     Total:     0.0199

  Dipole Moment: [D]
     X:    -0.0323      Y:     0.0386      Z:    -0.0036     Total:     0.0505

*** tstop() called on ds3 at Mon Apr 27 23:21:54 2020
Module time:
	user time   =       9.22 seconds =       0.15 minutes
	system time =       4.20 seconds =       0.07 minutes
	total time  =         13 seconds =       0.22 minutes
Total time:
	user time   =       9.22 seconds =       0.15 minutes
	system time =       4.20 seconds =       0.07 minutes
	total time  =         13 seconds =       0.22 minutes
                                     G D M A

                                 by Anthony Stone

                           version 2.2.06, 22 June 2011

               Distributed Multipoles from Gaussian wavefunctions

Starting at 23:21:54 on 27 Apr 2020

Using SCF density matrix from file ./SSI/SSI-039THR-077LEU-1-dimer.test.2505.fchk

                         Distributed Multipole Analysis

Standard DMA

Positions and radii in angstrom
Multipole moments in atomic units, ea_0^k for rank k

C          x = -0.016415  y =  1.784552  z =  0.759483 angstrom
           Maximum rank =  0   Radius =  0.650 angstrom
                   Q00  =  -0.242704

C          x =  1.360585  y =  2.444552  z =  1.097483 angstrom
           Maximum rank =  0   Radius =  0.650 angstrom
                   Q00  =  -0.247037

H          x = -0.117415  y =  1.671552  z = -0.321517 angstrom
           Maximum rank =  0   Radius =  0.325 angstrom
                   Q00  =   0.082009

H          x = -0.082415  y =  0.799552  z =  1.224483 angstrom
           Maximum rank =  0   Radius =  0.325 angstrom
                   Q00  =   0.080885

H          x = -0.832415  y =  2.398552  z =  1.142483 angstrom
           Maximum rank =  0   Radius =  0.325 angstrom
                   Q00  =   0.082243

H          x =  1.368585  y =  2.745552  z =  2.145483 angstrom
           Maximum rank =  0   Radius =  0.325 angstrom
                   Q00  =   0.083535

H          x =  1.525601  y =  3.319132  z =  0.451052 angstrom
           Maximum rank =  0   Radius =  0.325 angstrom
                   Q00  =   0.081800

H          x =  2.159004  y =  1.710042  z =  0.915779 angstrom
           Maximum rank =  0   Radius =  0.325 angstrom
                   Q00  =   0.079575

C          x = -1.038415  y = -1.455448  z = -0.978517 angstrom
           Maximum rank =  0   Radius =  0.650 angstrom
                   Q00  =  -0.231454

C          x = -0.303415  y = -2.771448  z = -0.873517 angstrom
           Maximum rank =  0   Radius =  0.650 angstrom
                   Q00  =  -0.230734

H          x = -0.335415  y = -0.633448  z = -0.859517 angstrom
           Maximum rank =  0   Radius =  0.325 angstrom
                   Q00  =   0.080838

H          x = -1.509415  y = -1.360448  z = -1.951517 angstrom
           Maximum rank =  0   Radius =  0.325 angstrom
                   Q00  =   0.077819

H          x = -1.801415  y = -1.400448  z = -0.200517 angstrom
           Maximum rank =  0   Radius =  0.325 angstrom
                   Q00  =   0.074968

H          x = -1.041415  y = -3.572448  z = -0.868517 angstrom
           Maximum rank =  0   Radius =  0.325 angstrom
                   Q00  =   0.075925

H          x =  0.316042  y = -2.818548  z =  0.034258 angstrom
           Maximum rank =  0   Radius =  0.325 angstrom
                   Q00  =   0.078707

H          x =  0.322796  y = -2.885308  z = -1.770677 angstrom
           Maximum rank =  0   Radius =  0.325 angstrom
                   Q00  =   0.073625

Total multipoles referred to origin at
           x =   0.000000,  y =    0.000000,  z =    0.000000 angstrom
                   Q00  =  -0.000000

Finished at 23:21:54 on 27 Apr 2020

  DMA results are available in the Python driver through the
	  variable('DMA DISTRIBUTED MULTIPOLES')
  and
	  variable('DMA TOTAL MULTIPOLES')
  commands.

    Psi4 stopped on: Monday, 27 April 2020 11:21PM
    Psi4 wall time for execution: 0:00:13.05

*** Psi4 exiting successfully. Buy a developer a beer!
