                               Psi4 1.3.2 release

  ==> Input File <==

--------------------------------------------------------------------------
import numpy as np
set {scf_type pk
basis cc-pvdz
d_convergence 10
gdma_switch   0
gdma_limit    0
gdma_origin   [ 0.0,  0.0,  0.0 ]
}
molecule test {
    units Angstrom
    0 1
    --
    0 1
    C               -1.068209741522329    -1.403116221715682     3.045698171759695
    C                0.381790258477671     1.096883778284318     0.630698171759695
    C               -0.552209741522329     0.078883778284318     0.941698171759695
    C               -0.313209741522329    -0.342116221715682     2.295698171759695
    C                0.716790258477671     0.419883778284318     2.743698171759695
    C               -0.484209741522329     1.274883778284318    -1.568301828240305
    C                0.423790258477671     1.708883778284318    -0.613301828240305
    C               -1.405209741522329     0.260883778284318    -1.290301828240305
    C               -1.447209741522329    -0.339116221715682    -0.049301828240305
    N                1.149790258477671     1.276883778284318     1.751698171759695
    H               -0.477209741522329     1.710883778284318    -2.551301828240305
    H                1.137790258477671     2.488883778284318    -0.823301828240305
    H               -2.086209741522329    -0.067116221715682    -2.057301828240305
    H               -2.170209741522329    -1.113116221715682     0.157698171759695
    H                1.912790258477671     1.938883778284318     1.858698171759695
    H                1.153790258477671     0.355883778284318     3.730698171759695
    H               -0.493209741522329    -2.323116221715682     3.039698171759695
    H               -1.971209741522329    -1.590116221715682     2.470698171759695
    H               -1.339949741522329    -1.107526221715682     4.069798171759695
    C                1.726790258477671    -1.396116221715682    -3.259301828240305
    C                0.486790258477671    -2.009116221715681    -3.945301828240305
    H                1.653790258477671    -0.311116221715682    -3.202301828240305
    H                1.799790258477671    -1.783116221715682    -2.244301828240305
    H                2.620790258477671    -1.682116221715682    -3.812301828240305
    H               -0.408209741522329    -1.702116221715682    -3.403301828240305
    H                0.568790258477671    -3.087116221715681    -3.844301828240305
    H                0.391820258477671    -1.738586221715682    -5.007277828240305

}
e, wfn = energy('scf', return_wfn=True)
gdma(wfn)
dmavals = variable('DMA DISTRIBUTED MULTIPOLES')
charges = np.array(dmavals)
print(charges)
np.save('SSI-038TRP-073ILE-1-dimer.npy', np.array(charges))--------------------------------------------------------------------------

*** tstart() called on ds3
*** at Mon Apr 27 07:36:22 2020

   => Loading Basis Set <=

    Name: CC-PVDZ
    Role: ORBITAL
    Keyword: BASIS
    atoms 1-9, 20-21   entry C          line   138 file /theoryfs2/ds/metcalf/miniconda2/envs/tf2gpu/share/psi4/basis/cc-pvdz.gbs
    atoms 10           entry N          line   168 file /theoryfs2/ds/metcalf/miniconda2/envs/tf2gpu/share/psi4/basis/cc-pvdz.gbs
    atoms 11-19, 22-27 entry H          line    22 file /theoryfs2/ds/metcalf/miniconda2/envs/tf2gpu/share/psi4/basis/cc-pvdz.gbs

         ---------------------------------------------------------
                                   SCF
               by Justin Turney, Rob Parrish, Andy Simmonett
                          and Daniel G. A. Smith
                              RHF Reference
                        1 Threads,    500 MiB Core
         ---------------------------------------------------------

  ==> Geometry <==

    Molecular point group: c1
    Full point group: C1

    Geometry (in Angstrom), charge = 0, multiplicity = 1:

       Center              X                  Y                   Z               Mass
    ------------   -----------------  -----------------  -----------------  -----------------
         C           -1.068209741522    -1.403116221716     3.045698171760    12.000000000000
         C            0.381790258478     1.096883778284     0.630698171760    12.000000000000
         C           -0.552209741522     0.078883778284     0.941698171760    12.000000000000
         C           -0.313209741522    -0.342116221716     2.295698171760    12.000000000000
         C            0.716790258478     0.419883778284     2.743698171760    12.000000000000
         C           -0.484209741522     1.274883778284    -1.568301828240    12.000000000000
         C            0.423790258478     1.708883778284    -0.613301828240    12.000000000000
         C           -1.405209741522     0.260883778284    -1.290301828240    12.000000000000
         C           -1.447209741522    -0.339116221716    -0.049301828240    12.000000000000
         N            1.149790258478     1.276883778284     1.751698171760    14.003074004430
         H           -0.477209741522     1.710883778284    -2.551301828240     1.007825032230
         H            1.137790258478     2.488883778284    -0.823301828240     1.007825032230
         H           -2.086209741522    -0.067116221716    -2.057301828240     1.007825032230
         H           -2.170209741522    -1.113116221716     0.157698171760     1.007825032230
         H            1.912790258478     1.938883778284     1.858698171760     1.007825032230
         H            1.153790258478     0.355883778284     3.730698171760     1.007825032230
         H           -0.493209741522    -2.323116221716     3.039698171760     1.007825032230
         H           -1.971209741522    -1.590116221716     2.470698171760     1.007825032230
         H           -1.339949741522    -1.107526221716     4.069798171760     1.007825032230
         C            1.726790258478    -1.396116221716    -3.259301828240    12.000000000000
         C            0.486790258478    -2.009116221716    -3.945301828240    12.000000000000
         H            1.653790258478    -0.311116221716    -3.202301828240     1.007825032230
         H            1.799790258478    -1.783116221716    -2.244301828240     1.007825032230
         H            2.620790258478    -1.682116221716    -3.812301828240     1.007825032230
         H           -0.408209741522    -1.702116221716    -3.403301828240     1.007825032230
         H            0.568790258478    -3.087116221716    -3.844301828240     1.007825032230
         H            0.391820258478    -1.738586221716    -5.007277828240     1.007825032230

  Running in c1 symmetry.

  Rotational constants: A =      0.04467  B =      0.01657  C =      0.01538 [cm^-1]
  Rotational constants: A =   1339.18295  B =    496.63395  C =    460.95797 [MHz]
  Nuclear repulsion =  654.840198007710683

  Charge       = 0
  Multiplicity = 1
  Electrons    = 88
  Nalpha       = 44
  Nbeta        = 44

  ==> Algorithm <==

  SCF Algorithm Type is PK.
  DIIS enabled.
  MOM disabled.
  Fractional occupation disabled.
  Guess Type is SAD.
  Energy threshold   = 1.00e-06
  Density threshold  = 1.00e-10
  Integral threshold = 0.00e+00

  ==> Primary Basis <==

  Basis Set: CC-PVDZ
    Blend: CC-PVDZ
    Number of shells: 117
    Number of basis function: 243
    Number of Cartesian functions: 255
    Spherical Harmonics?: true
    Max angular momentum: 2

  ==> Pre-Iterations <==

   -------------------------------------------------------
    Irrep   Nso     Nmo     Nalpha   Nbeta   Ndocc  Nsocc
   -------------------------------------------------------
     A        243     243       0       0       0       0
   -------------------------------------------------------
    Total     243     243      44      44      44       0
   -------------------------------------------------------

  ==> Integral Setup <==

  Using integral reordering PK algorithm.
  Sizing the integral batches needed.
  Building batch lookup table.
   Calculation information:
      Number of atoms:                  27
      Number of AO shells:             117
      Number of primitives:            339
      Number of atomic orbitals:       255
      Number of basis functions:       243

      Integral cutoff                 1.00e-12
      Number of threads:                 1

	Batch   1 pq = [       0,    9405] index = [             0,44231715] size =     44231715
	Batch   2 pq = [    9405,   13301] index = [      44231715,88464951] size =     44233236
	Batch   3 pq = [   13301,   16290] index = [      88464951,132690195] size =     44225244
	Batch   4 pq = [   16290,   18810] index = [     132690195,176917455] size =     44227260
	Batch   5 pq = [   18810,   21030] index = [     176917455,221140965] size =     44223510
	Batch   6 pq = [   21030,   23037] index = [     221140965,265363203] size =     44222238
	Batch   7 pq = [   23037,   24883] index = [     265363203,309594286] size =     44231083
	Batch   8 pq = [   24883,   26601] index = [     309594286,353819901] size =     44225615
	Batch   9 pq = [   26601,   28214] index = [     353819901,398029005] size =     44209104
	Batch  10 pq = [   28214,   29646] index = [     398029005,439457481] size =     41428476
  Task number: 40
  Buffer size: 11059200
  Buffer per thread: 2
  We computed 22188094 shell quartets total.
  Whereas there are 23829156 unique shell quartets.

  ==> DiskJK: Disk-Based J/K Matrices <==

    J tasked:                  Yes
    K tasked:                  Yes
    wK tasked:                  No
    Memory [MiB]:              375
    Schwarz Cutoff:          1E-12

    OpenMP threads:              1

  Minimum eigenvalue in the overlap matrix is 2.3648874759E-04.
  Using Symmetric Orthogonalization.

  SCF Guess: Superposition of Atomic Densities via on-the-fly atomic UHF.

  ==> Iterations <==

                        Total Energy        Delta E     RMS |[F,P]|

   @RHF iter SAD:  -479.05247183780784   -4.79052e+02   0.00000e+00
   @RHF iter   1:  -479.48825026742588   -4.35778e-01   2.60886e-03 DIIS
   @RHF iter   2:  -479.72006302016115   -2.31813e-01   1.16658e-03 DIIS
   @RHF iter   3:  -479.76244162211339   -4.23786e-02   3.04887e-04 DIIS
   @RHF iter   4:  -479.76627126348069   -3.82964e-03   1.39504e-04 DIIS
   @RHF iter   5:  -479.76692238032194   -6.51117e-04   2.00219e-05 DIIS
   @RHF iter   6:  -479.76695131610904   -2.89358e-05   9.24698e-06 DIIS
   @RHF iter   7:  -479.76695726225944   -5.94615e-06   3.80840e-06 DIIS
   @RHF iter   8:  -479.76695894008628   -1.67783e-06   1.49176e-06 DIIS
   @RHF iter   9:  -479.76695926645976   -3.26373e-07   6.63678e-07 DIIS
   @RHF iter  10:  -479.76695933081305   -6.43533e-08   3.03489e-07 DIIS
   @RHF iter  11:  -479.76695934659426   -1.57812e-08   1.14916e-07 DIIS
   @RHF iter  12:  -479.76695934886720   -2.27294e-09   3.90648e-08 DIIS
   @RHF iter  13:  -479.76695934903580   -1.68598e-10   1.14773e-08 DIIS
   @RHF iter  14:  -479.76695934904012   -4.32010e-12   4.96985e-09 DIIS
   @RHF iter  15:  -479.76695934904427   -4.14957e-12   2.18225e-09 DIIS
   @RHF iter  16:  -479.76695934904035    3.92220e-12   9.36307e-10 DIIS
   @RHF iter  17:  -479.76695934904296   -2.61480e-12   4.46920e-10 DIIS
   @RHF iter  18:  -479.76695934904438   -1.42109e-12   1.60074e-10 DIIS
   @RHF iter  19:  -479.76695934904228    2.10321e-12   5.50035e-11 DIIS
  Energy and wave function converged.

  ==> Post-Iterations <==

    Orbital Energies [Eh]
    ---------------------

    Doubly Occupied:

       1A    -15.600984     2A    -11.263525     3A    -11.262143
       4A    -11.230583     5A    -11.228871     6A    -11.228336
       7A    -11.226893     8A    -11.220334     9A    -11.218698
      10A    -11.217404    11A    -11.208828    12A    -11.206352
      13A     -1.293368    14A     -1.130695    15A     -1.073771
      16A     -1.004583    17A     -0.999630    18A     -0.987256
      19A     -0.933588    20A     -0.840252    21A     -0.828616
      22A     -0.804840    23A     -0.753309    24A     -0.719305
      25A     -0.661622    26A     -0.644283    27A     -0.604354
      28A     -0.593363    29A     -0.592698    30A     -0.586241
      31A     -0.586127    32A     -0.569308    33A     -0.554900
      34A     -0.536171    35A     -0.525816    36A     -0.494789
      37A     -0.487664    38A     -0.477068    39A     -0.476300
      40A     -0.473775    41A     -0.462051    42A     -0.373847
      43A     -0.296340    44A     -0.275123

    Virtual:

      45A      0.125435    46A      0.169058    47A      0.178890
      48A      0.183835    49A      0.194215    50A      0.214404
      51A      0.220303    52A      0.224843    53A      0.231520
      54A      0.248304    55A      0.257283    56A      0.264502
      57A      0.269904    58A      0.285142    59A      0.293556
      60A      0.308227    61A      0.317391    62A      0.336794
      63A      0.371516    64A      0.383573    65A      0.400194
      66A      0.408517    67A      0.424477    68A      0.444426
      69A      0.469285    70A      0.481388    71A      0.504247
      72A      0.522897    73A      0.587175    74A      0.597782
      75A      0.603812    76A      0.616272    77A      0.627653
      78A      0.640684    79A      0.642421    80A      0.661635
      81A      0.668386    82A      0.693587    83A      0.701002
      84A      0.706643    85A      0.723159    86A      0.728679
      87A      0.738674    88A      0.740523    89A      0.758699
      90A      0.762808    91A      0.766015    92A      0.776751
      93A      0.792485    94A      0.796435    95A      0.828051
      96A      0.843190    97A      0.848816    98A      0.861895
      99A      0.864412   100A      0.879492   101A      0.889864
     102A      0.896034   103A      0.902309   104A      0.904570
     105A      0.907278   106A      0.925514   107A      0.929247
     108A      0.943122   109A      0.950844   110A      0.953264
     111A      0.961650   112A      0.969987   113A      0.989868
     114A      0.999157   115A      1.009307   116A      1.014653
     117A      1.052337   118A      1.081450   119A      1.090091
     120A      1.128080   121A      1.130408   122A      1.138924
     123A      1.141673   124A      1.144817   125A      1.164435
     126A      1.179179   127A      1.212895   128A      1.221242
     129A      1.231866   130A      1.239168   131A      1.251567
     132A      1.273239   133A      1.287537   134A      1.288270
     135A      1.302178   136A      1.329430   137A      1.336256
     138A      1.364004   139A      1.371427   140A      1.431026
     141A      1.445729   142A      1.470489   143A      1.496709
     144A      1.517806   145A      1.542652   146A      1.562106
     147A      1.584894   148A      1.598477   149A      1.626270
     150A      1.637599   151A      1.656328   152A      1.687876
     153A      1.691772   154A      1.703579   155A      1.704331
     156A      1.741816   157A      1.750807   158A      1.775441
     159A      1.791468   160A      1.817530   161A      1.830818
     162A      1.845430   163A      1.866673   164A      1.874690
     165A      1.879179   166A      1.881982   167A      1.892517
     168A      1.900193   169A      1.905677   170A      1.921289
     171A      1.929617   172A      1.943218   173A      1.949477
     174A      1.958540   175A      1.962253   176A      1.970931
     177A      1.974521   178A      1.989027   179A      1.994061
     180A      2.002911   181A      2.012654   182A      2.020071
     183A      2.037890   184A      2.069321   185A      2.086392
     186A      2.089390   187A      2.100152   188A      2.108731
     189A      2.117881   190A      2.136349   191A      2.139375
     192A      2.142354   193A      2.167272   194A      2.187587
     195A      2.195266   196A      2.237936   197A      2.265825
     198A      2.279710   199A      2.302459   200A      2.309407
     201A      2.318442   202A      2.323723   203A      2.351125
     204A      2.355440   205A      2.403304   206A      2.416483
     207A      2.455556   208A      2.460773   209A      2.472017
     210A      2.480219   211A      2.539139   212A      2.571023
     213A      2.585604   214A      2.591726   215A      2.595647
     216A      2.626228   217A      2.666336   218A      2.679875
     219A      2.734448   220A      2.777815   221A      2.781494
     222A      2.788105   223A      2.790565   224A      2.808364
     225A      2.814308   226A      2.827222   227A      2.840154
     228A      2.860079   229A      2.875428   230A      2.879586
     231A      2.923851   232A      2.964597   233A      2.969067
     234A      2.977773   235A      3.028256   236A      3.056101
     237A      3.082790   238A      3.127743   239A      3.213945
     240A      3.308447   241A      3.375004   242A      3.739271
     243A      3.969028

    Final Occupation by Irrep:
              A
    DOCC [    44 ]

  @RHF Final Energy:  -479.76695934904228

   => Energetics <=

    Nuclear Repulsion Energy =            654.8401980077106828
    One-Electron Energy =               -1947.7063093633053086
    Two-Electron Energy =                 813.0991520065522309
    Total Energy =                       -479.7669593490422812

Computation Completed

Properties will be evaluated at   0.000000,   0.000000,   0.000000 [a0]

Properties computed using the SCF density matrix

  Nuclear Dipole Moment: [e a0]
     X:     2.1464      Y:    -9.3884      Z:   -10.8970

  Electronic Dipole Moment: [e a0]
     X:    -1.6130      Y:     9.7039      Z:    11.4833

  Dipole Moment: [e a0]
     X:     0.5334      Y:     0.3156      Z:     0.5863     Total:     0.8531

  Dipole Moment: [D]
     X:     1.3558      Y:     0.8021      Z:     1.4902     Total:     2.1684

*** tstop() called on ds3 at Mon Apr 27 07:41:26 2020
Module time:
	user time   =     179.91 seconds =       3.00 minutes
	system time =      71.64 seconds =       1.19 minutes
	total time  =        304 seconds =       5.07 minutes
Total time:
	user time   =     179.91 seconds =       3.00 minutes
	system time =      71.64 seconds =       1.19 minutes
	total time  =        304 seconds =       5.07 minutes
                                     G D M A

                                 by Anthony Stone

                           version 2.2.06, 22 June 2011

               Distributed Multipoles from Gaussian wavefunctions

Starting at 7:41:26 on 27 Apr 2020

Using SCF density matrix from file ./SSI/SSI-038TRP-073ILE-1-dimer.test.27844.fchk

                         Distributed Multipole Analysis

Standard DMA

Positions and radii in angstrom
Multipole moments in atomic units, ea_0^k for rank k

C          x = -1.068210  y = -1.403116  z =  3.045698 angstrom
           Maximum rank =  0   Radius =  0.650 angstrom
                   Q00  =  -0.217040

C          x =  0.381790  y =  1.096884  z =  0.630698 angstrom
           Maximum rank =  0   Radius =  0.650 angstrom
                   Q00  =   0.250750

C          x = -0.552210  y =  0.078884  z =  0.941698 angstrom
           Maximum rank =  0   Radius =  0.650 angstrom
                   Q00  =  -0.053664

C          x = -0.313210  y = -0.342116  z =  2.295698 angstrom
           Maximum rank =  0   Radius =  0.650 angstrom
                   Q00  =  -0.123968

C          x =  0.716790  y =  0.419884  z =  2.743698 angstrom
           Maximum rank =  0   Radius =  0.650 angstrom
                   Q00  =   0.076430

C          x = -0.484210  y =  1.274884  z = -1.568302 angstrom
           Maximum rank =  0   Radius =  0.650 angstrom
                   Q00  =  -0.009416

C          x =  0.423790  y =  1.708884  z = -0.613302 angstrom
           Maximum rank =  0   Radius =  0.650 angstrom
                   Q00  =  -0.118720

C          x = -1.405210  y =  0.260884  z = -1.290302 angstrom
           Maximum rank =  0   Radius =  0.650 angstrom
                   Q00  =  -0.100244

C          x = -1.447210  y = -0.339116  z = -0.049302 angstrom
           Maximum rank =  0   Radius =  0.650 angstrom
                   Q00  =  -0.099307

N          x =  1.149790  y =  1.276884  z =  1.751698 angstrom
           Maximum rank =  0   Radius =  0.650 angstrom
                   Q00  =  -0.504722

H          x = -0.477210  y =  1.710884  z = -2.551302 angstrom
           Maximum rank =  0   Radius =  0.325 angstrom
                   Q00  =   0.064159

H          x =  1.137790  y =  2.488884  z = -0.823302 angstrom
           Maximum rank =  0   Radius =  0.325 angstrom
                   Q00  =   0.074414

H          x = -2.086210  y = -0.067116  z = -2.057302 angstrom
           Maximum rank =  0   Radius =  0.325 angstrom
                   Q00  =   0.060000

H          x = -2.170210  y = -1.113116  z =  0.157698 angstrom
           Maximum rank =  0   Radius =  0.325 angstrom
                   Q00  =   0.067800

H          x =  1.912790  y =  1.938884  z =  1.858698 angstrom
           Maximum rank =  0   Radius =  0.325 angstrom
                   Q00  =   0.217763

H          x =  1.153790  y =  0.355884  z =  3.730698 angstrom
           Maximum rank =  0   Radius =  0.325 angstrom
                   Q00  =   0.097895

H          x = -0.493210  y = -2.323116  z =  3.039698 angstrom
           Maximum rank =  0   Radius =  0.325 angstrom
                   Q00  =   0.104239

H          x = -1.971210  y = -1.590116  z =  2.470698 angstrom
           Maximum rank =  0   Radius =  0.325 angstrom
                   Q00  =   0.106148

H          x = -1.339950  y = -1.107526  z =  4.069798 angstrom
           Maximum rank =  0   Radius =  0.325 angstrom
                   Q00  =   0.106649

C          x =  1.726790  y = -1.396116  z = -3.259302 angstrom
           Maximum rank =  0   Radius =  0.650 angstrom
                   Q00  =  -0.238700

C          x =  0.486790  y = -2.009116  z = -3.945302 angstrom
           Maximum rank =  0   Radius =  0.650 angstrom
                   Q00  =  -0.236900

H          x =  1.653790  y = -0.311116  z = -3.202302 angstrom
           Maximum rank =  0   Radius =  0.325 angstrom
                   Q00  =   0.083732

H          x =  1.799790  y = -1.783116  z = -2.244302 angstrom
           Maximum rank =  0   Radius =  0.325 angstrom
                   Q00  =   0.085545

H          x =  2.620790  y = -1.682116  z = -3.812302 angstrom
           Maximum rank =  0   Radius =  0.325 angstrom
                   Q00  =   0.071215

H          x = -0.408210  y = -1.702116  z = -3.403302 angstrom
           Maximum rank =  0   Radius =  0.325 angstrom
                   Q00  =   0.084157

H          x =  0.568790  y = -3.087116  z = -3.844302 angstrom
           Maximum rank =  0   Radius =  0.325 angstrom
                   Q00  =   0.074997

H          x =  0.391820  y = -1.738586  z = -5.007278 angstrom
           Maximum rank =  0   Radius =  0.325 angstrom
                   Q00  =   0.076788

Total multipoles referred to origin at
           x =   0.000000,  y =    0.000000,  z =    0.000000 angstrom
                   Q00  =  -0.000000

Finished at 7:41:26 on 27 Apr 2020

  DMA results are available in the Python driver through the
	  variable('DMA DISTRIBUTED MULTIPOLES')
  and
	  variable('DMA TOTAL MULTIPOLES')
  commands.

    Psi4 stopped on: Monday, 27 April 2020 07:41AM
    Psi4 wall time for execution: 0:05:04.56

*** Psi4 exiting successfully. Buy a developer a beer!
