                               Psi4 1.3.2 release

  ==> Input File <==

--------------------------------------------------------------------------
import numpy as np
set {scf_type pk
basis cc-pvdz
d_convergence 10
gdma_switch   0
gdma_limit    0
gdma_origin   [ 0.0,  0.0,  0.0 ]
}
molecule test {
    units Angstrom
    0 1
    --
    0 1
    C               -1.883766451472668     1.634008348682298    -2.866482818724490
    C               -2.062766451472668     3.121008348682298    -2.775482818724490
    H               -1.543766451472668     1.251008348682298    -1.907482818724490
    H               -2.831766451472667     1.160008348682298    -3.110482818724490
    H               -1.150766451472668     1.386008348682298    -3.635482818724490
    H               -2.827766451472667     3.338008348682298    -2.031482818724490
    H               -1.113236451472668     3.570708348682298    -2.449663818724490
    H               -2.436406451472668     3.473378348682298    -3.748224818724490
    C               -0.321766451472668    -1.374991651317702    -1.768482818724490
    C                0.539233548527332    -2.564991651317702    -2.187482818724490
    C                0.300233548527332    -0.504991651317702    -0.733482818724490
    C                1.165233548527332     0.506008348682298    -0.954482818724490
    C                0.134233548527332    -0.590991651317702     0.682517181275510
    C                0.906233548527332     0.446008348682298     1.255517181275510
    C               -0.603766451472668    -1.423991651317702     1.538517181275510
    C                0.975233548527332     0.647008348682298     2.623517181275510
    C               -0.527766451472668    -1.209991651317702     2.919517181275511
    C                0.245233548527332    -0.180991651317702     3.438517181275510
    N                1.556233548527332     1.067008348682298     0.231517181275510
    H               -0.548766451472668    -0.778991651317702    -2.651482818724490
    H               -1.271766451472668    -1.750991651317702    -1.384482818724490
    H               -0.023766451472668    -3.131991651317702    -2.929482818724490
    H                1.518233548527332     0.813008348682298    -1.934482818724490
    H                2.289233548527333     1.770008348682298     0.339517181275510
    H               -1.226766451472668    -2.208991651317702     1.133517181275510
    H                1.603233548527332     1.424008348682298     3.034517181275510
    H               -1.078766451472668    -1.850991651317702     3.594517181275510
    H                0.319233548527332    -0.059991651317702     4.510517181275510
    H                0.754893548527332    -3.204491651317702    -1.318844818724490
    H                1.450553548527332    -2.201761651317702    -2.685028818724490

}
e, wfn = energy('scf', return_wfn=True)
gdma(wfn)
dmavals = variable('DMA DISTRIBUTED MULTIPOLES')
charges = np.array(dmavals)
print(charges)
np.save('SSI-101LEU-111TRP-1-dimer.npy', np.array(charges))--------------------------------------------------------------------------

*** tstart() called on ds3
*** at Tue Apr 28 04:02:39 2020

   => Loading Basis Set <=

    Name: CC-PVDZ
    Role: ORBITAL
    Keyword: BASIS
    atoms 1-2, 9-18  entry C          line   138 file /theoryfs2/ds/metcalf/miniconda2/envs/tf2gpu/share/psi4/basis/cc-pvdz.gbs
    atoms 3-8, 20-30 entry H          line    22 file /theoryfs2/ds/metcalf/miniconda2/envs/tf2gpu/share/psi4/basis/cc-pvdz.gbs
    atoms 19         entry N          line   168 file /theoryfs2/ds/metcalf/miniconda2/envs/tf2gpu/share/psi4/basis/cc-pvdz.gbs

         ---------------------------------------------------------
                                   SCF
               by Justin Turney, Rob Parrish, Andy Simmonett
                          and Daniel G. A. Smith
                              RHF Reference
                        1 Threads,    500 MiB Core
         ---------------------------------------------------------

  ==> Geometry <==

    Molecular point group: c1
    Full point group: C1

    Geometry (in Angstrom), charge = 0, multiplicity = 1:

       Center              X                  Y                   Z               Mass
    ------------   -----------------  -----------------  -----------------  -----------------
         C           -1.883766451473     1.634008348682    -2.866482818724    12.000000000000
         C           -2.062766451473     3.121008348682    -2.775482818724    12.000000000000
         H           -1.543766451473     1.251008348682    -1.907482818724     1.007825032230
         H           -2.831766451473     1.160008348682    -3.110482818724     1.007825032230
         H           -1.150766451473     1.386008348682    -3.635482818724     1.007825032230
         H           -2.827766451473     3.338008348682    -2.031482818724     1.007825032230
         H           -1.113236451473     3.570708348682    -2.449663818724     1.007825032230
         H           -2.436406451473     3.473378348682    -3.748224818724     1.007825032230
         C           -0.321766451473    -1.374991651318    -1.768482818724    12.000000000000
         C            0.539233548527    -2.564991651318    -2.187482818724    12.000000000000
         C            0.300233548527    -0.504991651318    -0.733482818724    12.000000000000
         C            1.165233548527     0.506008348682    -0.954482818724    12.000000000000
         C            0.134233548527    -0.590991651318     0.682517181276    12.000000000000
         C            0.906233548527     0.446008348682     1.255517181276    12.000000000000
         C           -0.603766451473    -1.423991651318     1.538517181276    12.000000000000
         C            0.975233548527     0.647008348682     2.623517181276    12.000000000000
         C           -0.527766451473    -1.209991651318     2.919517181276    12.000000000000
         C            0.245233548527    -0.180991651318     3.438517181276    12.000000000000
         N            1.556233548527     1.067008348682     0.231517181276    14.003074004430
         H           -0.548766451473    -0.778991651318    -2.651482818724     1.007825032230
         H           -1.271766451473    -1.750991651318    -1.384482818724     1.007825032230
         H           -0.023766451473    -3.131991651318    -2.929482818724     1.007825032230
         H            1.518233548527     0.813008348682    -1.934482818724     1.007825032230
         H            2.289233548527     1.770008348682     0.339517181276     1.007825032230
         H           -1.226766451473    -2.208991651318     1.133517181276     1.007825032230
         H            1.603233548527     1.424008348682     3.034517181276     1.007825032230
         H           -1.078766451473    -1.850991651318     3.594517181276     1.007825032230
         H            0.319233548527    -0.059991651318     4.510517181276     1.007825032230
         H            0.754893548527    -3.204491651318    -1.318844818724     1.007825032230
         H            1.450553548527    -2.201761651318    -2.685028818724     1.007825032230

  Running in c1 symmetry.

  Rotational constants: A =      0.03128  B =      0.01573  C =      0.01319 [cm^-1]
  Rotational constants: A =    937.87618  B =    471.44084  C =    395.33689 [MHz]
  Nuclear repulsion =  757.152198233010836

  Charge       = 0
  Multiplicity = 1
  Electrons    = 96
  Nalpha       = 48
  Nbeta        = 48

  ==> Algorithm <==

  SCF Algorithm Type is PK.
  DIIS enabled.
  MOM disabled.
  Fractional occupation disabled.
  Guess Type is SAD.
  Energy threshold   = 1.00e-06
  Density threshold  = 1.00e-10
  Integral threshold = 0.00e+00

  ==> Primary Basis <==

  Basis Set: CC-PVDZ
    Blend: CC-PVDZ
    Number of shells: 129
    Number of basis function: 267
    Number of Cartesian functions: 280
    Spherical Harmonics?: true
    Max angular momentum: 2

  ==> Pre-Iterations <==

   -------------------------------------------------------
    Irrep   Nso     Nmo     Nalpha   Nbeta   Ndocc  Nsocc
   -------------------------------------------------------
     A        267     267       0       0       0       0
   -------------------------------------------------------
    Total     267     267      48      48      48       0
   -------------------------------------------------------

  ==> Integral Setup <==

  Using integral reordering PK algorithm.
  Sizing the integral batches needed.
  Building batch lookup table.
   Calculation information:
      Number of atoms:                  30
      Number of AO shells:             129
      Number of primitives:            371
      Number of atomic orbitals:       280
      Number of basis functions:       267

      Integral cutoff                 1.00e-12
      Number of threads:                 1

	Batch   1 pq = [       0,    9405] index = [             0,44231715] size =     44231715
	Batch   2 pq = [    9405,   13301] index = [      44231715,88464951] size =     44233236
	Batch   3 pq = [   13301,   16290] index = [      88464951,132690195] size =     44225244
	Batch   4 pq = [   16290,   18810] index = [     132690195,176917455] size =     44227260
	Batch   5 pq = [   18810,   21030] index = [     176917455,221140965] size =     44223510
	Batch   6 pq = [   21030,   23037] index = [     221140965,265363203] size =     44222238
	Batch   7 pq = [   23037,   24883] index = [     265363203,309594286] size =     44231083
	Batch   8 pq = [   24883,   26601] index = [     309594286,353819901] size =     44225615
	Batch   9 pq = [   26601,   28214] index = [     353819901,398029005] size =     44209104
	Batch  10 pq = [   28214,   29740] index = [     398029005,442248670] size =     44219665
	Batch  11 pq = [   29740,   31191] index = [     442248670,486454836] size =     44206166
	Batch  12 pq = [   31191,   32578] index = [     486454836,530679331] size =     44224495
	Batch  13 pq = [   32578,   33908] index = [     530679331,574893186] size =     44213855
	Batch  14 pq = [   33908,   35188] index = [     574893186,619115266] size =     44222080
	Batch  15 pq = [   35188,   35778] index = [     619115266,640050531] size =     20935265
  Task number: 58
  Buffer size: 11059200
  Buffer per thread: 2
  We computed 35622302 shell quartets total.
  Whereas there are 35158305 unique shell quartets.
     1.32 percent of shell quartets recomputed by reordering.

  ==> DiskJK: Disk-Based J/K Matrices <==

    J tasked:                  Yes
    K tasked:                  Yes
    wK tasked:                  No
    Memory [MiB]:              375
    Schwarz Cutoff:          1E-12

    OpenMP threads:              1

  Minimum eigenvalue in the overlap matrix is 2.2768915622E-04.
  Using Symmetric Orthogonalization.

  SCF Guess: Superposition of Atomic Densities via on-the-fly atomic UHF.

  ==> Iterations <==

                        Total Energy        Delta E     RMS |[F,P]|

   @RHF iter SAD:  -518.24990693028633   -5.18250e+02   0.00000e+00
   @RHF iter   1:  -518.48330091431285   -2.33394e-01   2.53175e-03 DIIS
   @RHF iter   2:  -518.74554753283292   -2.62247e-01   1.13770e-03 DIIS
   @RHF iter   3:  -518.79404978341552   -4.85023e-02   2.90894e-04 DIIS
   @RHF iter   4:  -518.79829317655162   -4.24339e-03   1.36444e-04 DIIS
   @RHF iter   5:  -518.79902877232826   -7.35596e-04   1.90416e-05 DIIS
   @RHF iter   6:  -518.79906021251054   -3.14402e-05   8.51683e-06 DIIS
   @RHF iter   7:  -518.79906609923603   -5.88673e-06   3.58198e-06 DIIS
   @RHF iter   8:  -518.79906775086079   -1.65162e-06   1.42960e-06 DIIS
   @RHF iter   9:  -518.79906811997625   -3.69115e-07   6.26724e-07 DIIS
   @RHF iter  10:  -518.79906819158953   -7.16133e-08   2.84501e-07 DIIS
   @RHF iter  11:  -518.79906820785357   -1.62640e-08   1.08584e-07 DIIS
   @RHF iter  12:  -518.79906821026930   -2.41573e-09   4.01121e-08 DIIS
   @RHF iter  13:  -518.79906821045699   -1.87697e-10   1.30335e-08 DIIS
   @RHF iter  14:  -518.79906821047621   -1.92131e-11   4.57839e-09 DIIS
   @RHF iter  15:  -518.79906821047700   -7.95808e-13   1.90178e-09 DIIS
   @RHF iter  16:  -518.79906821047518    1.81899e-12   8.48070e-10 DIIS
   @RHF iter  17:  -518.79906821047200    3.18323e-12   3.71821e-10 DIIS
   @RHF iter  18:  -518.79906821047086    1.13687e-12   1.56731e-10 DIIS
   @RHF iter  19:  -518.79906821048007   -9.20863e-12   6.17573e-11 DIIS
  Energy and wave function converged.

  ==> Post-Iterations <==

    Orbital Energies [Eh]
    ---------------------

    Doubly Occupied:

       1A    -15.601587     2A    -11.261520     3A    -11.260904
       4A    -11.231515     5A    -11.227178     6A    -11.225100
       7A    -11.222725     8A    -11.220021     9A    -11.219397
      10A    -11.217564    11A    -11.213780    12A    -11.210752
      13A    -11.207471    14A     -1.300457    15A     -1.130642
      16A     -1.086793    17A     -1.022855    18A     -1.015631
      19A     -0.993821    20A     -0.969331    21A     -0.857465
      22A     -0.840173    23A     -0.828559    24A     -0.803232
      25A     -0.747743    26A     -0.720307    27A     -0.664900
      28A     -0.644566    29A     -0.617466    30A     -0.604448
      31A     -0.596784    32A     -0.592902    33A     -0.590556
      34A     -0.585110    35A     -0.576230    36A     -0.546604
      37A     -0.515981    38A     -0.508884    39A     -0.502720
      40A     -0.494415    41A     -0.482321    42A     -0.476364
      43A     -0.475599    44A     -0.465095    45A     -0.460259
      46A     -0.373552    47A     -0.295855    48A     -0.275142

    Virtual:

      49A      0.125545    50A      0.167862    51A      0.172633
      52A      0.181696    53A      0.193758    54A      0.203150
      55A      0.215640    56A      0.224751    57A      0.232667
      58A      0.236992    59A      0.251695    60A      0.257436
      61A      0.266064    62A      0.269842    63A      0.281797
      64A      0.284339    65A      0.291381    66A      0.300092
      67A      0.317749    68A      0.325651    69A      0.384948
      70A      0.387471    71A      0.408672    72A      0.413858
      73A      0.427865    74A      0.432863    75A      0.446421
      76A      0.476991    77A      0.488662    78A      0.509005
      79A      0.521320    80A      0.578439    81A      0.585872
      82A      0.603420    83A      0.609779    84A      0.616958
      85A      0.626018    86A      0.650679    87A      0.656869
      88A      0.659189    89A      0.680069    90A      0.683847
      91A      0.692643    92A      0.715718    93A      0.723527
      94A      0.740039    95A      0.742636    96A      0.745901
      97A      0.754551    98A      0.758420    99A      0.764729
     100A      0.778646   101A      0.793025   102A      0.801631
     103A      0.815965   104A      0.841956   105A      0.854556
     106A      0.858459   107A      0.874544   108A      0.877170
     109A      0.887710   110A      0.889379   111A      0.892159
     112A      0.897666   113A      0.902426   114A      0.911390
     115A      0.922300   116A      0.924357   117A      0.927907
     118A      0.931545   119A      0.942085   120A      0.950826
     121A      0.968052   122A      0.971441   123A      0.979934
     124A      0.994097   125A      1.000012   126A      1.011432
     127A      1.040263   128A      1.055495   129A      1.077266
     130A      1.082873   131A      1.093614   132A      1.132183
     133A      1.138493   134A      1.144273   135A      1.145732
     136A      1.156484   137A      1.167158   138A      1.170744
     139A      1.209779   140A      1.220323   141A      1.229123
     142A      1.242369   143A      1.256431   144A      1.265904
     145A      1.281215   146A      1.297259   147A      1.312589
     148A      1.334287   149A      1.335091   150A      1.361337
     151A      1.371671   152A      1.388701   153A      1.430685
     154A      1.439765   155A      1.474782   156A      1.500713
     157A      1.505910   158A      1.521986   159A      1.545786
     160A      1.577888   161A      1.590099   162A      1.602391
     163A      1.640893   164A      1.649327   165A      1.664392
     166A      1.670814   167A      1.680023   168A      1.705844
     169A      1.731185   170A      1.740848   171A      1.763118
     172A      1.775137   173A      1.794436   174A      1.806698
     175A      1.830162   176A      1.847338   177A      1.857186
     178A      1.862391   179A      1.875093   180A      1.883101
     181A      1.889919   182A      1.898037   183A      1.910939
     184A      1.914937   185A      1.917526   186A      1.931469
     187A      1.946300   188A      1.953987   189A      1.957262
     190A      1.959147   191A      1.965807   192A      1.974461
     193A      1.978715   194A      1.987095   195A      1.994731
     196A      2.002440   197A      2.008300   198A      2.025356
     199A      2.037076   200A      2.048736   201A      2.060953
     202A      2.064127   203A      2.089384   204A      2.095177
     205A      2.104646   206A      2.108674   207A      2.121954
     208A      2.123626   209A      2.132993   210A      2.160410
     211A      2.165035   212A      2.173402   213A      2.177835
     214A      2.197922   215A      2.235124   216A      2.264064
     217A      2.284500   218A      2.299238   219A      2.306614
     220A      2.319535   221A      2.327089   222A      2.344471
     223A      2.349067   224A      2.364076   225A      2.382166
     226A      2.413865   227A      2.456887   228A      2.462345
     229A      2.469006   230A      2.498109   231A      2.533095
     232A      2.556393   233A      2.574550   234A      2.578011
     235A      2.591665   236A      2.604564   237A      2.622086
     238A      2.648681   239A      2.684795   240A      2.709573
     241A      2.739653   242A      2.768751   243A      2.773423
     244A      2.777743   245A      2.784301   246A      2.800217
     247A      2.815767   248A      2.819791   249A      2.839671
     250A      2.855949   251A      2.860568   252A      2.897010
     253A      2.922184   254A      2.940349   255A      2.963803
     256A      2.977763   257A      2.993420   258A      3.002107
     259A      3.063527   260A      3.078556   261A      3.119855
     262A      3.135528   263A      3.229725   264A      3.324230
     265A      3.392466   266A      3.750961   267A      3.967713

    Final Occupation by Irrep:
              A
    DOCC [    48 ]

  @RHF Final Energy:  -518.79906821048007

   => Energetics <=

    Nuclear Repulsion Energy =            757.1521982330108358
    One-Electron Energy =               -2203.9379780910107911
    Two-Electron Energy =                 927.9867116475197690
    Total Energy =                       -518.7990682104800726

Computation Completed

Properties will be evaluated at   0.000000,   0.000000,   0.000000 [a0]

Properties computed using the SCF density matrix

  Nuclear Dipole Moment: [e a0]
     X:    -7.6150      Y:     2.8074      Z:   -16.1008

  Electronic Dipole Moment: [e a0]
     X:     8.1533      Y:    -2.3523      Z:    15.7957

  Dipole Moment: [e a0]
     X:     0.5383      Y:     0.4551      Z:    -0.3051     Total:     0.7681

  Dipole Moment: [D]
     X:     1.3682      Y:     1.1566      Z:    -0.7754     Total:     1.9522

*** tstop() called on ds3 at Tue Apr 28 04:14:46 2020
Module time:
	user time   =     280.31 seconds =       4.67 minutes
	system time =      97.59 seconds =       1.63 minutes
	total time  =        727 seconds =      12.12 minutes
Total time:
	user time   =     280.31 seconds =       4.67 minutes
	system time =      97.59 seconds =       1.63 minutes
	total time  =        727 seconds =      12.12 minutes
                                     G D M A

                                 by Anthony Stone

                           version 2.2.06, 22 June 2011

               Distributed Multipoles from Gaussian wavefunctions

Starting at 4:14:46 on 28 Apr 2020

Using SCF density matrix from file ./SSI/SSI-101LEU-111TRP-1-dimer.test.27197.fchk

                         Distributed Multipole Analysis

Standard DMA

Positions and radii in angstrom
Multipole moments in atomic units, ea_0^k for rank k

C          x = -1.883766  y =  1.634008  z = -2.866483 angstrom
           Maximum rank =  0   Radius =  0.650 angstrom
                   Q00  =  -0.236625

C          x = -2.062766  y =  3.121008  z = -2.775483 angstrom
           Maximum rank =  0   Radius =  0.650 angstrom
                   Q00  =  -0.192995

H          x = -1.543766  y =  1.251008  z = -1.907483 angstrom
           Maximum rank =  0   Radius =  0.325 angstrom
                   Q00  =   0.092463

H          x = -2.831766  y =  1.160008  z = -3.110483 angstrom
           Maximum rank =  0   Radius =  0.325 angstrom
                   Q00  =   0.074269

H          x = -1.150766  y =  1.386008  z = -3.635483 angstrom
           Maximum rank =  0   Radius =  0.325 angstrom
                   Q00  =   0.063559

H          x = -2.827766  y =  3.338008  z = -2.031483 angstrom
           Maximum rank =  0   Radius =  0.325 angstrom
                   Q00  =   0.079178

H          x = -1.113236  y =  3.570708  z = -2.449664 angstrom
           Maximum rank =  0   Radius =  0.325 angstrom
                   Q00  =   0.060941

H          x = -2.436406  y =  3.473378  z = -3.748225 angstrom
           Maximum rank =  0   Radius =  0.325 angstrom
                   Q00  =   0.059482

C          x = -0.321766  y = -1.374992  z = -1.768483 angstrom
           Maximum rank =  0   Radius =  0.650 angstrom
                   Q00  =  -0.051096

C          x =  0.539234  y = -2.564992  z = -2.187483 angstrom
           Maximum rank =  0   Radius =  0.650 angstrom
                   Q00  =  -0.240319

C          x =  0.300234  y = -0.504992  z = -0.733483 angstrom
           Maximum rank =  0   Radius =  0.650 angstrom
                   Q00  =  -0.128817

C          x =  1.165234  y =  0.506008  z = -0.954483 angstrom
           Maximum rank =  0   Radius =  0.650 angstrom
                   Q00  =   0.067596

C          x =  0.134234  y = -0.590992  z =  0.682517 angstrom
           Maximum rank =  0   Radius =  0.650 angstrom
                   Q00  =  -0.048722

C          x =  0.906234  y =  0.446008  z =  1.255517 angstrom
           Maximum rank =  0   Radius =  0.650 angstrom
                   Q00  =   0.244071

C          x = -0.603766  y = -1.423992  z =  1.538517 angstrom
           Maximum rank =  0   Radius =  0.650 angstrom
                   Q00  =  -0.107001

C          x =  0.975234  y =  0.647008  z =  2.623517 angstrom
           Maximum rank =  0   Radius =  0.650 angstrom
                   Q00  =  -0.120355

C          x = -0.527766  y = -1.209992  z =  2.919517 angstrom
           Maximum rank =  0   Radius =  0.650 angstrom
                   Q00  =  -0.074591

C          x =  0.245234  y = -0.180992  z =  3.438517 angstrom
           Maximum rank =  0   Radius =  0.650 angstrom
                   Q00  =  -0.020093

N          x =  1.556234  y =  1.067008  z =  0.231517 angstrom
           Maximum rank =  0   Radius =  0.650 angstrom
                   Q00  =  -0.491578

H          x = -0.548766  y = -0.778992  z = -2.651483 angstrom
           Maximum rank =  0   Radius =  0.325 angstrom
                   Q00  =   0.078998

H          x = -1.271766  y = -1.750992  z = -1.384483 angstrom
           Maximum rank =  0   Radius =  0.325 angstrom
                   Q00  =   0.072417

H          x = -0.023766  y = -3.131992  z = -2.929483 angstrom
           Maximum rank =  0   Radius =  0.325 angstrom
                   Q00  =   0.075715

H          x =  1.518234  y =  0.813008  z = -1.934483 angstrom
           Maximum rank =  0   Radius =  0.325 angstrom
                   Q00  =   0.099037

H          x =  2.289234  y =  1.770008  z =  0.339517 angstrom
           Maximum rank =  0   Radius =  0.325 angstrom
                   Q00  =   0.218736

H          x = -1.226766  y = -2.208992  z =  1.133517 angstrom
           Maximum rank =  0   Radius =  0.325 angstrom
                   Q00  =   0.070015

H          x =  1.603234  y =  1.424008  z =  3.034517 angstrom
           Maximum rank =  0   Radius =  0.325 angstrom
                   Q00  =   0.071105

H          x = -1.078766  y = -1.850992  z =  3.594517 angstrom
           Maximum rank =  0   Radius =  0.325 angstrom
                   Q00  =   0.059684

H          x =  0.319234  y = -0.059992  z =  4.510517 angstrom
           Maximum rank =  0   Radius =  0.325 angstrom
                   Q00  =   0.061351

H          x =  0.754894  y = -3.204492  z = -1.318845 angstrom
           Maximum rank =  0   Radius =  0.325 angstrom
                   Q00  =   0.086710

H          x =  1.450554  y = -2.201762  z = -2.685029 angstrom
           Maximum rank =  0   Radius =  0.325 angstrom
                   Q00  =   0.076865

Total multipoles referred to origin at
           x =   0.000000,  y =    0.000000,  z =    0.000000 angstrom
                   Q00  =  -0.000000

Finished at 4:14:46 on 28 Apr 2020

  DMA results are available in the Python driver through the
	  variable('DMA DISTRIBUTED MULTIPOLES')
  and
	  variable('DMA TOTAL MULTIPOLES')
  commands.

    Psi4 stopped on: Tuesday, 28 April 2020 04:14AM
    Psi4 wall time for execution: 0:12:07.22

*** Psi4 exiting successfully. Buy a developer a beer!
