                               Psi4 1.3.2 release

  ==> Input File <==

--------------------------------------------------------------------------
import numpy as np
set {scf_type pk
basis cc-pvdz
d_convergence 10
gdma_switch   0
gdma_limit    0
gdma_origin   [ 0.0,  0.0,  0.0 ]
}
molecule test {
    units Angstrom
    1 1
    --
    1 1
    C               -0.900050175199522    -0.162480961306764     2.281150752077923
    C               -1.178050175199522    -0.099480961306764     3.790150752077923
    H               -0.047050175199522    -0.811480961306764     2.076150752077923
    H               -1.771050175199522    -0.563480961306764     1.761150752077923
    H               -0.715050175199522     0.834519038693236     1.878150752077923
    H               -1.932050175199522     0.662519038693236     3.964150752077923
    H               -0.252869175199522     0.168599038693236     4.321351752077923
    H               -1.578158175199522    -1.041580961306764     4.193096752077923
    C                1.521949824800478     0.756519038693236    -0.473849247922077
    C                2.825949824800478     0.236519038693236     0.109150752077923
    C               -0.533050175199522    -0.176480961306764    -1.449849247922077
    N                0.643949824800478    -0.350480961306764    -0.868849247922077
    N               -0.978050175199522     1.042519038693236    -1.694849247922077
    N               -1.262050175199522    -1.223480961306764    -1.782849247922077
    H                1.027949824800478     1.383519038693236     0.272150752077923
    H                1.754949824800478     1.360519038693236    -1.353849247922077
    H                3.259949824800477    -0.499480961306764    -0.568849247922077
    H                2.621949824800478    -0.243480961306764     1.067150752077923
    H                0.959949824800478    -1.297480961306764    -0.710849247922077
    H               -0.417050175199522     1.839519038693236    -1.449849247922077
    H               -1.871050175199522     1.177519038693236    -2.140849247922077
    H               -0.926050175199522    -2.156480961306764    -1.606849247922077
    H               -2.156050175199522    -1.096480961306764    -2.228849247922077
    H                3.539979824800477     1.063818038693236     0.234610752077923

}
e, wfn = energy('scf', return_wfn=True)
gdma(wfn)
dmavals = variable('DMA DISTRIBUTED MULTIPOLES')
charges = np.array(dmavals)
print(charges)
np.save('SSI-081ILE-085ARG-1-dimer.npy', np.array(charges))--------------------------------------------------------------------------

*** tstart() called on ds3
*** at Mon Apr 27 16:21:02 2020

   => Loading Basis Set <=

    Name: CC-PVDZ
    Role: ORBITAL
    Keyword: BASIS
    atoms 1-2, 9-11  entry C          line   138 file /theoryfs2/ds/metcalf/miniconda2/envs/tf2gpu/share/psi4/basis/cc-pvdz.gbs
    atoms 3-8, 15-24 entry H          line    22 file /theoryfs2/ds/metcalf/miniconda2/envs/tf2gpu/share/psi4/basis/cc-pvdz.gbs
    atoms 12-14      entry N          line   168 file /theoryfs2/ds/metcalf/miniconda2/envs/tf2gpu/share/psi4/basis/cc-pvdz.gbs

         ---------------------------------------------------------
                                   SCF
               by Justin Turney, Rob Parrish, Andy Simmonett
                          and Daniel G. A. Smith
                              RHF Reference
                        1 Threads,    500 MiB Core
         ---------------------------------------------------------

  ==> Geometry <==

    Molecular point group: c1
    Full point group: C1

    Geometry (in Angstrom), charge = 1, multiplicity = 1:

       Center              X                  Y                   Z               Mass
    ------------   -----------------  -----------------  -----------------  -----------------
         C           -0.900050175200    -0.162480961307     2.281150752078    12.000000000000
         C           -1.178050175200    -0.099480961307     3.790150752078    12.000000000000
         H           -0.047050175200    -0.811480961307     2.076150752078     1.007825032230
         H           -1.771050175200    -0.563480961307     1.761150752078     1.007825032230
         H           -0.715050175200     0.834519038693     1.878150752078     1.007825032230
         H           -1.932050175200     0.662519038693     3.964150752078     1.007825032230
         H           -0.252869175200     0.168599038693     4.321351752078     1.007825032230
         H           -1.578158175200    -1.041580961307     4.193096752078     1.007825032230
         C            1.521949824800     0.756519038693    -0.473849247922    12.000000000000
         C            2.825949824800     0.236519038693     0.109150752078    12.000000000000
         C           -0.533050175200    -0.176480961307    -1.449849247922    12.000000000000
         N            0.643949824800    -0.350480961307    -0.868849247922    14.003074004430
         N           -0.978050175200     1.042519038693    -1.694849247922    14.003074004430
         N           -1.262050175200    -1.223480961307    -1.782849247922    14.003074004430
         H            1.027949824800     1.383519038693     0.272150752078     1.007825032230
         H            1.754949824800     1.360519038693    -1.353849247922     1.007825032230
         H            3.259949824800    -0.499480961307    -0.568849247922     1.007825032230
         H            2.621949824800    -0.243480961307     1.067150752078     1.007825032230
         H            0.959949824800    -1.297480961307    -0.710849247922     1.007825032230
         H           -0.417050175200     1.839519038693    -1.449849247922     1.007825032230
         H           -1.871050175200     1.177519038693    -2.140849247922     1.007825032230
         H           -0.926050175200    -2.156480961307    -1.606849247922     1.007825032230
         H           -2.156050175200    -1.096480961307    -2.228849247922     1.007825032230
         H            3.539979824800     1.063818038693     0.234610752078     1.007825032230

  Running in c1 symmetry.

  Rotational constants: A =      0.05446  B =      0.03325  C =      0.02420 [cm^-1]
  Rotational constants: A =   1632.70068  B =    996.66172  C =    725.49669 [MHz]
  Nuclear repulsion =  400.923045343004162

  Charge       = 1
  Multiplicity = 1
  Electrons    = 66
  Nalpha       = 33
  Nbeta        = 33

  ==> Algorithm <==

  SCF Algorithm Type is PK.
  DIIS enabled.
  MOM disabled.
  Fractional occupation disabled.
  Guess Type is SAD.
  Energy threshold   = 1.00e-06
  Density threshold  = 1.00e-10
  Integral threshold = 0.00e+00

  ==> Primary Basis <==

  Basis Set: CC-PVDZ
    Blend: CC-PVDZ
    Number of shells: 96
    Number of basis function: 192
    Number of Cartesian functions: 200
    Spherical Harmonics?: true
    Max angular momentum: 2

  ==> Pre-Iterations <==

   -------------------------------------------------------
    Irrep   Nso     Nmo     Nalpha   Nbeta   Ndocc  Nsocc
   -------------------------------------------------------
     A        192     192       0       0       0       0
   -------------------------------------------------------
    Total     192     192      33      33      33       0
   -------------------------------------------------------

  ==> Integral Setup <==

  Using integral reordering PK algorithm.
  Sizing the integral batches needed.
  Building batch lookup table.
   Calculation information:
      Number of atoms:                  24
      Number of AO shells:              96
      Number of primitives:            256
      Number of atomic orbitals:       200
      Number of basis functions:       192

      Integral cutoff                 1.00e-12
      Number of threads:                 1

	Batch   1 pq = [       0,    9405] index = [             0,44231715] size =     44231715
	Batch   2 pq = [    9405,   13301] index = [      44231715,88464951] size =     44233236
	Batch   3 pq = [   13301,   16290] index = [      88464951,132690195] size =     44225244
	Batch   4 pq = [   16290,   18528] index = [     132690195,171652656] size =     38962461
  Task number: 16
  Buffer size: 11059200
  Buffer per thread: 2
  We computed 9747907 shell quartets total.
  Whereas there are 10841496 unique shell quartets.

  ==> DiskJK: Disk-Based J/K Matrices <==

    J tasked:                  Yes
    K tasked:                  Yes
    wK tasked:                  No
    Memory [MiB]:              375
    Schwarz Cutoff:          1E-12

    OpenMP threads:              1

  Minimum eigenvalue in the overlap matrix is 3.4775599379E-03.
  Using Symmetric Orthogonalization.

  SCF Guess: Superposition of Atomic Densities via on-the-fly atomic UHF.

  ==> Iterations <==

                        Total Energy        Delta E     RMS |[F,P]|

   @RHF iter SAD:  -361.13921757524855   -3.61139e+02   0.00000e+00
   @RHF iter   1:  -361.62638677919387   -4.87169e-01   3.21082e-03 DIIS
   @RHF iter   2:  -361.82689644097934   -2.00510e-01   1.27113e-03 DIIS
   @RHF iter   3:  -361.85672902399153   -2.98326e-02   2.99703e-04 DIIS
   @RHF iter   4:  -361.85952018633941   -2.79116e-03   5.27286e-05 DIIS
   @RHF iter   5:  -361.85960066713767   -8.04808e-05   1.95578e-05 DIIS
   @RHF iter   6:  -361.85961169390532   -1.10268e-05   3.70581e-06 DIIS
   @RHF iter   7:  -361.85961231183740   -6.17932e-07   1.22002e-06 DIIS
   @RHF iter   8:  -361.85961235910253   -4.72651e-08   3.50693e-07 DIIS
   @RHF iter   9:  -361.85961236298550   -3.88297e-09   9.29831e-08 DIIS
   @RHF iter  10:  -361.85961236326352   -2.78021e-10   2.57491e-08 DIIS
   @RHF iter  11:  -361.85961236328677   -2.32490e-11   7.28711e-09 DIIS
   @RHF iter  12:  -361.85961236328609    6.82121e-13   2.19597e-09 DIIS
   @RHF iter  13:  -361.85961236328785   -1.76215e-12   7.86777e-10 DIIS
   @RHF iter  14:  -361.85961236328723    6.25278e-13   2.96274e-10 DIIS
   @RHF iter  15:  -361.85961236328649    7.38964e-13   5.63577e-11 DIIS
  Energy and wave function converged.

  ==> Post-Iterations <==

    Orbital Energies [Eh]
    ---------------------

    Doubly Occupied:

       1A    -15.785871     2A    -15.784962     3A    -15.778464
       4A    -11.585317     5A    -11.433784     6A    -11.370003
       7A    -11.331982     8A    -11.315130     9A     -1.542750
      10A     -1.400098    11A     -1.390024    12A     -1.187301
      13A     -1.121317    14A     -1.051842    15A     -1.016282
      16A     -0.971889    17A     -0.943895    18A     -0.931593
      19A     -0.856367    20A     -0.854495    21A     -0.829769
      22A     -0.791856    23A     -0.765065    24A     -0.704036
      25A     -0.699536    26A     -0.684595    27A     -0.664464
      28A     -0.661071    29A     -0.615657    30A     -0.606962
      31A     -0.591781    32A     -0.587610    33A     -0.576461

    Virtual:

      34A     -0.006630    35A      0.027706    36A      0.028968
      37A      0.037852    38A      0.058992    39A      0.067137
      40A      0.082354    41A      0.116146    42A      0.124133
      43A      0.127779    44A      0.136961    45A      0.138800
      46A      0.148299    47A      0.176681    48A      0.190618
      49A      0.195513    50A      0.206911    51A      0.238569
      52A      0.241489    53A      0.265659    54A      0.308807
      55A      0.342292    56A      0.360525    57A      0.438658
      58A      0.452514    59A      0.458552    60A      0.466683
      61A      0.489500    62A      0.505557    63A      0.526351
      64A      0.534028    65A      0.544694    66A      0.560056
      67A      0.570239    68A      0.573504    69A      0.596445
      70A      0.631497    71A      0.673273    72A      0.693948
      73A      0.713820    74A      0.722043    75A      0.746226
      76A      0.748245    77A      0.755038    78A      0.771095
      79A      0.772415    80A      0.774626    81A      0.790352
      82A      0.797277    83A      0.799282    84A      0.803658
      85A      0.820215    86A      0.820841    87A      0.838719
      88A      0.849567    89A      0.874708    90A      0.881269
      91A      0.896818    92A      0.929074    93A      0.948687
      94A      0.955339    95A      0.983183    96A      1.018849
      97A      1.033850    98A      1.056134    99A      1.113118
     100A      1.123456   101A      1.131442   102A      1.164090
     103A      1.196358   104A      1.201479   105A      1.233158
     106A      1.254996   107A      1.332131   108A      1.347307
     109A      1.362906   110A      1.375976   111A      1.431625
     112A      1.477820   113A      1.499519   114A      1.524731
     115A      1.537439   116A      1.546316   117A      1.558502
     118A      1.577406   119A      1.582007   120A      1.596857
     121A      1.604620   122A      1.681144   123A      1.699187
     124A      1.724188   125A      1.727184   126A      1.739585
     127A      1.757471   128A      1.766497   129A      1.773621
     130A      1.787599   131A      1.796818   132A      1.805594
     133A      1.812306   134A      1.823799   135A      1.832662
     136A      1.837622   137A      1.837746   138A      1.851420
     139A      1.864103   140A      1.875594   141A      1.888832
     142A      1.939812   143A      1.945615   144A      1.965191
     145A      1.991715   146A      2.004887   147A      2.019702
     148A      2.041727   149A      2.074054   150A      2.089515
     151A      2.136595   152A      2.195017   153A      2.198448
     154A      2.225388   155A      2.249530   156A      2.257840
     157A      2.287455   158A      2.302300   159A      2.333081
     160A      2.340773   161A      2.352188   162A      2.360078
     163A      2.372015   164A      2.375969   165A      2.409315
     166A      2.447552   167A      2.467186   168A      2.477532
     169A      2.489167   170A      2.565377   171A      2.624449
     172A      2.633551   173A      2.647360   174A      2.662576
     175A      2.674195   176A      2.676686   177A      2.712775
     178A      2.751398   179A      2.760805   180A      2.767219
     181A      2.812336   182A      2.837465   183A      2.848346
     184A      2.861031   185A      2.867127   186A      2.876947
     187A      2.913307   188A      3.084327   189A      3.102514
     190A      3.156454   191A      3.590917   192A      3.665752

    Final Occupation by Irrep:
              A
    DOCC [    33 ]

  @RHF Final Energy:  -361.85961236328649

   => Energetics <=

    Nuclear Repulsion Energy =            400.9230453430041621
    One-Electron Energy =               -1272.7008558797051592
    Two-Electron Energy =                 509.9181981734145666
    Total Energy =                       -361.8596123632864874

Computation Completed

Properties will be evaluated at   0.000000,   0.000000,   0.000000 [a0]

Properties computed using the SCF density matrix

  Nuclear Dipole Moment: [e a0]
     X:     1.4092      Y:     0.7333      Z:     9.1136

  Electronic Dipole Moment: [e a0]
     X:    -1.9850      Y:    -0.9250      Z:   -11.4264

  Dipole Moment: [e a0]
     X:    -0.5758      Y:    -0.1917      Z:    -2.3128     Total:     2.3911

  Dipole Moment: [D]
     X:    -1.4635      Y:    -0.4872      Z:    -5.8785     Total:     6.0775

*** tstop() called on ds3 at Mon Apr 27 16:22:30 2020
Module time:
	user time   =      62.91 seconds =       1.05 minutes
	system time =      28.87 seconds =       0.48 minutes
	total time  =         88 seconds =       1.47 minutes
Total time:
	user time   =      62.91 seconds =       1.05 minutes
	system time =      28.87 seconds =       0.48 minutes
	total time  =         88 seconds =       1.47 minutes
                                     G D M A

                                 by Anthony Stone

                           version 2.2.06, 22 June 2011

               Distributed Multipoles from Gaussian wavefunctions

Starting at 16:22:30 on 27 Apr 2020

Using SCF density matrix from file ./SSI/SSI-081ILE-085ARG-1-dimer.test.26511.fchk

                         Distributed Multipole Analysis

Standard DMA

Positions and radii in angstrom
Multipole moments in atomic units, ea_0^k for rank k

C          x = -0.900050  y = -0.162481  z =  2.281151 angstrom
           Maximum rank =  0   Radius =  0.650 angstrom
                   Q00  =  -0.270778

C          x = -1.178050  y = -0.099481  z =  3.790151 angstrom
           Maximum rank =  0   Radius =  0.650 angstrom
                   Q00  =  -0.217980

H          x = -0.047050  y = -0.811481  z =  2.076151 angstrom
           Maximum rank =  0   Radius =  0.325 angstrom
                   Q00  =   0.066364

H          x = -1.771050  y = -0.563481  z =  1.761151 angstrom
           Maximum rank =  0   Radius =  0.325 angstrom
                   Q00  =   0.075255

H          x = -0.715050  y =  0.834519  z =  1.878151 angstrom
           Maximum rank =  0   Radius =  0.325 angstrom
                   Q00  =   0.067439

H          x = -1.932050  y =  0.662519  z =  3.964151 angstrom
           Maximum rank =  0   Radius =  0.325 angstrom
                   Q00  =   0.092274

H          x = -0.252869  y =  0.168599  z =  4.321352 angstrom
           Maximum rank =  0   Radius =  0.325 angstrom
                   Q00  =   0.089711

H          x = -1.578158  y = -1.041581  z =  4.193097 angstrom
           Maximum rank =  0   Radius =  0.325 angstrom
                   Q00  =   0.096834

C          x =  1.521950  y =  0.756519  z = -0.473849 angstrom
           Maximum rank =  0   Radius =  0.650 angstrom
                   Q00  =  -0.038275

C          x =  2.825950  y =  0.236519  z =  0.109151 angstrom
           Maximum rank =  0   Radius =  0.650 angstrom
                   Q00  =  -0.204347

C          x = -0.533050  y = -0.176481  z = -1.449849 angstrom
           Maximum rank =  0   Radius =  0.650 angstrom
                   Q00  =   1.087128

N          x =  0.643950  y = -0.350481  z = -0.868849 angstrom
           Maximum rank =  0   Radius =  0.650 angstrom
                   Q00  =  -0.490064

N          x = -0.978050  y =  1.042519  z = -1.694849 angstrom
           Maximum rank =  0   Radius =  0.650 angstrom
                   Q00  =  -0.585457

N          x = -1.262050  y = -1.223481  z = -1.782849 angstrom
           Maximum rank =  0   Radius =  0.650 angstrom
                   Q00  =  -0.598514

H          x =  1.027950  y =  1.383519  z =  0.272151 angstrom
           Maximum rank =  0   Radius =  0.325 angstrom
                   Q00  =   0.094870

H          x =  1.754950  y =  1.360519  z = -1.353849 angstrom
           Maximum rank =  0   Radius =  0.325 angstrom
                   Q00  =   0.087107

H          x =  3.259950  y = -0.499481  z = -0.568849 angstrom
           Maximum rank =  0   Radius =  0.325 angstrom
                   Q00  =   0.095242

H          x =  2.621950  y = -0.243481  z =  1.067151 angstrom
           Maximum rank =  0   Radius =  0.325 angstrom
                   Q00  =   0.106770

H          x =  0.959950  y = -1.297481  z = -0.710849 angstrom
           Maximum rank =  0   Radius =  0.325 angstrom
                   Q00  =   0.234179

H          x = -0.417050  y =  1.839519  z = -1.449849 angstrom
           Maximum rank =  0   Radius =  0.325 angstrom
                   Q00  =   0.274756

H          x = -1.871050  y =  1.177519  z = -2.140849 angstrom
           Maximum rank =  0   Radius =  0.325 angstrom
                   Q00  =   0.265955

H          x = -0.926050  y = -2.156481  z = -1.606849 angstrom
           Maximum rank =  0   Radius =  0.325 angstrom
                   Q00  =   0.266896

H          x = -2.156050  y = -1.096481  z = -2.228849 angstrom
           Maximum rank =  0   Radius =  0.325 angstrom
                   Q00  =   0.264033

H          x =  3.539980  y =  1.063818  z =  0.234611 angstrom
           Maximum rank =  0   Radius =  0.325 angstrom
                   Q00  =   0.140604

Total multipoles referred to origin at
           x =   0.000000,  y =    0.000000,  z =    0.000000 angstrom
                   Q00  =   1.000000

Finished at 16:22:30 on 27 Apr 2020

  DMA results are available in the Python driver through the
	  variable('DMA DISTRIBUTED MULTIPOLES')
  and
	  variable('DMA TOTAL MULTIPOLES')
  commands.

    Psi4 stopped on: Monday, 27 April 2020 04:22PM
    Psi4 wall time for execution: 0:01:28.11

*** Psi4 exiting successfully. Buy a developer a beer!
