                               Psi4 1.3.2 release

  ==> Input File <==

--------------------------------------------------------------------------
import numpy as np
set {scf_type pk
basis cc-pvdz
d_convergence 10
gdma_switch   0
gdma_limit    0
gdma_origin   [ 0.0,  0.0,  0.0 ]
}
molecule test {
    units Angstrom
    0 1
    --
    0 1
    C               -0.061705887891066    -1.518286275740559    -4.622573200916748
    C               -1.004705887891066    -1.467286275740558    -5.873573200916748
    H                0.285294112108934    -0.512286275740558    -4.375573200916747
    H               -0.596705887891066    -1.927286275740558    -3.768573200916749
    H                0.804294112108934    -2.152286275740558    -4.821573200916749
    H               -1.347705887891066    -2.472286275740558    -6.117573200916747
    H               -0.440927887891066    -1.061286275740558    -6.726413200916747
    H               -1.853602887891066    -0.800686275740558    -5.661353200916748
    C               -1.236705887891066    -1.008286275740558     3.526426799083251
    C               -0.124705887891066    -0.035286275740558     1.314426799083251
    C               -0.607705887891066     0.086713724259442     2.680426799083251
    C                0.551294112108934     1.178713724259442     0.977426799083251
    C               -0.247705887891066     1.328713724259442     3.095426799083251
    C                0.438294112108934    -0.832286275740558    -0.903573200916749
    C                1.103294112108934     0.374713724259442    -1.211573200916748
    C               -0.168705887891066    -1.054286275740558     0.345426799083251
    C                1.168294112108934     1.401713724259442    -0.273573200916749
    N                0.446294112108934     1.982713724259442     2.093426799083252
    H                0.389294112108934    -1.619286275740558    -1.644573200916748
    H                1.563294112108934     0.497713724259442    -2.179573200916749
    H               -0.641705887891066    -2.011286275740559     0.544426799083251
    H                1.668294112108934     2.342713724259442    -0.476573200916749
    H               -0.661705887891066    -1.060286275740558     4.457426799083253
    H               -1.090705887891066    -1.940286275740558     2.981426799083251
    H               -0.508705887891066     1.655713724259442     4.097426799083252
    H                0.826294112108934     2.918713724259442     2.170426799083252
    H               -2.324561887891066    -1.008286275740558     3.689426799083251

}
e, wfn = energy('scf', return_wfn=True)
gdma(wfn)
dmavals = variable('DMA DISTRIBUTED MULTIPOLES')
charges = np.array(dmavals)
print(charges)
np.save('SSI-098VAL-286TRP-1-dimer.npy', np.array(charges))--------------------------------------------------------------------------

*** tstart() called on ds3
*** at Sun Apr 26 17:14:51 2020

   => Loading Basis Set <=

    Name: CC-PVDZ
    Role: ORBITAL
    Keyword: BASIS
    atoms 1-2, 9-17  entry C          line   138 file /theoryfs2/ds/metcalf/miniconda2/envs/tf2gpu/share/psi4/basis/cc-pvdz.gbs
    atoms 3-8, 19-27 entry H          line    22 file /theoryfs2/ds/metcalf/miniconda2/envs/tf2gpu/share/psi4/basis/cc-pvdz.gbs
    atoms 18         entry N          line   168 file /theoryfs2/ds/metcalf/miniconda2/envs/tf2gpu/share/psi4/basis/cc-pvdz.gbs

         ---------------------------------------------------------
                                   SCF
               by Justin Turney, Rob Parrish, Andy Simmonett
                          and Daniel G. A. Smith
                              RHF Reference
                        1 Threads,    500 MiB Core
         ---------------------------------------------------------

  ==> Geometry <==

    Molecular point group: c1
    Full point group: C1

    Geometry (in Angstrom), charge = 0, multiplicity = 1:

       Center              X                  Y                   Z               Mass
    ------------   -----------------  -----------------  -----------------  -----------------
         C           -0.061705887891    -1.518286275741    -4.622573200917    12.000000000000
         C           -1.004705887891    -1.467286275741    -5.873573200917    12.000000000000
         H            0.285294112109    -0.512286275741    -4.375573200917     1.007825032230
         H           -0.596705887891    -1.927286275741    -3.768573200917     1.007825032230
         H            0.804294112109    -2.152286275741    -4.821573200917     1.007825032230
         H           -1.347705887891    -2.472286275741    -6.117573200917     1.007825032230
         H           -0.440927887891    -1.061286275741    -6.726413200917     1.007825032230
         H           -1.853602887891    -0.800686275741    -5.661353200917     1.007825032230
         C           -1.236705887891    -1.008286275741     3.526426799083    12.000000000000
         C           -0.124705887891    -0.035286275741     1.314426799083    12.000000000000
         C           -0.607705887891     0.086713724259     2.680426799083    12.000000000000
         C            0.551294112109     1.178713724259     0.977426799083    12.000000000000
         C           -0.247705887891     1.328713724259     3.095426799083    12.000000000000
         C            0.438294112109    -0.832286275741    -0.903573200917    12.000000000000
         C            1.103294112109     0.374713724259    -1.211573200917    12.000000000000
         C           -0.168705887891    -1.054286275741     0.345426799083    12.000000000000
         C            1.168294112109     1.401713724259    -0.273573200917    12.000000000000
         N            0.446294112109     1.982713724259     2.093426799083    14.003074004430
         H            0.389294112109    -1.619286275741    -1.644573200917     1.007825032230
         H            1.563294112109     0.497713724259    -2.179573200917     1.007825032230
         H           -0.641705887891    -2.011286275741     0.544426799083     1.007825032230
         H            1.668294112109     2.342713724259    -0.476573200917     1.007825032230
         H           -0.661705887891    -1.060286275741     4.457426799083     1.007825032230
         H           -1.090705887891    -1.940286275741     2.981426799083     1.007825032230
         H           -0.508705887891     1.655713724259     4.097426799083     1.007825032230
         H            0.826294112109     2.918713724259     2.170426799083     1.007825032230
         H           -2.324561887891    -1.008286275741     3.689426799083     1.007825032230

  Running in c1 symmetry.

  Rotational constants: A =      0.06240  B =      0.01120  C =      0.00991 [cm^-1]
  Rotational constants: A =   1870.74288  B =    335.85084  C =    297.22221 [MHz]
  Nuclear repulsion =  626.948707401110482

  Charge       = 0
  Multiplicity = 1
  Electrons    = 88
  Nalpha       = 44
  Nbeta        = 44

  ==> Algorithm <==

  SCF Algorithm Type is PK.
  DIIS enabled.
  MOM disabled.
  Fractional occupation disabled.
  Guess Type is SAD.
  Energy threshold   = 1.00e-06
  Density threshold  = 1.00e-10
  Integral threshold = 0.00e+00

  ==> Primary Basis <==

  Basis Set: CC-PVDZ
    Blend: CC-PVDZ
    Number of shells: 117
    Number of basis function: 243
    Number of Cartesian functions: 255
    Spherical Harmonics?: true
    Max angular momentum: 2

  ==> Pre-Iterations <==

   -------------------------------------------------------
    Irrep   Nso     Nmo     Nalpha   Nbeta   Ndocc  Nsocc
   -------------------------------------------------------
     A        243     243       0       0       0       0
   -------------------------------------------------------
    Total     243     243      44      44      44       0
   -------------------------------------------------------

  ==> Integral Setup <==

  Using integral reordering PK algorithm.
  Sizing the integral batches needed.
  Building batch lookup table.
   Calculation information:
      Number of atoms:                  27
      Number of AO shells:             117
      Number of primitives:            339
      Number of atomic orbitals:       255
      Number of basis functions:       243

      Integral cutoff                 1.00e-12
      Number of threads:                 1

	Batch   1 pq = [       0,    9405] index = [             0,44231715] size =     44231715
	Batch   2 pq = [    9405,   13301] index = [      44231715,88464951] size =     44233236
	Batch   3 pq = [   13301,   16290] index = [      88464951,132690195] size =     44225244
	Batch   4 pq = [   16290,   18810] index = [     132690195,176917455] size =     44227260
	Batch   5 pq = [   18810,   21030] index = [     176917455,221140965] size =     44223510
	Batch   6 pq = [   21030,   23037] index = [     221140965,265363203] size =     44222238
	Batch   7 pq = [   23037,   24883] index = [     265363203,309594286] size =     44231083
	Batch   8 pq = [   24883,   26601] index = [     309594286,353819901] size =     44225615
	Batch   9 pq = [   26601,   28214] index = [     353819901,398029005] size =     44209104
	Batch  10 pq = [   28214,   29646] index = [     398029005,439457481] size =     41428476
  Task number: 40
  Buffer size: 11059200
  Buffer per thread: 2
  We computed 18565095 shell quartets total.
  Whereas there are 23829156 unique shell quartets.

  ==> DiskJK: Disk-Based J/K Matrices <==

    J tasked:                  Yes
    K tasked:                  Yes
    wK tasked:                  No
    Memory [MiB]:              375
    Schwarz Cutoff:          1E-12

    OpenMP threads:              1

  Minimum eigenvalue in the overlap matrix is 2.5852926452E-04.
  Using Symmetric Orthogonalization.

  SCF Guess: Superposition of Atomic Densities via on-the-fly atomic UHF.

  ==> Iterations <==

                        Total Energy        Delta E     RMS |[F,P]|

   @RHF iter SAD:  -478.74308288239189   -4.78743e+02   0.00000e+00
   @RHF iter   1:  -479.48957923144604   -7.46496e-01   2.54443e-03 DIIS
   @RHF iter   2:  -479.71485348958350   -2.25274e-01   1.11092e-03 DIIS
   @RHF iter   3:  -479.75375677356664   -3.89033e-02   2.97251e-04 DIIS
   @RHF iter   4:  -479.75744893524467   -3.69216e-03   1.36822e-04 DIIS
   @RHF iter   5:  -479.75807648199543   -6.27547e-04   1.95243e-05 DIIS
   @RHF iter   6:  -479.75810447353496   -2.79915e-05   8.71889e-06 DIIS
   @RHF iter   7:  -479.75810978245954   -5.30892e-06   3.63148e-06 DIIS
   @RHF iter   8:  -479.75811127154998   -1.48909e-06   1.40221e-06 DIIS
   @RHF iter   9:  -479.75811156369207   -2.92142e-07   6.30547e-07 DIIS
   @RHF iter  10:  -479.75811162173039   -5.80383e-08   3.00655e-07 DIIS
   @RHF iter  11:  -479.75811163739775   -1.56674e-08   1.16701e-07 DIIS
   @RHF iter  12:  -479.75811163989118   -2.49344e-09   4.35390e-08 DIIS
   @RHF iter  13:  -479.75811164009798   -2.06796e-10   1.34644e-08 DIIS
   @RHF iter  14:  -479.75811164011219   -1.42109e-11   5.41670e-09 DIIS
   @RHF iter  15:  -479.75811164011668   -4.49063e-12   2.26927e-09 DIIS
   @RHF iter  16:  -479.75811164011714   -4.54747e-13   9.97662e-10 DIIS
   @RHF iter  17:  -479.75811164011532    1.81899e-12   4.61571e-10 DIIS
   @RHF iter  18:  -479.75811164011600   -6.82121e-13   1.77472e-10 DIIS
   @RHF iter  19:  -479.75811164011651   -5.11591e-13   6.01046e-11 DIIS
  Energy and wave function converged.

  ==> Post-Iterations <==

    Orbital Energies [Eh]
    ---------------------

    Doubly Occupied:

       1A    -15.602830     2A    -11.268618     3A    -11.264198
       4A    -11.235270     5A    -11.233429     6A    -11.232204
       7A    -11.229380     8A    -11.224597     9A    -11.222236
      10A    -11.220482    11A    -11.220018    12A    -11.217572
      13A     -1.288406    14A     -1.120486    15A     -1.068237
      16A     -1.006940    17A     -0.991509    18A     -0.983643
      19A     -0.930827    20A     -0.838972    21A     -0.834582
      22A     -0.800956    23A     -0.747999    24A     -0.716883
      25A     -0.665136    26A     -0.637540    27A     -0.599267
      28A     -0.593638    29A     -0.590442    30A     -0.588875
      31A     -0.585682    32A     -0.563590    33A     -0.554555
      34A     -0.533118    35A     -0.521446    36A     -0.494458
      37A     -0.489927    38A     -0.487630    39A     -0.482399
      40A     -0.469739    41A     -0.456962    42A     -0.371125
      43A     -0.291109    44A     -0.276459

    Virtual:

      45A      0.123373    46A      0.167211    47A      0.180925
      48A      0.184249    49A      0.190716    50A      0.204858
      51A      0.218554    52A      0.224571    53A      0.227576
      54A      0.246685    55A      0.249758    56A      0.259587
      57A      0.274545    58A      0.282623    59A      0.293266
      60A      0.303510    61A      0.324606    62A      0.333853
      63A      0.366984    64A      0.378296    65A      0.392928
      66A      0.397210    67A      0.430555    68A      0.443713
      69A      0.464932    70A      0.475831    71A      0.506713
      72A      0.517007    73A      0.593172    74A      0.595307
      75A      0.600223    76A      0.620051    77A      0.624277
      78A      0.638704    79A      0.662325    80A      0.666439
      81A      0.675841    82A      0.686038    83A      0.696140
      84A      0.711719    85A      0.714739    86A      0.724601
      87A      0.730055    88A      0.736103    89A      0.741857
      90A      0.754473    91A      0.762037    92A      0.764688
      93A      0.786741    94A      0.794955    95A      0.803182
      96A      0.841192    97A      0.844423    98A      0.865052
      99A      0.876306   100A      0.880863   101A      0.889444
     102A      0.894528   103A      0.896718   104A      0.897466
     105A      0.906805   106A      0.912100   107A      0.916140
     108A      0.921229   109A      0.942992   110A      0.951447
     111A      0.954660   112A      0.963886   113A      0.982375
     114A      0.988478   115A      0.997234   116A      1.014742
     117A      1.042864   118A      1.082294   119A      1.086187
     120A      1.116962   121A      1.123570   122A      1.134063
     123A      1.135816   124A      1.145160   125A      1.157951
     126A      1.181669   127A      1.190786   128A      1.218621
     129A      1.229602   130A      1.239827   131A      1.249377
     132A      1.263554   133A      1.273333   134A      1.280837
     135A      1.286714   136A      1.318616   137A      1.336693
     138A      1.356700   139A      1.365343   140A      1.429655
     141A      1.443496   142A      1.469758   143A      1.479039
     144A      1.488909   145A      1.516575   146A      1.552656
     147A      1.580482   148A      1.584406   149A      1.609421
     150A      1.633998   151A      1.674542   152A      1.680264
     153A      1.688757   154A      1.695295   155A      1.697807
     156A      1.731084   157A      1.756123   158A      1.758432
     159A      1.778054   160A      1.810249   161A      1.825309
     162A      1.834813   163A      1.867916   164A      1.869140
     165A      1.874500   166A      1.878775   167A      1.889306
     168A      1.892978   169A      1.901343   170A      1.902463
     171A      1.919598   172A      1.935372   173A      1.943077
     174A      1.943310   175A      1.946766   176A      1.952389
     177A      1.971775   178A      1.976909   179A      1.984424
     180A      1.995988   181A      2.000828   182A      2.015116
     183A      2.019283   184A      2.062814   185A      2.075046
     186A      2.079758   187A      2.086120   188A      2.096207
     189A      2.103431   190A      2.106598   191A      2.122004
     192A      2.131069   193A      2.164297   194A      2.178248
     195A      2.188493   196A      2.236051   197A      2.264369
     198A      2.274138   199A      2.291852   200A      2.294998
     201A      2.307861   202A      2.317699   203A      2.330304
     204A      2.343443   205A      2.374515   206A      2.400801
     207A      2.442189   208A      2.456426   209A      2.463615
     210A      2.464126   211A      2.513509   212A      2.558485
     213A      2.562725   214A      2.564113   215A      2.581314
     216A      2.589044   217A      2.646226   218A      2.662732
     219A      2.727441   220A      2.763479   221A      2.766271
     222A      2.771984   223A      2.773693   224A      2.782003
     225A      2.792408   226A      2.826944   227A      2.832610
     228A      2.842269   229A      2.852811   230A      2.889720
     231A      2.907749   232A      2.940892   233A      2.957287
     234A      2.960082   235A      2.992459   236A      3.021165
     237A      3.050902   238A      3.097198   239A      3.174729
     240A      3.253732   241A      3.358989   242A      3.718666
     243A      3.906521

    Final Occupation by Irrep:
              A
    DOCC [    44 ]

  @RHF Final Energy:  -479.75811164011651

   => Energetics <=

    Nuclear Repulsion Energy =            626.9487074011104824
    One-Electron Energy =               -1891.9068975505347225
    Two-Electron Energy =                 785.2000785093077866
    Total Energy =                       -479.7581116401165673

Computation Completed

Properties will be evaluated at   0.000000,   0.000000,   0.000000 [a0]

Properties computed using the SCF density matrix

  Nuclear Dipole Moment: [e a0]
     X:    -3.6851      Y:    -8.5843      Z:   -16.7223

  Electronic Dipole Moment: [e a0]
     X:     3.8030      Y:     9.1714      Z:    17.2068

  Dipole Moment: [e a0]
     X:     0.1179      Y:     0.5872      Z:     0.4845     Total:     0.7703

  Dipole Moment: [D]
     X:     0.2996      Y:     1.4925      Z:     1.2314     Total:     1.9580

*** tstop() called on ds3 at Sun Apr 26 17:19:46 2020
Module time:
	user time   =     161.31 seconds =       2.69 minutes
	system time =      84.19 seconds =       1.40 minutes
	total time  =        295 seconds =       4.92 minutes
Total time:
	user time   =     161.31 seconds =       2.69 minutes
	system time =      84.19 seconds =       1.40 minutes
	total time  =        295 seconds =       4.92 minutes
                                     G D M A

                                 by Anthony Stone

                           version 2.2.06, 22 June 2011

               Distributed Multipoles from Gaussian wavefunctions

Starting at 17:19:46 on 26 Apr 2020

Using SCF density matrix from file ./SSI/SSI-098VAL-286TRP-1-dimer.test.17988.fchk

                         Distributed Multipole Analysis

Standard DMA

Positions and radii in angstrom
Multipole moments in atomic units, ea_0^k for rank k

C          x = -0.061706  y = -1.518286  z = -4.622573 angstrom
           Maximum rank =  0   Radius =  0.650 angstrom
                   Q00  =  -0.251342

C          x = -1.004706  y = -1.467286  z = -5.873573 angstrom
           Maximum rank =  0   Radius =  0.650 angstrom
                   Q00  =  -0.242926

H          x =  0.285294  y = -0.512286  z = -4.375573 angstrom
           Maximum rank =  0   Radius =  0.325 angstrom
                   Q00  =   0.083781

H          x = -0.596706  y = -1.927286  z = -3.768573 angstrom
           Maximum rank =  0   Radius =  0.325 angstrom
                   Q00  =   0.082788

H          x =  0.804294  y = -2.152286  z = -4.821573 angstrom
           Maximum rank =  0   Radius =  0.325 angstrom
                   Q00  =   0.080459

H          x = -1.347706  y = -2.472286  z = -6.117573 angstrom
           Maximum rank =  0   Radius =  0.325 angstrom
                   Q00  =   0.084785

H          x = -0.440928  y = -1.061286  z = -6.726413 angstrom
           Maximum rank =  0   Radius =  0.325 angstrom
                   Q00  =   0.079858

H          x = -1.853603  y = -0.800686  z = -5.661353 angstrom
           Maximum rank =  0   Radius =  0.325 angstrom
                   Q00  =   0.084634

C          x = -1.236706  y = -1.008286  z =  3.526427 angstrom
           Maximum rank =  0   Radius =  0.650 angstrom
                   Q00  =  -0.222649

C          x = -0.124706  y = -0.035286  z =  1.314427 angstrom
           Maximum rank =  0   Radius =  0.650 angstrom
                   Q00  =  -0.049895

C          x = -0.607706  y =  0.086714  z =  2.680427 angstrom
           Maximum rank =  0   Radius =  0.650 angstrom
                   Q00  =  -0.123190

C          x =  0.551294  y =  1.178714  z =  0.977427 angstrom
           Maximum rank =  0   Radius =  0.650 angstrom
                   Q00  =   0.253275

C          x = -0.247706  y =  1.328714  z =  3.095427 angstrom
           Maximum rank =  0   Radius =  0.650 angstrom
                   Q00  =   0.086954

C          x =  0.438294  y = -0.832286  z = -0.903573 angstrom
           Maximum rank =  0   Radius =  0.650 angstrom
                   Q00  =  -0.048655

C          x =  1.103294  y =  0.374714  z = -1.211573 angstrom
           Maximum rank =  0   Radius =  0.650 angstrom
                   Q00  =  -0.084721

C          x = -0.168706  y = -1.054286  z =  0.345427 angstrom
           Maximum rank =  0   Radius =  0.650 angstrom
                   Q00  =  -0.095502

C          x =  1.168294  y =  1.401714  z = -0.273573 angstrom
           Maximum rank =  0   Radius =  0.650 angstrom
                   Q00  =  -0.119202

N          x =  0.446294  y =  1.982714  z =  2.093427 angstrom
           Maximum rank =  0   Radius =  0.650 angstrom
                   Q00  =  -0.505166

H          x =  0.389294  y = -1.619286  z = -1.644573 angstrom
           Maximum rank =  0   Radius =  0.325 angstrom
                   Q00  =   0.062557

H          x =  1.563294  y =  0.497714  z = -2.179573 angstrom
           Maximum rank =  0   Radius =  0.325 angstrom
                   Q00  =   0.068313

H          x = -0.641706  y = -2.011286  z =  0.544427 angstrom
           Maximum rank =  0   Radius =  0.325 angstrom
                   Q00  =   0.070488

H          x =  1.668294  y =  2.342714  z = -0.476573 angstrom
           Maximum rank =  0   Radius =  0.325 angstrom
                   Q00  =   0.074705

H          x = -0.661706  y = -1.060286  z =  4.457427 angstrom
           Maximum rank =  0   Radius =  0.325 angstrom
                   Q00  =   0.104715

H          x = -1.090706  y = -1.940286  z =  2.981427 angstrom
           Maximum rank =  0   Radius =  0.325 angstrom
                   Q00  =   0.105128

H          x = -0.508706  y =  1.655714  z =  4.097427 angstrom
           Maximum rank =  0   Radius =  0.325 angstrom
                   Q00  =   0.104971

H          x =  0.826294  y =  2.918714  z =  2.170427 angstrom
           Maximum rank =  0   Radius =  0.325 angstrom
                   Q00  =   0.213299

H          x = -2.324562  y = -1.008286  z =  3.689427 angstrom
           Maximum rank =  0   Radius =  0.325 angstrom
                   Q00  =   0.102540

Total multipoles referred to origin at
           x =   0.000000,  y =    0.000000,  z =    0.000000 angstrom
                   Q00  =  -0.000000

Finished at 17:19:46 on 26 Apr 2020

  DMA results are available in the Python driver through the
	  variable('DMA DISTRIBUTED MULTIPOLES')
  and
	  variable('DMA TOTAL MULTIPOLES')
  commands.

    Psi4 stopped on: Sunday, 26 April 2020 05:19PM
    Psi4 wall time for execution: 0:04:55.58

*** Psi4 exiting successfully. Buy a developer a beer!
