                               Psi4 1.3.2 release

  ==> Input File <==

--------------------------------------------------------------------------
import numpy as np
set {scf_type pk
basis cc-pvdz
d_convergence 10
gdma_switch   0
gdma_limit    0
gdma_origin   [ 0.0,  0.0,  0.0 ]
}
molecule test {
    units Angstrom
    -1 1
    --
    -1 1
    C               -2.845986255829312     1.520201086841075     0.250379764441221
    C               -1.917986255829311     0.548201086841075     0.908379764441221
    C               -1.915986255829311    -0.808798913158925     0.883379764441221
    C               -0.162986255829312    -0.144798913158925     2.039379764441221
    N               -0.801986255829312     0.946201086841075     1.622379764441221
    N               -0.818986255829312    -1.218798913158925     1.611379764441221
    H               -3.514986255829311     0.973201086841075    -0.411620235558779
    H               -2.239986255829312     2.176201086841075    -0.375620235558779
    H               -2.641986255829312    -1.434798913158925     0.379379764441221
    H                0.750013744170688    -0.157798913158925     2.626379764441221
    H               -0.534986255829312    -2.177798913158925     1.780379764441221
    H               -3.430546255829312     2.138641086841075     0.947389764441221
    C                0.973013744170688     0.687201086841075    -1.638620235558779
    C                1.686013744170688     1.806201086841075    -0.890620235558779
    C                1.604013744170688    -0.703798913158925    -1.464620235558779
    O                2.675013744170688    -0.870798913158925    -0.829620235558779
    O                1.011013744170688    -1.662798913158925    -1.997620235558779
    H               -0.052986255829312     0.645201086841075    -1.269620235558779
    H                0.918013744170688     0.941201086841075    -2.698620235558779
    H                1.993013744170688     1.471201086841075     0.101379764441221
    H                0.957013744170688     2.605201086841075    -0.745620235558779
    H                2.538323744170688     2.234871086841075    -1.438170235558779

}
e, wfn = energy('scf', return_wfn=True)
gdma(wfn)
dmavals = variable('DMA DISTRIBUTED MULTIPOLES')
charges = np.array(dmavals)
print(charges)
np.save('SSI-067HIE-086GLU-1-dimer.npy', np.array(charges))--------------------------------------------------------------------------

*** tstart() called on ds3
*** at Mon Apr 27 17:45:15 2020

   => Loading Basis Set <=

    Name: CC-PVDZ
    Role: ORBITAL
    Keyword: BASIS
    atoms 1-4, 13-15  entry C          line   138 file /theoryfs2/ds/metcalf/miniconda2/envs/tf2gpu/share/psi4/basis/cc-pvdz.gbs
    atoms 5-6         entry N          line   168 file /theoryfs2/ds/metcalf/miniconda2/envs/tf2gpu/share/psi4/basis/cc-pvdz.gbs
    atoms 7-12, 18-22 entry H          line    22 file /theoryfs2/ds/metcalf/miniconda2/envs/tf2gpu/share/psi4/basis/cc-pvdz.gbs
    atoms 16-17       entry O          line   198 file /theoryfs2/ds/metcalf/miniconda2/envs/tf2gpu/share/psi4/basis/cc-pvdz.gbs

         ---------------------------------------------------------
                                   SCF
               by Justin Turney, Rob Parrish, Andy Simmonett
                          and Daniel G. A. Smith
                              RHF Reference
                        1 Threads,    500 MiB Core
         ---------------------------------------------------------

  ==> Geometry <==

    Molecular point group: c1
    Full point group: C1

    Geometry (in Angstrom), charge = -1, multiplicity = 1:

       Center              X                  Y                   Z               Mass
    ------------   -----------------  -----------------  -----------------  -----------------
         C           -2.845986255829     1.520201086841     0.250379764441    12.000000000000
         C           -1.917986255829     0.548201086841     0.908379764441    12.000000000000
         C           -1.915986255829    -0.808798913159     0.883379764441    12.000000000000
         C           -0.162986255829    -0.144798913159     2.039379764441    12.000000000000
         N           -0.801986255829     0.946201086841     1.622379764441    14.003074004430
         N           -0.818986255829    -1.218798913159     1.611379764441    14.003074004430
         H           -3.514986255829     0.973201086841    -0.411620235559     1.007825032230
         H           -2.239986255829     2.176201086841    -0.375620235559     1.007825032230
         H           -2.641986255829    -1.434798913159     0.379379764441     1.007825032230
         H            0.750013744171    -0.157798913159     2.626379764441     1.007825032230
         H           -0.534986255829    -2.177798913159     1.780379764441     1.007825032230
         H           -3.430546255829     2.138641086841     0.947389764441     1.007825032230
         C            0.973013744171     0.687201086841    -1.638620235559    12.000000000000
         C            1.686013744171     1.806201086841    -0.890620235559    12.000000000000
         C            1.604013744171    -0.703798913159    -1.464620235559    12.000000000000
         O            2.675013744171    -0.870798913159    -0.829620235559    15.994914619570
         O            1.011013744171    -1.662798913159    -1.997620235559    15.994914619570
         H           -0.052986255829     0.645201086841    -1.269620235559     1.007825032230
         H            0.918013744171     0.941201086841    -2.698620235559     1.007825032230
         H            1.993013744171     1.471201086841     0.101379764441     1.007825032230
         H            0.957013744171     2.605201086841    -0.745620235559     1.007825032230
         H            2.538323744171     2.234871086841    -1.438170235559     1.007825032230

  Running in c1 symmetry.

  Rotational constants: A =      0.04946  B =      0.02178  C =      0.01986 [cm^-1]
  Rotational constants: A =   1482.70890  B =    653.01518  C =    595.30001 [MHz]
  Nuclear repulsion =  598.164524796325850

  Charge       = -1
  Multiplicity = 1
  Electrons    = 84
  Nalpha       = 42
  Nbeta        = 42

  ==> Algorithm <==

  SCF Algorithm Type is PK.
  DIIS enabled.
  MOM disabled.
  Fractional occupation disabled.
  Guess Type is SAD.
  Energy threshold   = 1.00e-06
  Density threshold  = 1.00e-10
  Integral threshold = 0.00e+00

  ==> Primary Basis <==

  Basis Set: CC-PVDZ
    Blend: CC-PVDZ
    Number of shells: 99
    Number of basis function: 209
    Number of Cartesian functions: 220
    Spherical Harmonics?: true
    Max angular momentum: 2

  ==> Pre-Iterations <==

   -------------------------------------------------------
    Irrep   Nso     Nmo     Nalpha   Nbeta   Ndocc  Nsocc
   -------------------------------------------------------
     A        209     209       0       0       0       0
   -------------------------------------------------------
    Total     209     209      42      42      42       0
   -------------------------------------------------------

  ==> Integral Setup <==

  Using integral reordering PK algorithm.
  Sizing the integral batches needed.
  Building batch lookup table.
   Calculation information:
      Number of atoms:                  22
      Number of AO shells:              99
      Number of primitives:            297
      Number of atomic orbitals:       220
      Number of basis functions:       209

      Integral cutoff                 1.00e-12
      Number of threads:                 1

	Batch   1 pq = [       0,    9405] index = [             0,44231715] size =     44231715
	Batch   2 pq = [    9405,   13301] index = [      44231715,88464951] size =     44233236
	Batch   3 pq = [   13301,   16290] index = [      88464951,132690195] size =     44225244
	Batch   4 pq = [   16290,   18810] index = [     132690195,176917455] size =     44227260
	Batch   5 pq = [   18810,   21030] index = [     176917455,221140965] size =     44223510
	Batch   6 pq = [   21030,   21945] index = [     221140965,240802485] size =     19661520
  Task number: 22
  Buffer size: 11059200
  Buffer per thread: 2
  We computed 12025690 shell quartets total.
  Whereas there are 12253725 unique shell quartets.

  ==> DiskJK: Disk-Based J/K Matrices <==

    J tasked:                  Yes
    K tasked:                  Yes
    wK tasked:                  No
    Memory [MiB]:              375
    Schwarz Cutoff:          1E-12

    OpenMP threads:              1

  Minimum eigenvalue in the overlap matrix is 1.1903116413E-03.
  Using Symmetric Orthogonalization.

  SCF Guess: Superposition of Atomic Densities via on-the-fly atomic UHF.

  ==> Iterations <==

                        Total Energy        Delta E     RMS |[F,P]|

   @RHF iter SAD:  -528.68394635728055   -5.28684e+02   0.00000e+00
   @RHF iter   1:  -529.80119673566082   -1.11725e+00   3.88692e-03 DIIS
   @RHF iter   2:  -530.06348506144434   -2.62288e-01   2.18035e-03 DIIS
   @RHF iter   3:  -530.14297437216089   -7.94893e-02   3.73643e-04 DIIS
   @RHF iter   4:  -530.14689012554663   -3.91575e-03   1.55989e-04 DIIS
   @RHF iter   5:  -530.14754271864433   -6.52593e-04   3.01455e-05 DIIS
   @RHF iter   6:  -530.14757420995397   -3.14913e-05   1.46264e-05 DIIS
   @RHF iter   7:  -530.14758075762552   -6.54767e-06   3.71783e-06 DIIS
   @RHF iter   8:  -530.14758178769102   -1.03007e-06   1.75400e-06 DIIS
   @RHF iter   9:  -530.14758202119560   -2.33505e-07   6.91248e-07 DIIS
   @RHF iter  10:  -530.14758206239128   -4.11957e-08   2.03533e-07 DIIS
   @RHF iter  11:  -530.14758206551699   -3.12571e-09   6.99916e-08 DIIS
   @RHF iter  12:  -530.14758206589352   -3.76531e-10   3.09381e-08 DIIS
   @RHF iter  13:  -530.14758206595377   -6.02540e-11   8.97730e-09 DIIS
   @RHF iter  14:  -530.14758206595934   -5.57066e-12   3.71220e-09 DIIS
   @RHF iter  15:  -530.14758206595934    0.00000e+00   1.61077e-09 DIIS
   @RHF iter  16:  -530.14758206596105   -1.70530e-12   5.69333e-10 DIIS
   @RHF iter  17:  -530.14758206595752    3.52429e-12   2.59108e-10 DIIS
   @RHF iter  18:  -530.14758206596036   -2.84217e-12   7.22331e-11 DIIS
  Energy and wave function converged.

  ==> Post-Iterations <==

    Orbital Energies [Eh]
    ---------------------

    Doubly Occupied:

       1A    -20.253532     2A    -20.246596     3A    -15.512014
       4A    -15.422110     5A    -11.187010     6A    -11.146561
       7A    -11.137323     8A    -11.131817     9A    -11.106584
      10A    -11.057306    11A    -11.044230    12A     -1.231886
      13A     -1.141300    14A     -1.045265    15A     -1.024401
      16A     -0.929264    17A     -0.859592    18A     -0.841638
      19A     -0.710127    20A     -0.689096    21A     -0.655338
      22A     -0.635774    23A     -0.506020    24A     -0.500997
      25A     -0.496273    26A     -0.490934    27A     -0.456096
      28A     -0.445222    29A     -0.442742    30A     -0.424782
      31A     -0.419952    32A     -0.379644    33A     -0.346422
      34A     -0.345838    35A     -0.319434    36A     -0.305784
      37A     -0.291108    38A     -0.269364    39A     -0.203858
      40A     -0.175325    41A     -0.160419    42A     -0.151808

    Virtual:

      43A      0.282538    44A      0.289245    45A      0.297829
      46A      0.317015    47A      0.322802    48A      0.331380
      49A      0.355364    50A      0.371232    51A      0.383017
      52A      0.397088    53A      0.429079    54A      0.433546
      55A      0.449443    56A      0.481337    57A      0.487714
      58A      0.509637    59A      0.531668    60A      0.566255
      61A      0.586060    62A      0.600227    63A      0.623373
      64A      0.692071    65A      0.705688    66A      0.711933
      67A      0.724886    68A      0.757597    69A      0.761864
      70A      0.772919    71A      0.804893    72A      0.823858
      73A      0.842219    74A      0.855187    75A      0.872366
      76A      0.887458    77A      0.906588    78A      0.921964
      79A      0.939245    80A      0.958002    81A      0.962080
      82A      0.978548    83A      0.998672    84A      1.001894
      85A      1.014267    86A      1.022337    87A      1.033438
      88A      1.042131    89A      1.053372    90A      1.057672
      91A      1.073805    92A      1.078785    93A      1.086324
      94A      1.108696    95A      1.120282    96A      1.126438
      97A      1.145232    98A      1.156580    99A      1.176859
     100A      1.209649   101A      1.214062   102A      1.229118
     103A      1.257489   104A      1.293090   105A      1.310071
     106A      1.326019   107A      1.355657   108A      1.369960
     109A      1.372390   110A      1.404888   111A      1.424753
     112A      1.429571   113A      1.447137   114A      1.489581
     115A      1.509277   116A      1.534018   117A      1.542969
     118A      1.549000   119A      1.586999   120A      1.604292
     121A      1.620410   122A      1.637551   123A      1.662264
     124A      1.673137   125A      1.677343   126A      1.688767
     127A      1.738687   128A      1.750837   129A      1.783664
     130A      1.833047   131A      1.845294   132A      1.853132
     133A      1.876617   134A      1.888937   135A      1.912824
     136A      1.927845   137A      1.933206   138A      1.962206
     139A      2.004290   140A      2.025893   141A      2.030830
     142A      2.043325   143A      2.054664   144A      2.073082
     145A      2.084957   146A      2.096064   147A      2.098346
     148A      2.104772   149A      2.132938   150A      2.157019
     151A      2.172513   152A      2.184298   153A      2.199701
     154A      2.223149   155A      2.235984   156A      2.238522
     157A      2.259662   158A      2.275444   159A      2.291511
     160A      2.310449   161A      2.338283   162A      2.352846
     163A      2.409602   164A      2.427363   165A      2.446886
     166A      2.472754   167A      2.500402   168A      2.515748
     169A      2.546729   170A      2.559442   171A      2.565918
     172A      2.589679   173A      2.622869   174A      2.647691
     175A      2.663628   176A      2.712965   177A      2.758361
     178A      2.775953   179A      2.791290   180A      2.832502
     181A      2.839642   182A      2.863378   183A      2.878632
     184A      2.901552   185A      2.922316   186A      2.939971
     187A      2.971052   188A      2.995709   189A      3.012883
     190A      3.017251   191A      3.030138   192A      3.066164
     193A      3.094257   194A      3.139904   195A      3.172443
     196A      3.253305   197A      3.269759   198A      3.299451
     199A      3.309678   200A      3.346496   201A      3.370534
     202A      3.573725   203A      3.657477   204A      3.767784
     205A      3.824794   206A      3.902371   207A      4.062294
     208A      4.084997   209A      4.217225

    Final Occupation by Irrep:
              A
    DOCC [    42 ]

  @RHF Final Energy:  -530.14758206596036

   => Energetics <=

    Nuclear Repulsion Energy =            598.1645247963258498
    One-Electron Energy =               -1924.3426458816379636
    Two-Electron Energy =                 796.0305390193517496
    Total Energy =                       -530.1475820659603642

Computation Completed

Properties will be evaluated at   0.000000,   0.000000,   0.000000 [a0]

Properties computed using the SCF density matrix

  Nuclear Dipole Moment: [e a0]
     X:    -4.9078      Y:     8.8152      Z:    -1.0583

  Electronic Dipole Moment: [e a0]
     X:     1.5691      Y:    -7.9304      Z:     3.5937

  Dipole Moment: [e a0]
     X:    -3.3388      Y:     0.8848      Z:     2.5354     Total:     4.2847

  Dipole Moment: [D]
     X:    -8.4863      Y:     2.2489      Z:     6.4443     Total:    10.8905

*** tstop() called on ds3 at Mon Apr 27 17:47:39 2020
Module time:
	user time   =     100.27 seconds =       1.67 minutes
	system time =      41.02 seconds =       0.68 minutes
	total time  =        144 seconds =       2.40 minutes
Total time:
	user time   =     100.27 seconds =       1.67 minutes
	system time =      41.02 seconds =       0.68 minutes
	total time  =        144 seconds =       2.40 minutes
                                     G D M A

                                 by Anthony Stone

                           version 2.2.06, 22 June 2011

               Distributed Multipoles from Gaussian wavefunctions

Starting at 17:47:39 on 27 Apr 2020

Using SCF density matrix from file ./SSI/SSI-067HIE-086GLU-1-dimer.test.18139.fchk

                         Distributed Multipole Analysis

Standard DMA

Positions and radii in angstrom
Multipole moments in atomic units, ea_0^k for rank k

C          x = -2.845986  y =  1.520201  z =  0.250380 angstrom
           Maximum rank =  0   Radius =  0.650 angstrom
                   Q00  =  -0.194572

C          x = -1.917986  y =  0.548201  z =  0.908380 angstrom
           Maximum rank =  0   Radius =  0.650 angstrom
                   Q00  =   0.210133

C          x = -1.915986  y = -0.808799  z =  0.883380 angstrom
           Maximum rank =  0   Radius =  0.650 angstrom
                   Q00  =   0.015207

C          x = -0.162986  y = -0.144799  z =  2.039380 angstrom
           Maximum rank =  0   Radius =  0.650 angstrom
                   Q00  =   0.474821

N          x = -0.801986  y =  0.946201  z =  1.622380 angstrom
           Maximum rank =  0   Radius =  0.650 angstrom
                   Q00  =  -0.767532

N          x = -0.818986  y = -1.218799  z =  1.611380 angstrom
           Maximum rank =  0   Radius =  0.650 angstrom
                   Q00  =  -0.461821

H          x = -3.514986  y =  0.973201  z = -0.411620 angstrom
           Maximum rank =  0   Radius =  0.325 angstrom
                   Q00  =   0.086703

H          x = -2.239986  y =  2.176201  z = -0.375620 angstrom
           Maximum rank =  0   Radius =  0.325 angstrom
                   Q00  =   0.114466

H          x = -2.641986  y = -1.434799  z =  0.379380 angstrom
           Maximum rank =  0   Radius =  0.325 angstrom
                   Q00  =   0.093500

H          x =  0.750014  y = -0.157799  z =  2.626380 angstrom
           Maximum rank =  0   Radius =  0.325 angstrom
                   Q00  =   0.124691

H          x = -0.534986  y = -2.177799  z =  1.780380 angstrom
           Maximum rank =  0   Radius =  0.325 angstrom
                   Q00  =   0.224702

H          x = -3.430546  y =  2.138641  z =  0.947390 angstrom
           Maximum rank =  0   Radius =  0.325 angstrom
                   Q00  =   0.085137

C          x =  0.973014  y =  0.687201  z = -1.638620 angstrom
           Maximum rank =  0   Radius =  0.650 angstrom
                   Q00  =  -0.140707

C          x =  1.686014  y =  1.806201  z = -0.890620 angstrom
           Maximum rank =  0   Radius =  0.650 angstrom
                   Q00  =  -0.236026

C          x =  1.604014  y = -0.703799  z = -1.464620 angstrom
           Maximum rank =  0   Radius =  0.650 angstrom
                   Q00  =   1.009767

O          x =  2.675014  y = -0.870799  z = -0.829620 angstrom
           Maximum rank =  0   Radius =  0.650 angstrom
                   Q00  =  -0.968816

O          x =  1.011014  y = -1.662799  z = -1.997620 angstrom
           Maximum rank =  0   Radius =  0.650 angstrom
                   Q00  =  -0.939395

H          x = -0.052986  y =  0.645201  z = -1.269620 angstrom
           Maximum rank =  0   Radius =  0.325 angstrom
                   Q00  =   0.055104

H          x =  0.918014  y =  0.941201  z = -2.698620 angstrom
           Maximum rank =  0   Radius =  0.325 angstrom
                   Q00  =   0.041606

H          x =  1.993014  y =  1.471201  z =  0.101380 angstrom
           Maximum rank =  0   Radius =  0.325 angstrom
                   Q00  =   0.096106

H          x =  0.957014  y =  2.605201  z = -0.745620 angstrom
           Maximum rank =  0   Radius =  0.325 angstrom
                   Q00  =   0.028086

H          x =  2.538324  y =  2.234871  z = -1.438170 angstrom
           Maximum rank =  0   Radius =  0.325 angstrom
                   Q00  =   0.048838

Total multipoles referred to origin at
           x =   0.000000,  y =    0.000000,  z =    0.000000 angstrom
                   Q00  =  -1.000000

Finished at 17:47:39 on 27 Apr 2020

  DMA results are available in the Python driver through the
	  variable('DMA DISTRIBUTED MULTIPOLES')
  and
	  variable('DMA TOTAL MULTIPOLES')
  commands.

    Psi4 stopped on: Monday, 27 April 2020 05:47PM
    Psi4 wall time for execution: 0:02:24.24

*** Psi4 exiting successfully. Buy a developer a beer!
