                               Psi4 1.3.2 release

  ==> Input File <==

--------------------------------------------------------------------------
import numpy as np
set {scf_type pk
basis cc-pvdz
d_convergence 10
gdma_switch   0
gdma_limit    0
gdma_origin   [ 0.0,  0.0,  0.0 ]
}
molecule test {
    units Angstrom
    0 1
    --
    0 1
    C               -1.675306081853027     0.581083711504708     2.194711584457012
    C               -1.093306081853027     0.193083711504708     0.875711584457012
    O                0.154693918146972     0.189083711504708     0.818711584457012
    O               -1.847306081853027    -0.016916288495292    -0.084288415542988
    H               -1.482306081853027     1.644083711504708     2.353711584457013
    H               -1.191306081853027     0.024083711504708     2.998711584457013
    H               -2.759026081853027     0.396663711504708     2.233871584457013
    C                2.025693918146973    -0.117916288495292    -2.472288415542987
    N                2.075693918146972    -0.725916288495292    -1.118288415542988
    H                1.238693918146972    -0.483916288495292    -0.574288415542988
    H                2.149693918146973    -1.734916288495292    -1.163288415542987
    H                2.869693918146972    -0.383916288495292    -0.590288415542988
    H                1.269693918146973    -0.624916288495292    -3.078288415542987
    H                2.990693918146972    -0.251916288495292    -2.972288415542987
    H                1.782533918146973     0.954593711504708    -2.447678415542988

}
e, wfn = energy('scf', return_wfn=True)
gdma(wfn)
dmavals = variable('DMA DISTRIBUTED MULTIPOLES')
charges = np.array(dmavals)
print(charges)
np.save('SSI-221GLU-230LYS-1-dimer.npy', np.array(charges))--------------------------------------------------------------------------

*** tstart() called on ds3
*** at Mon Apr 27 16:52:51 2020

   => Loading Basis Set <=

    Name: CC-PVDZ
    Role: ORBITAL
    Keyword: BASIS
    atoms 1-2, 8     entry C          line   138 file /theoryfs2/ds/metcalf/miniconda2/envs/tf2gpu/share/psi4/basis/cc-pvdz.gbs
    atoms 3-4        entry O          line   198 file /theoryfs2/ds/metcalf/miniconda2/envs/tf2gpu/share/psi4/basis/cc-pvdz.gbs
    atoms 5-7, 10-15 entry H          line    22 file /theoryfs2/ds/metcalf/miniconda2/envs/tf2gpu/share/psi4/basis/cc-pvdz.gbs
    atoms 9          entry N          line   168 file /theoryfs2/ds/metcalf/miniconda2/envs/tf2gpu/share/psi4/basis/cc-pvdz.gbs

         ---------------------------------------------------------
                                   SCF
               by Justin Turney, Rob Parrish, Andy Simmonett
                          and Daniel G. A. Smith
                              RHF Reference
                        1 Threads,    500 MiB Core
         ---------------------------------------------------------

  ==> Geometry <==

    Molecular point group: c1
    Full point group: C1

    Geometry (in Angstrom), charge = 0, multiplicity = 1:

       Center              X                  Y                   Z               Mass
    ------------   -----------------  -----------------  -----------------  -----------------
         C           -1.675306081853     0.581083711505     2.194711584457    12.000000000000
         C           -1.093306081853     0.193083711505     0.875711584457    12.000000000000
         O            0.154693918147     0.189083711505     0.818711584457    15.994914619570
         O           -1.847306081853    -0.016916288495    -0.084288415543    15.994914619570
         H           -1.482306081853     1.644083711505     2.353711584457     1.007825032230
         H           -1.191306081853     0.024083711505     2.998711584457     1.007825032230
         H           -2.759026081853     0.396663711505     2.233871584457     1.007825032230
         C            2.025693918147    -0.117916288495    -2.472288415543    12.000000000000
         N            2.075693918147    -0.725916288495    -1.118288415543    14.003074004430
         H            1.238693918147    -0.483916288495    -0.574288415543     1.007825032230
         H            2.149693918147    -1.734916288495    -1.163288415543     1.007825032230
         H            2.869693918147    -0.383916288495    -0.590288415543     1.007825032230
         H            1.269693918147    -0.624916288495    -3.078288415543     1.007825032230
         H            2.990693918147    -0.251916288495    -2.972288415543     1.007825032230
         H            1.782533918147     0.954593711505    -2.447678415543     1.007825032230

  Running in c1 symmetry.

  Rotational constants: A =      0.26384  B =      0.03883  C =      0.03535 [cm^-1]
  Rotational constants: A =   7909.70441  B =   1164.23006  C =   1059.74806 [MHz]
  Nuclear repulsion =  235.677817655949582

  Charge       = 0
  Multiplicity = 1
  Electrons    = 50
  Nalpha       = 25
  Nbeta        = 25

  ==> Algorithm <==

  SCF Algorithm Type is PK.
  DIIS enabled.
  MOM disabled.
  Fractional occupation disabled.
  Guess Type is SAD.
  Energy threshold   = 1.00e-06
  Density threshold  = 1.00e-10
  Integral threshold = 0.00e+00

  ==> Primary Basis <==

  Basis Set: CC-PVDZ
    Blend: CC-PVDZ
    Number of shells: 63
    Number of basis function: 129
    Number of Cartesian functions: 135
    Spherical Harmonics?: true
    Max angular momentum: 2

  ==> Pre-Iterations <==

   -------------------------------------------------------
    Irrep   Nso     Nmo     Nalpha   Nbeta   Ndocc  Nsocc
   -------------------------------------------------------
     A        129     129       0       0       0       0
   -------------------------------------------------------
    Total     129     129      25      25      25       0
   -------------------------------------------------------

  ==> Integral Setup <==

  Using integral reordering PK algorithm.
  Sizing the integral batches needed.
  Building batch lookup table.
   Calculation information:
      Number of atoms:                  15
      Number of AO shells:              63
      Number of primitives:            177
      Number of atomic orbitals:       135
      Number of basis functions:       129

      Integral cutoff                 1.00e-12
      Number of threads:                 1

	Batch   1 pq = [       0,    8385] index = [             0,35158305] size =     35158305
  Task number: 4
  Buffer size: 11059200
  Buffer per thread: 2
  We computed 1602470 shell quartets total.
  Whereas there are 2033136 unique shell quartets.

  ==> DiskJK: Disk-Based J/K Matrices <==

    J tasked:                  Yes
    K tasked:                  Yes
    wK tasked:                  No
    Memory [MiB]:              375
    Schwarz Cutoff:          1E-12

    OpenMP threads:              1

  Minimum eigenvalue in the overlap matrix is 4.8760059353E-03.
  Using Symmetric Orthogonalization.

  SCF Guess: Superposition of Atomic Densities via on-the-fly atomic UHF.

  ==> Iterations <==

                        Total Energy        Delta E     RMS |[F,P]|

   @RHF iter SAD:  -321.78770485070368   -3.21788e+02   0.00000e+00
   @RHF iter   1:  -322.78529341357319   -9.97589e-01   5.19499e-03 DIIS
   @RHF iter   2:  -322.95737307730343   -1.72080e-01   2.81654e-03 DIIS
   @RHF iter   3:  -323.00394627814080   -4.65732e-02   4.69003e-04 DIIS
   @RHF iter   4:  -323.00640961463131   -2.46334e-03   1.63393e-04 DIIS
   @RHF iter   5:  -323.00670061415872   -2.91000e-04   3.36835e-05 DIIS
   @RHF iter   6:  -323.00671668313669   -1.60690e-05   1.82077e-05 DIIS
   @RHF iter   7:  -323.00671984079355   -3.15766e-06   4.51012e-06 DIIS
   @RHF iter   8:  -323.00672048254233   -6.41749e-07   1.96015e-06 DIIS
   @RHF iter   9:  -323.00672059576971   -1.13227e-07   4.44890e-07 DIIS
   @RHF iter  10:  -323.00672060112709   -5.35738e-09   1.23435e-07 DIIS
   @RHF iter  11:  -323.00672060134275   -2.15664e-10   3.63608e-08 DIIS
   @RHF iter  12:  -323.00672060136219   -1.94404e-11   8.68104e-09 DIIS
   @RHF iter  13:  -323.00672060136395   -1.76215e-12   2.14377e-09 DIIS
   @RHF iter  14:  -323.00672060136452   -5.68434e-13   8.53151e-10 DIIS
   @RHF iter  15:  -323.00672060136640   -1.87583e-12   3.05339e-10 DIIS
   @RHF iter  16:  -323.00672060136463    1.76215e-12   1.17947e-10 DIIS
   @RHF iter  17:  -323.00672060136469   -5.68434e-14   5.18711e-11 DIIS
  Energy and wave function converged.

  ==> Post-Iterations <==

    Orbital Energies [Eh]
    ---------------------

    Doubly Occupied:

       1A    -20.420458     2A    -20.400222     3A    -15.736960
       4A    -11.350898     5A    -11.253427     6A    -11.158639
       7A     -1.360270     8A     -1.303367     9A     -1.190710
      10A     -1.021064    11A     -0.916509    12A     -0.821207
      13A     -0.809495    14A     -0.714720    15A     -0.641085
      16A     -0.624141    17A     -0.620207    18A     -0.549744
      19A     -0.538210    20A     -0.535611    21A     -0.471330
      22A     -0.441106    23A     -0.336590    24A     -0.316339
      25A     -0.315714

    Virtual:

      26A      0.095853    27A      0.154815    28A      0.159301
      29A      0.199517    30A      0.217424    31A      0.254122
      32A      0.272772    33A      0.286524    34A      0.317918
      35A      0.344034    36A      0.363031    37A      0.465546
      38A      0.508566    39A      0.515785    40A      0.568136
      41A      0.576449    42A      0.615972    43A      0.655824
      44A      0.696021    45A      0.713497    46A      0.751135
      47A      0.787325    48A      0.791749    49A      0.796548
      50A      0.813230    51A      0.830644    52A      0.864934
      53A      0.896891    54A      0.917951    55A      0.919567
      56A      0.928810    57A      0.937021    58A      0.969135
      59A      1.019934    60A      1.024283    61A      1.064754
      62A      1.080278    63A      1.100554    64A      1.200164
      65A      1.229865    66A      1.231749    67A      1.318311
      68A      1.351627    69A      1.408847    70A      1.430685
      71A      1.448116    72A      1.454759    73A      1.497731
      74A      1.527783    75A      1.589261    76A      1.599035
      77A      1.605256    78A      1.682870    79A      1.734616
      80A      1.744498    81A      1.760927    82A      1.808703
      83A      1.826449    84A      1.852497    85A      1.866786
      86A      1.887757    87A      1.932354    88A      1.963489
      89A      2.000921    90A      2.018292    91A      2.077754
      92A      2.084819    93A      2.093102    94A      2.108295
      95A      2.110323    96A      2.157594    97A      2.193075
      98A      2.226526    99A      2.279542   100A      2.299745
     101A      2.327883   102A      2.399698   103A      2.417713
     104A      2.473340   105A      2.542869   106A      2.565739
     107A      2.607268   108A      2.617404   109A      2.633067
     110A      2.644992   111A      2.673968   112A      2.808181
     113A      2.855394   114A      2.868997   115A      2.880779
     116A      2.889688   117A      2.942554   118A      3.090181
     119A      3.122710   120A      3.151930   121A      3.209197
     122A      3.240133   123A      3.312770   124A      3.482998
     125A      3.665244   126A      3.724487   127A      3.932872
     128A      3.959005   129A      4.076986

    Final Occupation by Irrep:
              A
    DOCC [    25 ]

  @RHF Final Energy:  -323.00672060136469

   => Energetics <=

    Nuclear Repulsion Energy =            235.6778176559495819
    One-Electron Energy =                -909.6730337531103032
    Two-Electron Energy =                 350.9884954957959735
    Total Energy =                       -323.0067206013646910

Computation Completed

Properties will be evaluated at   0.000000,   0.000000,   0.000000 [a0]

Properties computed using the SCF density matrix

  Nuclear Dipole Moment: [e a0]
     X:     6.4247      Y:    -0.4284      Z:    -3.0305

  Electronic Dipole Moment: [e a0]
     X:    -2.0114      Y:    -0.6267      Z:     0.7476

  Dipole Moment: [e a0]
     X:     4.4133      Y:    -1.0551      Z:    -2.2829     Total:     5.0796

  Dipole Moment: [D]
     X:    11.2175      Y:    -2.6819      Z:    -5.8025     Total:    12.9110

*** tstop() called on ds3 at Mon Apr 27 16:53:10 2020
Module time:
	user time   =      12.44 seconds =       0.21 minutes
	system time =       5.48 seconds =       0.09 minutes
	total time  =         19 seconds =       0.32 minutes
Total time:
	user time   =      12.44 seconds =       0.21 minutes
	system time =       5.48 seconds =       0.09 minutes
	total time  =         19 seconds =       0.32 minutes
                                     G D M A

                                 by Anthony Stone

                           version 2.2.06, 22 June 2011

               Distributed Multipoles from Gaussian wavefunctions

Starting at 16:53:10 on 27 Apr 2020

Using SCF density matrix from file ./SSI/SSI-221GLU-230LYS-1-dimer.test.28400.fchk

                         Distributed Multipole Analysis

Standard DMA

Positions and radii in angstrom
Multipole moments in atomic units, ea_0^k for rank k

C          x = -1.675306  y =  0.581084  z =  2.194712 angstrom
           Maximum rank =  0   Radius =  0.650 angstrom
                   Q00  =  -0.265262

C          x = -1.093306  y =  0.193084  z =  0.875712 angstrom
           Maximum rank =  0   Radius =  0.650 angstrom
                   Q00  =   0.932857

O          x =  0.154694  y =  0.189084  z =  0.818712 angstrom
           Maximum rank =  0   Radius =  0.650 angstrom
                   Q00  =  -0.980533

O          x = -1.847306  y = -0.016916  z = -0.084288 angstrom
           Maximum rank =  0   Radius =  0.650 angstrom
                   Q00  =  -0.885082

H          x = -1.482306  y =  1.644084  z =  2.353712 angstrom
           Maximum rank =  0   Radius =  0.325 angstrom
                   Q00  =   0.096992

H          x = -1.191306  y =  0.024084  z =  2.998712 angstrom
           Maximum rank =  0   Radius =  0.325 angstrom
                   Q00  =   0.076347

H          x = -2.759026  y =  0.396664  z =  2.233872 angstrom
           Maximum rank =  0   Radius =  0.325 angstrom
                   Q00  =   0.075623

C          x =  2.025694  y = -0.117916  z = -2.472288 angstrom
           Maximum rank =  0   Radius =  0.650 angstrom
                   Q00  =  -0.142280

N          x =  2.075694  y = -0.725916  z = -1.118288 angstrom
           Maximum rank =  0   Radius =  0.650 angstrom
                   Q00  =  -0.095395

H          x =  1.238694  y = -0.483916  z = -0.574288 angstrom
           Maximum rank =  0   Radius =  0.325 angstrom
                   Q00  =   0.290613

H          x =  2.149694  y = -1.734916  z = -1.163288 angstrom
           Maximum rank =  0   Radius =  0.325 angstrom
                   Q00  =   0.227946

H          x =  2.869694  y = -0.383916  z = -0.590288 angstrom
           Maximum rank =  0   Radius =  0.325 angstrom
                   Q00  =   0.233514

H          x =  1.269694  y = -0.624916  z = -3.078288 angstrom
           Maximum rank =  0   Radius =  0.325 angstrom
                   Q00  =   0.152509

H          x =  2.990694  y = -0.251916  z = -2.972288 angstrom
           Maximum rank =  0   Radius =  0.325 angstrom
                   Q00  =   0.119175

H          x =  1.782534  y =  0.954594  z = -2.447678 angstrom
           Maximum rank =  0   Radius =  0.325 angstrom
                   Q00  =   0.162977

Total multipoles referred to origin at
           x =   0.000000,  y =    0.000000,  z =    0.000000 angstrom
                   Q00  =  -0.000000

Finished at 16:53:10 on 27 Apr 2020

  DMA results are available in the Python driver through the
	  variable('DMA DISTRIBUTED MULTIPOLES')
  and
	  variable('DMA TOTAL MULTIPOLES')
  commands.

    Psi4 stopped on: Monday, 27 April 2020 04:53PM
    Psi4 wall time for execution: 0:00:18.61

*** Psi4 exiting successfully. Buy a developer a beer!
