                               Psi4 1.3.2 release

  ==> Input File <==

--------------------------------------------------------------------------
import numpy as np
set {scf_type pk
basis cc-pvdz
d_convergence 10
gdma_switch   0
gdma_limit    0
gdma_origin   [ 0.0,  0.0,  0.0 ]
}
molecule test {
    units Angstrom
    0 1
    --
    0 1
    C                1.041421341431376    -0.891212643193717    -1.109462433324220
    C                2.016421341431376    -1.563212643193717    -2.091462433324220
    H                0.182421341431376    -1.534212643193717    -0.924462433324220
    H                1.551421341431376    -0.695212643193717    -0.164462433324220
    H                0.691421341431376     0.053787356806283    -1.524462433324220
    H                2.462421341431376    -2.430212643193717    -1.604462433324220
    H                1.472811341431376    -1.897744643193717    -2.987322433324220
    H                2.825451341431376    -0.863052643193717    -2.346902433324220
    C               -1.683578658568624     0.884787356806283     0.949537566675780
    C               -1.381578658568624     1.566787356806283     2.251537566675780
    H               -2.223578658568624     1.549787356806283     0.275537566675780
    H               -0.747578658568624     0.612787356806283     0.463537566675780
    H               -2.268578658568624    -0.021212643193717     1.111537566675780
    H               -0.814578658568624     2.471787356806283     2.032537566675780
    H               -2.295856658568624     1.863640356806283     2.786307566675780
    H               -0.748682658568624     0.923799356806283     2.880827566675780

}
e, wfn = energy('scf', return_wfn=True)
gdma(wfn)
dmavals = variable('DMA DISTRIBUTED MULTIPOLES')
charges = np.array(dmavals)
print(charges)
np.save('SSI-069VAL-114VAL-1-dimer.npy', np.array(charges))--------------------------------------------------------------------------

*** tstart() called on ds3
*** at Mon Apr 27 16:32:00 2020

   => Loading Basis Set <=

    Name: CC-PVDZ
    Role: ORBITAL
    Keyword: BASIS
    atoms 1-2, 9-10  entry C          line   138 file /theoryfs2/ds/metcalf/miniconda2/envs/tf2gpu/share/psi4/basis/cc-pvdz.gbs
    atoms 3-8, 11-16 entry H          line    22 file /theoryfs2/ds/metcalf/miniconda2/envs/tf2gpu/share/psi4/basis/cc-pvdz.gbs

         ---------------------------------------------------------
                                   SCF
               by Justin Turney, Rob Parrish, Andy Simmonett
                          and Daniel G. A. Smith
                              RHF Reference
                        1 Threads,    500 MiB Core
         ---------------------------------------------------------

  ==> Geometry <==

    Molecular point group: c1
    Full point group: C1

    Geometry (in Angstrom), charge = 0, multiplicity = 1:

       Center              X                  Y                   Z               Mass
    ------------   -----------------  -----------------  -----------------  -----------------
         C            1.041421341431    -0.891212643194    -1.109462433324    12.000000000000
         C            2.016421341431    -1.563212643194    -2.091462433324    12.000000000000
         H            0.182421341431    -1.534212643194    -0.924462433324     1.007825032230
         H            1.551421341431    -0.695212643194    -0.164462433324     1.007825032230
         H            0.691421341431     0.053787356806    -1.524462433324     1.007825032230
         H            2.462421341431    -2.430212643194    -1.604462433324     1.007825032230
         H            1.472811341431    -1.897744643194    -2.987322433324     1.007825032230
         H            2.825451341431    -0.863052643194    -2.346902433324     1.007825032230
         C           -1.683578658569     0.884787356806     0.949537566676    12.000000000000
         C           -1.381578658569     1.566787356806     2.251537566676    12.000000000000
         H           -2.223578658569     1.549787356806     0.275537566676     1.007825032230
         H           -0.747578658569     0.612787356806     0.463537566676     1.007825032230
         H           -2.268578658569    -0.021212643194     1.111537566676     1.007825032230
         H           -0.814578658569     2.471787356806     2.032537566676     1.007825032230
         H           -2.295856658569     1.863640356806     2.786307566676     1.007825032230
         H           -0.748682658569     0.923799356806     2.880827566676     1.007825032230

  Running in c1 symmetry.

  Rotational constants: A =      0.72935  B =      0.03977  C =      0.03881 [cm^-1]
  Rotational constants: A =  21865.46654  B =   1192.14018  C =   1163.60459 [MHz]
  Nuclear repulsion =  119.675222964129219

  Charge       = 0
  Multiplicity = 1
  Electrons    = 36
  Nalpha       = 18
  Nbeta        = 18

  ==> Algorithm <==

  SCF Algorithm Type is PK.
  DIIS enabled.
  MOM disabled.
  Fractional occupation disabled.
  Guess Type is SAD.
  Energy threshold   = 1.00e-06
  Density threshold  = 1.00e-10
  Integral threshold = 0.00e+00

  ==> Primary Basis <==

  Basis Set: CC-PVDZ
    Blend: CC-PVDZ
    Number of shells: 60
    Number of basis function: 116
    Number of Cartesian functions: 120
    Spherical Harmonics?: true
    Max angular momentum: 2

  ==> Pre-Iterations <==

   -------------------------------------------------------
    Irrep   Nso     Nmo     Nalpha   Nbeta   Ndocc  Nsocc
   -------------------------------------------------------
     A        116     116       0       0       0       0
   -------------------------------------------------------
    Total     116     116      18      18      18       0
   -------------------------------------------------------

  ==> Integral Setup <==

  Using integral reordering PK algorithm.
  Sizing the integral batches needed.
  Building batch lookup table.
   Calculation information:
      Number of atoms:                  16
      Number of AO shells:              60
      Number of primitives:            148
      Number of atomic orbitals:       120
      Number of basis functions:       116

      Integral cutoff                 1.00e-12
      Number of threads:                 1

	Batch   1 pq = [       0,    6786] index = [             0,23028291] size =     23028291
  Task number: 3
  Buffer size: 11059200
  Buffer per thread: 2
  We computed 1333822 shell quartets total.
  Whereas there are 1675365 unique shell quartets.

  ==> DiskJK: Disk-Based J/K Matrices <==

    J tasked:                  Yes
    K tasked:                  Yes
    wK tasked:                  No
    Memory [MiB]:              375
    Schwarz Cutoff:          1E-12

    OpenMP threads:              1

  Minimum eigenvalue in the overlap matrix is 5.6537355864E-03.
  Using Symmetric Orthogonalization.

  SCF Guess: Superposition of Atomic Densities via on-the-fly atomic UHF.

  ==> Iterations <==

                        Total Energy        Delta E     RMS |[F,P]|

   @RHF iter SAD:  -157.37524008938138   -1.57375e+02   0.00000e+00
   @RHF iter   1:  -158.30578505022709   -9.30545e-01   4.24301e-03 DIIS
   @RHF iter   2:  -158.44038043933821   -1.34595e-01   1.81810e-03 DIIS
   @RHF iter   3:  -158.46431513006635   -2.39347e-02   3.51986e-04 DIIS
   @RHF iter   4:  -158.46617512907710   -1.86000e-03   3.95549e-05 DIIS
   @RHF iter   5:  -158.46619979121601   -2.46621e-05   7.22239e-06 DIIS
   @RHF iter   6:  -158.46620050670046   -7.15484e-07   1.60665e-06 DIIS
   @RHF iter   7:  -158.46620053046396   -2.37635e-08   3.36240e-07 DIIS
   @RHF iter   8:  -158.46620053167027   -1.20630e-09   5.00318e-08 DIIS
   @RHF iter   9:  -158.46620053171117   -4.08988e-11   1.38080e-08 DIIS
   @RHF iter  10:  -158.46620053171412   -2.95586e-12   3.97855e-09 DIIS
   @RHF iter  11:  -158.46620053171407    5.68434e-14   9.39294e-10 DIIS
   @RHF iter  12:  -158.46620053171455   -4.83169e-13   1.79161e-10 DIIS
   @RHF iter  13:  -158.46620053171392    6.25278e-13   3.41133e-11 DIIS
  Energy and wave function converged.

  ==> Post-Iterations <==

    Orbital Energies [Eh]
    ---------------------

    Doubly Occupied:

       1A    -11.220507     2A    -11.218181     3A    -11.216224
       4A    -11.212649     5A     -1.023806     6A     -1.016630
       7A     -0.839079     8A     -0.832221     9A     -0.599696
      10A     -0.599468    11A     -0.598923    12A     -0.596110
      13A     -0.508745    14A     -0.498221    15A     -0.489629
      16A     -0.486052    17A     -0.480679    18A     -0.477768

    Virtual:

      19A      0.176394    20A      0.193035    21A      0.225505
      22A      0.238957    23A      0.242428    24A      0.260022
      25A      0.262444    26A      0.276295    27A      0.281995
      28A      0.288271    29A      0.294943    30A      0.323448
      31A      0.403435    32A      0.420526    33A      0.585664
      34A      0.592903    35A      0.599856    36A      0.602915
      37A      0.607742    38A      0.652263    39A      0.666014
      40A      0.689878    41A      0.701792    42A      0.734810
      43A      0.864692    44A      0.881034    45A      0.887745
      46A      0.890591    47A      0.891798    48A      0.893937
      49A      0.902695    50A      0.905034    51A      0.909426
      52A      0.916534    53A      0.930599    54A      0.948154
      55A      0.960551    56A      1.051097    57A      1.121661
      58A      1.126937    59A      1.129787    60A      1.135215
      61A      1.224981    62A      1.303296    63A      1.467782
      64A      1.477309    65A      1.479481    66A      1.485685
      67A      1.575463    68A      1.596917    69A      1.677442
      70A      1.683311    71A      1.691825    72A      1.699518
      73A      1.847238    74A      1.857144    75A      1.865030
      76A      1.878245    77A      1.900592    78A      1.919790
      79A      1.932459    80A      1.938757    81A      1.945907
      82A      1.949845    83A      1.952929    84A      1.954680
      85A      1.962427    86A      1.965671    87A      1.986230
      88A      2.048909    89A      2.098161    90A      2.103430
      91A      2.120262    92A      2.125267    93A      2.294825
      94A      2.311965    95A      2.323863    96A      2.342890
      97A      2.442134    98A      2.458173    99A      2.458782
     100A      2.480703   101A      2.562918   102A      2.568871
     103A      2.569663   104A      2.579114   105A      2.752116
     106A      2.760952   107A      2.776573   108A      2.817236
     109A      2.837147   110A      2.845397   111A      2.863665
     112A      2.879204   113A      2.934027   114A      2.950615
     115A      2.959018   116A      2.983794

    Final Occupation by Irrep:
              A
    DOCC [    18 ]

  @RHF Final Energy:  -158.46620053171392

   => Energetics <=

    Nuclear Repulsion Energy =            119.6752229641292189
    One-Electron Energy =                -448.4536674497769582
    Two-Electron Energy =                 170.3122439539338302
    Total Energy =                       -158.4662005317139233

Computation Completed

Properties will be evaluated at   0.000000,   0.000000,   0.000000 [a0]

Properties computed using the SCF density matrix

  Nuclear Dipole Moment: [e a0]
     X:     0.0816      Y:     0.0318      Z:    -0.0017

  Electronic Dipole Moment: [e a0]
     X:    -0.0601      Y:    -0.0400      Z:    -0.0165

  Dipole Moment: [e a0]
     X:     0.0215      Y:    -0.0081      Z:    -0.0182     Total:     0.0293

  Dipole Moment: [D]
     X:     0.0547      Y:    -0.0207      Z:    -0.0462     Total:     0.0746

*** tstop() called on ds3 at Mon Apr 27 16:32:14 2020
Module time:
	user time   =       9.17 seconds =       0.15 minutes
	system time =       4.31 seconds =       0.07 minutes
	total time  =         14 seconds =       0.23 minutes
Total time:
	user time   =       9.17 seconds =       0.15 minutes
	system time =       4.31 seconds =       0.07 minutes
	total time  =         14 seconds =       0.23 minutes
                                     G D M A

                                 by Anthony Stone

                           version 2.2.06, 22 June 2011

               Distributed Multipoles from Gaussian wavefunctions

Starting at 16:32:14 on 27 Apr 2020

Using SCF density matrix from file ./SSI/SSI-069VAL-114VAL-1-dimer.test.27110.fchk

                         Distributed Multipole Analysis

Standard DMA

Positions and radii in angstrom
Multipole moments in atomic units, ea_0^k for rank k

C          x =  1.041421  y = -0.891213  z = -1.109462 angstrom
           Maximum rank =  0   Radius =  0.650 angstrom
                   Q00  =  -0.250078

C          x =  2.016421  y = -1.563213  z = -2.091462 angstrom
           Maximum rank =  0   Radius =  0.650 angstrom
                   Q00  =  -0.228450

H          x =  0.182421  y = -1.534213  z = -0.924462 angstrom
           Maximum rank =  0   Radius =  0.325 angstrom
                   Q00  =   0.082341

H          x =  1.551421  y = -0.695213  z = -0.164462 angstrom
           Maximum rank =  0   Radius =  0.325 angstrom
                   Q00  =   0.077048

H          x =  0.691421  y =  0.053787  z = -1.524462 angstrom
           Maximum rank =  0   Radius =  0.325 angstrom
                   Q00  =   0.077551

H          x =  2.462421  y = -2.430213  z = -1.604462 angstrom
           Maximum rank =  0   Radius =  0.325 angstrom
                   Q00  =   0.080523

H          x =  1.472811  y = -1.897745  z = -2.987322 angstrom
           Maximum rank =  0   Radius =  0.325 angstrom
                   Q00  =   0.082243

H          x =  2.825451  y = -0.863053  z = -2.346902 angstrom
           Maximum rank =  0   Radius =  0.325 angstrom
                   Q00  =   0.081015

C          x = -1.683579  y =  0.884787  z =  0.949538 angstrom
           Maximum rank =  0   Radius =  0.650 angstrom
                   Q00  =  -0.237170

C          x = -1.381579  y =  1.566787  z =  2.251538 angstrom
           Maximum rank =  0   Radius =  0.650 angstrom
                   Q00  =  -0.224970

H          x = -2.223579  y =  1.549787  z =  0.275538 angstrom
           Maximum rank =  0   Radius =  0.325 angstrom
                   Q00  =   0.075850

H          x = -0.747579  y =  0.612787  z =  0.463538 angstrom
           Maximum rank =  0   Radius =  0.325 angstrom
                   Q00  =   0.082354

H          x = -2.268579  y = -0.021213  z =  1.111538 angstrom
           Maximum rank =  0   Radius =  0.325 angstrom
                   Q00  =   0.075365

H          x = -0.814579  y =  2.471787  z =  2.032538 angstrom
           Maximum rank =  0   Radius =  0.325 angstrom
                   Q00  =   0.073005

H          x = -2.295857  y =  1.863640  z =  2.786308 angstrom
           Maximum rank =  0   Radius =  0.325 angstrom
                   Q00  =   0.077561

H          x = -0.748683  y =  0.923799  z =  2.880828 angstrom
           Maximum rank =  0   Radius =  0.325 angstrom
                   Q00  =   0.075812

Total multipoles referred to origin at
           x =   0.000000,  y =    0.000000,  z =    0.000000 angstrom
                   Q00  =  -0.000000

Finished at 16:32:14 on 27 Apr 2020

  DMA results are available in the Python driver through the
	  variable('DMA DISTRIBUTED MULTIPOLES')
  and
	  variable('DMA TOTAL MULTIPOLES')
  commands.

    Psi4 stopped on: Monday, 27 April 2020 04:32PM
    Psi4 wall time for execution: 0:00:13.37

*** Psi4 exiting successfully. Buy a developer a beer!
