                               Psi4 1.3.2 release

  ==> Input File <==

--------------------------------------------------------------------------
import numpy as np
set {scf_type pk
basis cc-pvdz
d_convergence 10
gdma_switch   0
gdma_limit    0
gdma_origin   [ 0.0,  0.0,  0.0 ]
}
molecule test {
    units Angstrom
    0 1
    --
    0 1
    C                0.572310356772442     0.881491462268625    -2.989627572501884
    C               -0.185689643227558    -1.377508537731375     0.637372427498116
    C                1.111310356772442    -0.963508537731375     0.352372427498116
    C               -1.238689643227558    -1.122508537731375    -0.244627572501884
    C                1.356310356772442    -0.193508537731375    -0.808627572501884
    C               -1.001689643227558    -0.341508537731375    -1.395627572501884
    C                0.307310356772442     0.091491462268625    -1.706627572501884
    H               -0.371689643227558    -1.945508537731375     1.537372427498116
    H                1.919310356772442    -1.194508537731375     1.033372427498116
    H               -2.233689643227558    -1.479508537731375    -0.030627572501884
    H                2.357310356772442     0.142491462268625    -1.031627572501884
    H               -1.818689643227558    -0.120508537731375    -2.067627572501884
    H               -0.102689643227558     0.496491462268625    -3.747627572501884
    H                1.586310356772442     0.663491462268625    -3.328627572501885
    H                0.456846356772442     1.972301462268625    -2.907153572501884
    C               -0.016689643227558     0.915491462268625     3.364372427498115
    C               -0.841689643227558     1.602491462268625     2.262372427498116
    H               -0.322689643227558     1.279491462268625     4.346372427498115
    H               -0.181689643227558    -0.160508537731375     3.326372427498116
    H                1.049310356772442     1.096491462268625     3.220372427498116
    H               -0.451689643227558     1.287491462268625     1.296372427498116
    H               -0.731920643227558     2.693721462268625     2.347030427498116
    H               -1.902007643227558     1.312201462268625     2.300549427498116

}
e, wfn = energy('scf', return_wfn=True)
gdma(wfn)
dmavals = variable('DMA DISTRIBUTED MULTIPOLES')
charges = np.array(dmavals)
print(charges)
np.save('SSI-041PHE-104VAL-2-dimer.npy', np.array(charges))--------------------------------------------------------------------------

*** tstart() called on ds3
*** at Tue Apr 28 14:02:46 2020

   => Loading Basis Set <=

    Name: CC-PVDZ
    Role: ORBITAL
    Keyword: BASIS
    atoms 1-7, 16-17  entry C          line   138 file /theoryfs2/ds/metcalf/miniconda2/envs/tf2gpu/share/psi4/basis/cc-pvdz.gbs
    atoms 8-15, 18-23 entry H          line    22 file /theoryfs2/ds/metcalf/miniconda2/envs/tf2gpu/share/psi4/basis/cc-pvdz.gbs

         ---------------------------------------------------------
                                   SCF
               by Justin Turney, Rob Parrish, Andy Simmonett
                          and Daniel G. A. Smith
                              RHF Reference
                        1 Threads,    500 MiB Core
         ---------------------------------------------------------

  ==> Geometry <==

    Molecular point group: c1
    Full point group: C1

    Geometry (in Angstrom), charge = 0, multiplicity = 1:

       Center              X                  Y                   Z               Mass
    ------------   -----------------  -----------------  -----------------  -----------------
         C            0.572310356772     0.881491462269    -2.989627572502    12.000000000000
         C           -0.185689643228    -1.377508537731     0.637372427498    12.000000000000
         C            1.111310356772    -0.963508537731     0.352372427498    12.000000000000
         C           -1.238689643228    -1.122508537731    -0.244627572502    12.000000000000
         C            1.356310356772    -0.193508537731    -0.808627572502    12.000000000000
         C           -1.001689643228    -0.341508537731    -1.395627572502    12.000000000000
         C            0.307310356772     0.091491462269    -1.706627572502    12.000000000000
         H           -0.371689643228    -1.945508537731     1.537372427498     1.007825032230
         H            1.919310356772    -1.194508537731     1.033372427498     1.007825032230
         H           -2.233689643228    -1.479508537731    -0.030627572502     1.007825032230
         H            2.357310356772     0.142491462269    -1.031627572502     1.007825032230
         H           -1.818689643228    -0.120508537731    -2.067627572502     1.007825032230
         H           -0.102689643228     0.496491462269    -3.747627572502     1.007825032230
         H            1.586310356772     0.663491462269    -3.328627572502     1.007825032230
         H            0.456846356772     1.972301462269    -2.907153572502     1.007825032230
         C           -0.016689643228     0.915491462269     3.364372427498    12.000000000000
         C           -0.841689643228     1.602491462269     2.262372427498    12.000000000000
         H           -0.322689643228     1.279491462269     4.346372427498     1.007825032230
         H           -0.181689643228    -0.160508537731     3.326372427498     1.007825032230
         H            1.049310356772     1.096491462269     3.220372427498     1.007825032230
         H           -0.451689643228     1.287491462269     1.296372427498     1.007825032230
         H           -0.731920643228     2.693721462269     2.347030427498     1.007825032230
         H           -1.902007643228     1.312201462269     2.300549427498     1.007825032230

  Running in c1 symmetry.

  Rotational constants: A =      0.07612  B =      0.02872  C =      0.02774 [cm^-1]
  Rotational constants: A =   2282.12410  B =    860.97798  C =    831.56856 [MHz]
  Nuclear repulsion =  418.418518882643696

  Charge       = 0
  Multiplicity = 1
  Electrons    = 68
  Nalpha       = 34
  Nbeta        = 34

  ==> Algorithm <==

  SCF Algorithm Type is PK.
  DIIS enabled.
  MOM disabled.
  Fractional occupation disabled.
  Guess Type is SAD.
  Energy threshold   = 1.00e-06
  Density threshold  = 1.00e-10
  Integral threshold = 0.00e+00

  ==> Primary Basis <==

  Basis Set: CC-PVDZ
    Blend: CC-PVDZ
    Number of shells: 96
    Number of basis function: 196
    Number of Cartesian functions: 205
    Spherical Harmonics?: true
    Max angular momentum: 2

  ==> Pre-Iterations <==

   -------------------------------------------------------
    Irrep   Nso     Nmo     Nalpha   Nbeta   Ndocc  Nsocc
   -------------------------------------------------------
     A        196     196       0       0       0       0
   -------------------------------------------------------
    Total     196     196      34      34      34       0
   -------------------------------------------------------

  ==> Integral Setup <==

  Using integral reordering PK algorithm.
  Sizing the integral batches needed.
  Building batch lookup table.
   Calculation information:
      Number of atoms:                  23
      Number of AO shells:              96
      Number of primitives:            268
      Number of atomic orbitals:       205
      Number of basis functions:       196

      Integral cutoff                 1.00e-12
      Number of threads:                 1

	Batch   1 pq = [       0,    9405] index = [             0,44231715] size =     44231715
	Batch   2 pq = [    9405,   13301] index = [      44231715,88464951] size =     44233236
	Batch   3 pq = [   13301,   16290] index = [      88464951,132690195] size =     44225244
	Batch   4 pq = [   16290,   18810] index = [     132690195,176917455] size =     44227260
	Batch   5 pq = [   18810,   19306] index = [     176917455,186370471] size =      9453016
  Task number: 17
  Buffer size: 11059200
  Buffer per thread: 2
  We computed 10731910 shell quartets total.
  Whereas there are 10841496 unique shell quartets.

  ==> DiskJK: Disk-Based J/K Matrices <==

    J tasked:                  Yes
    K tasked:                  Yes
    wK tasked:                  No
    Memory [MiB]:              375
    Schwarz Cutoff:          1E-12

    OpenMP threads:              1

  Minimum eigenvalue in the overlap matrix is 3.5975494312E-04.
  Using Symmetric Orthogonalization.

  SCF Guess: Superposition of Atomic Densities via on-the-fly atomic UHF.

  ==> Iterations <==

                        Total Energy        Delta E     RMS |[F,P]|

   @RHF iter SAD:  -347.69599941962008   -3.47696e+02   0.00000e+00
   @RHF iter   1:  -348.76935903158272   -1.07336e+00   2.84200e-03 DIIS
   @RHF iter   2:  -348.95667987236322   -1.87321e-01   1.16860e-03 DIIS
   @RHF iter   3:  -348.98540045927496   -2.87206e-02   2.55053e-04 DIIS
   @RHF iter   4:  -348.98783764354386   -2.43718e-03   4.67840e-05 DIIS
   @RHF iter   5:  -348.98789966749825   -6.20240e-05   1.37122e-05 DIIS
   @RHF iter   6:  -348.98790512049823   -5.45300e-06   3.02523e-06 DIIS
   @RHF iter   7:  -348.98790540413160   -2.83633e-07   1.10326e-06 DIIS
   @RHF iter   8:  -348.98790544986838   -4.57368e-08   4.25786e-07 DIIS
   @RHF iter   9:  -348.98790546087116   -1.10028e-08   1.91760e-07 DIIS
   @RHF iter  10:  -348.98790546417570   -3.30454e-09   9.64411e-08 DIIS
   @RHF iter  11:  -348.98790546533326   -1.15756e-09   3.17859e-08 DIIS
   @RHF iter  12:  -348.98790546542580   -9.25411e-11   1.26399e-08 DIIS
   @RHF iter  13:  -348.98790546543881   -1.30171e-11   4.79578e-09 DIIS
   @RHF iter  14:  -348.98790546543927   -4.54747e-13   1.30611e-09 DIIS
   @RHF iter  15:  -348.98790546544046   -1.19371e-12   4.67559e-10 DIIS
   @RHF iter  16:  -348.98790546543722    3.24007e-12   1.60663e-10 DIIS
   @RHF iter  17:  -348.98790546543916   -1.93268e-12   7.13449e-11 DIIS
  Energy and wave function converged.

  ==> Post-Iterations <==

    Orbital Energies [Eh]
    ---------------------

    Doubly Occupied:

       1A    -11.248749     2A    -11.240071     3A    -11.239903
       4A    -11.237603     5A    -11.237563     6A    -11.233446
       7A    -11.232434     8A    -11.210183     9A    -11.206829
      10A     -1.145529    11A     -1.040537    12A     -1.007827
      13A     -1.005459    14A     -0.930386    15A     -0.828615
      16A     -0.825228    17A     -0.793305    18A     -0.689665
      19A     -0.634528    20A     -0.626437    21A     -0.589894
      22A     -0.586653    23A     -0.583186    24A     -0.575717
      25A     -0.558600    26A     -0.536688    27A     -0.492348
      28A     -0.488205    29A     -0.487471    30A     -0.480660
      31A     -0.475799    32A     -0.466884    33A     -0.330117
      34A     -0.322550

    Virtual:

      35A      0.129197    36A      0.136471    37A      0.176108
      38A      0.194294    39A      0.211502    40A      0.215715
      41A      0.234312    42A      0.241319    43A      0.253648
      44A      0.267704    45A      0.275212    46A      0.277870
      47A      0.282189    48A      0.286896    49A      0.315698
      50A      0.336319    51A      0.364765    52A      0.370500
      53A      0.403742    54A      0.448410    55A      0.456202
      56A      0.472475    57A      0.482221    58A      0.555000
      59A      0.575179    60A      0.594843    61A      0.600011
      62A      0.617040    63A      0.637766    64A      0.645839
      65A      0.659182    66A      0.676806    67A      0.686763
      68A      0.709801    69A      0.731044    70A      0.743514
      71A      0.745959    72A      0.753152    73A      0.774129
      74A      0.787206    75A      0.802553    76A      0.841520
      77A      0.849256    78A      0.852913    79A      0.860045
      80A      0.869864    81A      0.874606    82A      0.881392
      83A      0.890630    84A      0.892669    85A      0.911004
      86A      0.914892    87A      0.919318    88A      0.923874
      89A      0.932146    90A      0.939390    91A      0.960561
      92A      0.978369    93A      0.984172    94A      1.010736
      95A      1.039241    96A      1.107722    97A      1.115845
      98A      1.121021    99A      1.136203   100A      1.150022
     101A      1.154791   102A      1.162632   103A      1.192103
     104A      1.229843   105A      1.236383   106A      1.244599
     107A      1.248122   108A      1.275790   109A      1.282051
     110A      1.312655   111A      1.319526   112A      1.333448
     113A      1.417615   114A      1.473405   115A      1.484744
     116A      1.507335   117A      1.516276   118A      1.544860
     119A      1.584797   120A      1.598822   121A      1.680945
     122A      1.690413   123A      1.702246   124A      1.704692
     125A      1.741250   126A      1.746059   127A      1.769378
     128A      1.785821   129A      1.820864   130A      1.844987
     131A      1.870530   132A      1.872853   133A      1.891428
     134A      1.898544   135A      1.899837   136A      1.903105
     137A      1.918271   138A      1.932976   139A      1.935990
     140A      1.942628   141A      1.946829   142A      1.958698
     143A      1.960701   144A      1.967441   145A      1.972284
     146A      1.981586   147A      1.999891   148A      2.005002
     149A      2.037965   150A      2.050891   151A      2.061152
     152A      2.111302   153A      2.115136   154A      2.120830
     155A      2.139692   156A      2.151158   157A      2.156909
     158A      2.165416   159A      2.179332   160A      2.237933
     161A      2.264971   162A      2.278539   163A      2.296959
     164A      2.298253   165A      2.314270   166A      2.327870
     167A      2.342718   168A      2.447172   169A      2.468073
     170A      2.469360   171A      2.475385   172A      2.482652
     173A      2.527230   174A      2.575914   175A      2.589871
     176A      2.600389   177A      2.736547   178A      2.742479
     179A      2.766517   180A      2.773683   181A      2.784386
     182A      2.796002   183A      2.801916   184A      2.846427
     185A      2.868289   186A      2.870726   187A      2.879489
     188A      2.937818   189A      2.960486   190A      2.983426
     191A      2.988883   192A      3.006079   193A      3.119614
     194A      3.167552   195A      3.269712   196A      3.911505

    Final Occupation by Irrep:
              A
    DOCC [    34 ]

  @RHF Final Energy:  -348.98790546543916

   => Energetics <=

    Nuclear Repulsion Energy =            418.4185188826436956
    One-Electron Energy =               -1299.6347091942679981
    Two-Electron Energy =                 532.2282848461852609
    Total Energy =                       -348.9879054654390984

Computation Completed

Properties will be evaluated at   0.000000,   0.000000,   0.000000 [a0]

Properties computed using the SCF density matrix

  Nuclear Dipole Moment: [e a0]
     X:    -0.7009      Y:     5.6657      Z:     5.9009

  Electronic Dipole Moment: [e a0]
     X:     0.7384      Y:    -5.6510      Z:    -6.1217

  Dipole Moment: [e a0]
     X:     0.0375      Y:     0.0147      Z:    -0.2208     Total:     0.2244

  Dipole Moment: [D]
     X:     0.0952      Y:     0.0375      Z:    -0.5612     Total:     0.5704

*** tstop() called on ds3 at Tue Apr 28 14:05:07 2020
Module time:
	user time   =      76.58 seconds =       1.28 minutes
	system time =      25.98 seconds =       0.43 minutes
	total time  =        141 seconds =       2.35 minutes
Total time:
	user time   =      76.58 seconds =       1.28 minutes
	system time =      25.98 seconds =       0.43 minutes
	total time  =        141 seconds =       2.35 minutes
                                     G D M A

                                 by Anthony Stone

                           version 2.2.06, 22 June 2011

               Distributed Multipoles from Gaussian wavefunctions

Starting at 14:5:7 on 28 Apr 2020

Using SCF density matrix from file ./SSI/SSI-041PHE-104VAL-2-dimer.test.19711.fchk

                         Distributed Multipole Analysis

Standard DMA

Positions and radii in angstrom
Multipole moments in atomic units, ea_0^k for rank k

C          x =  0.572310  y =  0.881491  z = -2.989628 angstrom
           Maximum rank =  0   Radius =  0.650 angstrom
                   Q00  =  -0.201388

C          x = -0.185690  y = -1.377509  z =  0.637372 angstrom
           Maximum rank =  0   Radius =  0.650 angstrom
                   Q00  =  -0.029995

C          x =  1.111310  y = -0.963509  z =  0.352372 angstrom
           Maximum rank =  0   Radius =  0.650 angstrom
                   Q00  =  -0.070453

C          x = -1.238690  y = -1.122509  z = -0.244628 angstrom
           Maximum rank =  0   Radius =  0.650 angstrom
                   Q00  =  -0.066095

C          x =  1.356310  y = -0.193509  z = -0.808628 angstrom
           Maximum rank =  0   Radius =  0.650 angstrom
                   Q00  =  -0.055590

C          x = -1.001690  y = -0.341509  z = -1.395628 angstrom
           Maximum rank =  0   Radius =  0.650 angstrom
                   Q00  =  -0.092765

C          x =  0.307310  y =  0.091491  z = -1.706628 angstrom
           Maximum rank =  0   Radius =  0.650 angstrom
                   Q00  =  -0.112906

H          x = -0.371690  y = -1.945509  z =  1.537372 angstrom
           Maximum rank =  0   Radius =  0.325 angstrom
                   Q00  =   0.062045

H          x =  1.919310  y = -1.194509  z =  1.033372 angstrom
           Maximum rank =  0   Radius =  0.325 angstrom
                   Q00  =   0.069644

H          x = -2.233690  y = -1.479509  z = -0.030628 angstrom
           Maximum rank =  0   Radius =  0.325 angstrom
                   Q00  =   0.069473

H          x =  2.357310  y =  0.142491  z = -1.031628 angstrom
           Maximum rank =  0   Radius =  0.325 angstrom
                   Q00  =   0.063471

H          x = -1.818690  y = -0.120509  z = -2.067628 angstrom
           Maximum rank =  0   Radius =  0.325 angstrom
                   Q00  =   0.063444

H          x = -0.102690  y =  0.496491  z = -3.747628 angstrom
           Maximum rank =  0   Radius =  0.325 angstrom
                   Q00  =   0.099902

H          x =  1.586310  y =  0.663491  z = -3.328628 angstrom
           Maximum rank =  0   Radius =  0.325 angstrom
                   Q00  =   0.098935

H          x =  0.456846  y =  1.972301  z = -2.907154 angstrom
           Maximum rank =  0   Radius =  0.325 angstrom
                   Q00  =   0.107359

C          x = -0.016690  y =  0.915491  z =  3.364372 angstrom
           Maximum rank =  0   Radius =  0.650 angstrom
                   Q00  =  -0.224051

C          x = -0.841690  y =  1.602491  z =  2.262372 angstrom
           Maximum rank =  0   Radius =  0.650 angstrom
                   Q00  =  -0.249846

H          x = -0.322690  y =  1.279491  z =  4.346372 angstrom
           Maximum rank =  0   Radius =  0.325 angstrom
                   Q00  =   0.074646

H          x = -0.181690  y = -0.160509  z =  3.326372 angstrom
           Maximum rank =  0   Radius =  0.325 angstrom
                   Q00  =   0.073425

H          x =  1.049310  y =  1.096491  z =  3.220372 angstrom
           Maximum rank =  0   Radius =  0.325 angstrom
                   Q00  =   0.078408

H          x = -0.451690  y =  1.287491  z =  1.296372 angstrom
           Maximum rank =  0   Radius =  0.325 angstrom
                   Q00  =   0.094976

H          x = -0.731921  y =  2.693721  z =  2.347030 angstrom
           Maximum rank =  0   Radius =  0.325 angstrom
                   Q00  =   0.072240

H          x = -1.902008  y =  1.312201  z =  2.300549 angstrom
           Maximum rank =  0   Radius =  0.325 angstrom
                   Q00  =   0.075121

Total multipoles referred to origin at
           x =   0.000000,  y =    0.000000,  z =    0.000000 angstrom
                   Q00  =  -0.000000

Finished at 14:5:7 on 28 Apr 2020

  DMA results are available in the Python driver through the
	  variable('DMA DISTRIBUTED MULTIPOLES')
  and
	  variable('DMA TOTAL MULTIPOLES')
  commands.

    Psi4 stopped on: Tuesday, 28 April 2020 02:05PM
    Psi4 wall time for execution: 0:02:21.85

*** Psi4 exiting successfully. Buy a developer a beer!
