                               Psi4 1.3.2 release

  ==> Input File <==

--------------------------------------------------------------------------
import numpy as np
set {scf_type pk
basis cc-pvdz
d_convergence 10
gdma_switch   0
gdma_limit    0
gdma_origin   [ 0.0,  0.0,  0.0 ]
}
molecule test {
    units Angstrom
    0 1
    --
    0 1
    C                2.098116929406185    -1.121528824290533     1.999004399575360
    C                3.206116929406185    -1.496528824290533     2.965004399575359
    H                2.390116929406186    -0.257528824290533     1.401004399575360
    H                1.867116929406185    -1.956528824290533     1.339004399575359
    H                1.211116929406185    -0.875528824290533     2.582004399575359
    H                2.872116929406185    -2.386528824290532     3.500004399575360
    H                3.351976929406185    -0.699218824290533     3.708657399575359
    H                4.134806929406184    -1.767608824290533     2.441497399575359
    C               -0.850883070593815    -1.556528824290532    -2.902995600424640
    C               -0.745883070593815    -1.019528824290532    -0.464995600424641
    C               -0.737883070593815    -0.560528824290533    -1.772995600424641
    C               -0.711883070593815    -0.103528824290533     0.587004399575359
    C               -0.698883070593815     1.263471175709467     0.333004399575359
    C               -0.706883070593815     0.823471175709467    -2.010995600424641
    C               -0.716883070593815     1.743471175709467    -0.970995600424641
    O               -0.713883070593815     2.163471175709468     1.376004399575359
    H               -0.762883070593815    -2.081528824290532    -0.251995600424641
    H               -0.660883070593815    -0.470528824290533     1.594004399575360
    H               -0.511883070593815    -2.536528824290532    -2.561995600424640
    H               -0.203883070593815    -1.244528824290533    -3.723995600424640
    H               -0.694883070593815     1.196471175709467    -3.026995600424641
    H               -0.671883070593815     1.720471175709467     2.241004399575360
    H               -0.709883070593815     2.806471175709467    -1.164995600424641
    H               -1.889273070593815    -1.639028824290532    -3.256473600424641

}
e, wfn = energy('scf', return_wfn=True)
gdma(wfn)
dmavals = variable('DMA DISTRIBUTED MULTIPOLES')
charges = np.array(dmavals)
print(charges)
np.save('SSI-104ALA-125TYR-1-dimer.npy', np.array(charges))--------------------------------------------------------------------------

*** tstart() called on ds3
*** at Tue Apr 28 08:51:40 2020

   => Loading Basis Set <=

    Name: CC-PVDZ
    Role: ORBITAL
    Keyword: BASIS
    atoms 1-2, 9-15  entry C          line   138 file /theoryfs2/ds/metcalf/miniconda2/envs/tf2gpu/share/psi4/basis/cc-pvdz.gbs
    atoms 3-8, 17-24 entry H          line    22 file /theoryfs2/ds/metcalf/miniconda2/envs/tf2gpu/share/psi4/basis/cc-pvdz.gbs
    atoms 16         entry O          line   198 file /theoryfs2/ds/metcalf/miniconda2/envs/tf2gpu/share/psi4/basis/cc-pvdz.gbs

         ---------------------------------------------------------
                                   SCF
               by Justin Turney, Rob Parrish, Andy Simmonett
                          and Daniel G. A. Smith
                              RHF Reference
                        1 Threads,    500 MiB Core
         ---------------------------------------------------------

  ==> Geometry <==

    Molecular point group: c1
    Full point group: C1

    Geometry (in Angstrom), charge = 0, multiplicity = 1:

       Center              X                  Y                   Z               Mass
    ------------   -----------------  -----------------  -----------------  -----------------
         C            2.098116929406    -1.121528824291     1.999004399575    12.000000000000
         C            3.206116929406    -1.496528824291     2.965004399575    12.000000000000
         H            2.390116929406    -0.257528824291     1.401004399575     1.007825032230
         H            1.867116929406    -1.956528824291     1.339004399575     1.007825032230
         H            1.211116929406    -0.875528824291     2.582004399575     1.007825032230
         H            2.872116929406    -2.386528824291     3.500004399575     1.007825032230
         H            3.351976929406    -0.699218824291     3.708657399575     1.007825032230
         H            4.134806929406    -1.767608824291     2.441497399575     1.007825032230
         C           -0.850883070594    -1.556528824291    -2.902995600425    12.000000000000
         C           -0.745883070594    -1.019528824291    -0.464995600425    12.000000000000
         C           -0.737883070594    -0.560528824291    -1.772995600425    12.000000000000
         C           -0.711883070594    -0.103528824291     0.587004399575    12.000000000000
         C           -0.698883070594     1.263471175709     0.333004399575    12.000000000000
         C           -0.706883070594     0.823471175709    -2.010995600425    12.000000000000
         C           -0.716883070594     1.743471175709    -0.970995600425    12.000000000000
         O           -0.713883070594     2.163471175709     1.376004399575    15.994914619570
         H           -0.762883070594    -2.081528824291    -0.251995600425     1.007825032230
         H           -0.660883070594    -0.470528824291     1.594004399575     1.007825032230
         H           -0.511883070594    -2.536528824291    -2.561995600425     1.007825032230
         H           -0.203883070594    -1.244528824291    -3.723995600425     1.007825032230
         H           -0.694883070594     1.196471175709    -3.026995600425     1.007825032230
         H           -0.671883070594     1.720471175709     2.241004399575     1.007825032230
         H           -0.709883070594     2.806471175709    -1.164995600425     1.007825032230
         H           -1.889273070594    -1.639028824291    -3.256473600425     1.007825032230

  Running in c1 symmetry.

  Rotational constants: A =      0.04796  B =      0.02310  C =      0.01705 [cm^-1]
  Rotational constants: A =   1437.76103  B =    692.64591  C =    511.13866 [MHz]
  Nuclear repulsion =  494.520055490820141

  Charge       = 0
  Multiplicity = 1
  Electrons    = 76
  Nalpha       = 38
  Nbeta        = 38

  ==> Algorithm <==

  SCF Algorithm Type is PK.
  DIIS enabled.
  MOM disabled.
  Fractional occupation disabled.
  Guess Type is SAD.
  Energy threshold   = 1.00e-06
  Density threshold  = 1.00e-10
  Integral threshold = 0.00e+00

  ==> Primary Basis <==

  Basis Set: CC-PVDZ
    Blend: CC-PVDZ
    Number of shells: 102
    Number of basis function: 210
    Number of Cartesian functions: 220
    Spherical Harmonics?: true
    Max angular momentum: 2

  ==> Pre-Iterations <==

   -------------------------------------------------------
    Irrep   Nso     Nmo     Nalpha   Nbeta   Ndocc  Nsocc
   -------------------------------------------------------
     A        210     210       0       0       0       0
   -------------------------------------------------------
    Total     210     210      38      38      38       0
   -------------------------------------------------------

  ==> Integral Setup <==

  Using integral reordering PK algorithm.
  Sizing the integral batches needed.
  Building batch lookup table.
   Calculation information:
      Number of atoms:                  24
      Number of AO shells:             102
      Number of primitives:            290
      Number of atomic orbitals:       220
      Number of basis functions:       210

      Integral cutoff                 1.00e-12
      Number of threads:                 1

	Batch   1 pq = [       0,    9405] index = [             0,44231715] size =     44231715
	Batch   2 pq = [    9405,   13301] index = [      44231715,88464951] size =     44233236
	Batch   3 pq = [   13301,   16290] index = [      88464951,132690195] size =     44225244
	Batch   4 pq = [   16290,   18810] index = [     132690195,176917455] size =     44227260
	Batch   5 pq = [   18810,   21030] index = [     176917455,221140965] size =     44223510
	Batch   6 pq = [   21030,   22155] index = [     221140965,245433090] size =     24292125
  Task number: 23
  Buffer size: 11059200
  Buffer per thread: 2
  We computed 11583068 shell quartets total.
  Whereas there are 13799631 unique shell quartets.

  ==> DiskJK: Disk-Based J/K Matrices <==

    J tasked:                  Yes
    K tasked:                  Yes
    wK tasked:                  No
    Memory [MiB]:              375
    Schwarz Cutoff:          1E-12

    OpenMP threads:              1

  Minimum eigenvalue in the overlap matrix is 3.2409345695E-04.
  Using Symmetric Orthogonalization.

  SCF Guess: Superposition of Atomic Densities via on-the-fly atomic UHF.

  ==> Iterations <==

                        Total Energy        Delta E     RMS |[F,P]|

   @RHF iter SAD:  -422.68833983764523   -4.22688e+02   0.00000e+00
   @RHF iter   1:  -423.59552794163278   -9.07188e-01   2.99137e-03 DIIS
   @RHF iter   2:  -423.81370385944336   -2.18176e-01   1.26349e-03 DIIS
   @RHF iter   3:  -423.84883573437492   -3.51319e-02   2.85347e-04 DIIS
   @RHF iter   4:  -423.85173440896551   -2.89867e-03   1.17586e-04 DIIS
   @RHF iter   5:  -423.85208835915410   -3.53950e-04   2.08782e-05 DIIS
   @RHF iter   6:  -423.85210637714175   -1.80180e-05   6.52808e-06 DIIS
   @RHF iter   7:  -423.85210812022126   -1.74308e-06   2.14453e-06 DIIS
   @RHF iter   8:  -423.85210837280619   -2.52585e-07   8.13160e-07 DIIS
   @RHF iter   9:  -423.85210841516243   -4.23562e-08   3.02634e-07 DIIS
   @RHF iter  10:  -423.85210842320282   -8.04039e-09   1.20283e-07 DIIS
   @RHF iter  11:  -423.85210842546093   -2.25810e-09   5.69347e-08 DIIS
   @RHF iter  12:  -423.85210842588629   -4.25359e-10   2.42735e-08 DIIS
   @RHF iter  13:  -423.85210842596462   -7.83302e-11   8.04581e-09 DIIS
   @RHF iter  14:  -423.85210842597019   -5.57066e-12   1.98037e-09 DIIS
   @RHF iter  15:  -423.85210842596996    2.27374e-13   6.55535e-10 DIIS
   @RHF iter  16:  -423.85210842597184   -1.87583e-12   2.05109e-10 DIIS
   @RHF iter  17:  -423.85210842597019    1.64846e-12   8.74349e-11 DIIS
  Energy and wave function converged.

  ==> Post-Iterations <==

    Orbital Energies [Eh]
    ---------------------

    Doubly Occupied:

       1A    -20.580212     2A    -11.297278     3A    -11.237762
       4A    -11.236563     5A    -11.232924     6A    -11.230803
       7A    -11.229808     8A    -11.227933     9A    -11.219098
      10A    -11.217091    11A     -1.388518    12A     -1.149964
      13A     -1.036291    14A     -1.023640    15A     -1.016818
      16A     -0.923945    17A     -0.843631    18A     -0.835590
      19A     -0.799660    20A     -0.725968    21A     -0.665352
      22A     -0.641466    23A     -0.605238    24A     -0.602196
      25A     -0.598988    26A     -0.586944    27A     -0.582346
      28A     -0.568747    29A     -0.563960    30A     -0.526652
      31A     -0.504567    32A     -0.494709    33A     -0.490454
      34A     -0.483874    35A     -0.480740    36A     -0.465045
      37A     -0.337487    38A     -0.300897

    Virtual:

      39A      0.130729    40A      0.155723    41A      0.165062
      42A      0.184774    43A      0.198894    44A      0.216081
      45A      0.217979    46A      0.246949    47A      0.257969
      48A      0.259958    49A      0.261122    50A      0.274324
      51A      0.278436    52A      0.284596    53A      0.300029
      54A      0.335638    55A      0.369256    56A      0.378767
      57A      0.401451    58A      0.429826    59A      0.454459
      60A      0.483266    61A      0.495748    62A      0.508672
      63A      0.581728    64A      0.597131    65A      0.599564
      66A      0.610655    67A      0.640234    68A      0.646658
      69A      0.655626    70A      0.676232    71A      0.682932
      72A      0.689675    73A      0.707218    74A      0.716901
      75A      0.730909    76A      0.740446    77A      0.765032
      78A      0.773036    79A      0.785221    80A      0.793116
      81A      0.805385    82A      0.836104    83A      0.848310
      84A      0.853033    85A      0.878543    86A      0.880794
      87A      0.889974    88A      0.891650    89A      0.894187
      90A      0.904478    91A      0.909378    92A      0.921024
      93A      0.921914    94A      0.925844    95A      0.939826
      96A      0.943574    97A      0.954153    98A      0.979211
      99A      0.997623   100A      1.026194   101A      1.033934
     102A      1.077360   103A      1.112294   104A      1.126096
     105A      1.134016   106A      1.145496   107A      1.151820
     108A      1.171492   109A      1.213054   110A      1.224653
     111A      1.249114   112A      1.261537   113A      1.265164
     114A      1.289589   115A      1.301367   116A      1.311306
     117A      1.349200   118A      1.363948   119A      1.380106
     120A      1.386778   121A      1.463406   122A      1.479919
     123A      1.484753   124A      1.526585   125A      1.541482
     126A      1.566109   127A      1.591018   128A      1.613296
     129A      1.629339   130A      1.675792   131A      1.677871
     132A      1.690331   133A      1.704127   134A      1.739242
     135A      1.739456   136A      1.777441   137A      1.805912
     138A      1.812366   139A      1.853164   140A      1.860756
     141A      1.867099   142A      1.882547   143A      1.901393
     144A      1.905258   145A      1.907060   146A      1.924760
     147A      1.926309   148A      1.937667   149A      1.949119
     150A      1.951786   151A      1.961018   152A      1.967665
     153A      1.970238   154A      1.985363   155A      1.993696
     156A      2.031378   157A      2.051535   158A      2.057743
     159A      2.068075   160A      2.079268   161A      2.084858
     162A      2.098134   163A      2.125933   164A      2.145438
     165A      2.155309   166A      2.161236   167A      2.204290
     168A      2.223151   169A      2.262725   170A      2.270736
     171A      2.295049   172A      2.312487   173A      2.335197
     174A      2.353387   175A      2.375266   176A      2.422063
     177A      2.445603   178A      2.450423   179A      2.473096
     180A      2.483811   181A      2.490547   182A      2.531721
     183A      2.542402   184A      2.561656   185A      2.577737
     186A      2.609314   187A      2.642181   188A      2.751730
     189A      2.763797   190A      2.770384   191A      2.783352
     192A      2.797999   193A      2.810608   194A      2.835753
     195A      2.840801   196A      2.870688   197A      2.908126
     198A      2.947277   199A      2.961329   200A      2.977035
     201A      3.000273   202A      3.087504   203A      3.115169
     204A      3.242839   205A      3.280020   206A      3.339443
     207A      3.562051   208A      3.671059   209A      3.962921
     210A      4.183524

    Final Occupation by Irrep:
              A
    DOCC [    38 ]

  @RHF Final Energy:  -423.85210842597019

   => Energetics <=

    Nuclear Repulsion Energy =            494.5200554908201411
    One-Electron Energy =               -1554.8380108295530135
    Two-Electron Energy =                 636.4658469127626859
    Total Energy =                       -423.8521084259701865

Computation Completed

Properties will be evaluated at   0.000000,   0.000000,   0.000000 [a0]

Properties computed using the SCF density matrix

  Nuclear Dipole Moment: [e a0]
     X:     9.1105      Y:    -9.5440      Z:     4.5259

  Electronic Dipole Moment: [e a0]
     X:    -9.0789      Y:     9.0018      Z:    -4.3619

  Dipole Moment: [e a0]
     X:     0.0315      Y:    -0.5422      Z:     0.1640     Total:     0.5673

  Dipole Moment: [D]
     X:     0.0801      Y:    -1.3781      Z:     0.4169     Total:     1.4420

*** tstop() called on ds3 at Tue Apr 28 08:53:43 2020
Module time:
	user time   =      86.52 seconds =       1.44 minutes
	system time =      40.75 seconds =       0.68 minutes
	total time  =        123 seconds =       2.05 minutes
Total time:
	user time   =      86.52 seconds =       1.44 minutes
	system time =      40.75 seconds =       0.68 minutes
	total time  =        123 seconds =       2.05 minutes
                                     G D M A

                                 by Anthony Stone

                           version 2.2.06, 22 June 2011

               Distributed Multipoles from Gaussian wavefunctions

Starting at 8:53:43 on 28 Apr 2020

Using SCF density matrix from file ./SSI/SSI-104ALA-125TYR-1-dimer.test.16193.fchk

                         Distributed Multipole Analysis

Standard DMA

Positions and radii in angstrom
Multipole moments in atomic units, ea_0^k for rank k

C          x =  2.098117  y = -1.121529  z =  1.999004 angstrom
           Maximum rank =  0   Radius =  0.650 angstrom
                   Q00  =  -0.220710

C          x =  3.206117  y = -1.496529  z =  2.965004 angstrom
           Maximum rank =  0   Radius =  0.650 angstrom
                   Q00  =  -0.232405

H          x =  2.390117  y = -0.257529  z =  1.401004 angstrom
           Maximum rank =  0   Radius =  0.325 angstrom
                   Q00  =   0.086345

H          x =  1.867117  y = -1.956529  z =  1.339004 angstrom
           Maximum rank =  0   Radius =  0.325 angstrom
                   Q00  =   0.079676

H          x =  1.211117  y = -0.875529  z =  2.582004 angstrom
           Maximum rank =  0   Radius =  0.325 angstrom
                   Q00  =   0.055778

H          x =  2.872117  y = -2.386529  z =  3.500004 angstrom
           Maximum rank =  0   Radius =  0.325 angstrom
                   Q00  =   0.071083

H          x =  3.351977  y = -0.699219  z =  3.708657 angstrom
           Maximum rank =  0   Radius =  0.325 angstrom
                   Q00  =   0.078406

H          x =  4.134807  y = -1.767609  z =  2.441497 angstrom
           Maximum rank =  0   Radius =  0.325 angstrom
                   Q00  =   0.082488

C          x = -0.850883  y = -1.556529  z = -2.902996 angstrom
           Maximum rank =  0   Radius =  0.650 angstrom
                   Q00  =  -0.195087

C          x = -0.745883  y = -1.019529  z = -0.464996 angstrom
           Maximum rank =  0   Radius =  0.650 angstrom
                   Q00  =  -0.068981

C          x = -0.737883  y = -0.560529  z = -1.772996 angstrom
           Maximum rank =  0   Radius =  0.650 angstrom
                   Q00  =  -0.129275

C          x = -0.711883  y = -0.103529  z =  0.587004 angstrom
           Maximum rank =  0   Radius =  0.650 angstrom
                   Q00  =  -0.157848

C          x = -0.698883  y =  1.263471  z =  0.333004 angstrom
           Maximum rank =  0   Radius =  0.650 angstrom
                   Q00  =   0.316224

C          x = -0.706883  y =  0.823471  z = -2.010996 angstrom
           Maximum rank =  0   Radius =  0.650 angstrom
                   Q00  =   0.043933

C          x = -0.716883  y =  1.743471  z = -0.970996 angstrom
           Maximum rank =  0   Radius =  0.650 angstrom
                   Q00  =  -0.106156

O          x = -0.713883  y =  2.163471  z =  1.376004 angstrom
           Maximum rank =  0   Radius =  0.650 angstrom
                   Q00  =  -0.685215

H          x = -0.762883  y = -2.081529  z = -0.251996 angstrom
           Maximum rank =  0   Radius =  0.325 angstrom
                   Q00  =   0.069561

H          x = -0.660883  y = -0.470529  z =  1.594004 angstrom
           Maximum rank =  0   Radius =  0.325 angstrom
                   Q00  =   0.068849

H          x = -0.511883  y = -2.536529  z = -2.561996 angstrom
           Maximum rank =  0   Radius =  0.325 angstrom
                   Q00  =   0.094281

H          x = -0.203883  y = -1.244529  z = -3.723996 angstrom
           Maximum rank =  0   Radius =  0.325 angstrom
                   Q00  =   0.096459

H          x = -0.694883  y =  1.196471  z = -3.026996 angstrom
           Maximum rank =  0   Radius =  0.325 angstrom
                   Q00  =   0.061173

H          x = -0.671883  y =  1.720471  z =  2.241004 angstrom
           Maximum rank =  0   Radius =  0.325 angstrom
                   Q00  =   0.408555

H          x = -0.709883  y =  2.806471  z = -1.164996 angstrom
           Maximum rank =  0   Radius =  0.325 angstrom
                   Q00  =   0.083063

H          x = -1.889273  y = -1.639029  z = -3.256474 angstrom
           Maximum rank =  0   Radius =  0.325 angstrom
                   Q00  =   0.099802

Total multipoles referred to origin at
           x =   0.000000,  y =    0.000000,  z =    0.000000 angstrom
                   Q00  =  -0.000000

Finished at 8:53:43 on 28 Apr 2020

  DMA results are available in the Python driver through the
	  variable('DMA DISTRIBUTED MULTIPOLES')
  and
	  variable('DMA TOTAL MULTIPOLES')
  commands.

    Psi4 stopped on: Tuesday, 28 April 2020 08:53AM
    Psi4 wall time for execution: 0:02:03.24

*** Psi4 exiting successfully. Buy a developer a beer!
