                               Psi4 1.3.2 release

  ==> Input File <==

--------------------------------------------------------------------------
import numpy as np
set {scf_type pk
basis cc-pvdz
d_convergence 10
gdma_switch   0
gdma_limit    0
gdma_origin   [ 0.0,  0.0,  0.0 ]
}
molecule test {
    units Angstrom
    0 1
    --
    0 1
    C                3.447095935409330    -0.915883892432822     1.276892984254451
    C                4.420095935409329    -2.081883892432822     1.347892984254451
    H                2.441095935409329    -1.294883892432822     1.435892984254451
    H                3.676095935409329    -0.186883892432822     2.051892984254451
    H                3.509095935409329    -0.436883892432822     0.300892984254451
    H                4.282095935409330    -2.584883892432822     2.304892984254451
    H                4.206065935409329    -2.778933892432822     0.524302984254451
    H                5.442885935409330    -1.682003892432822     1.284682984254451
    C               -2.793904064590671     1.162116107567178    -2.218107015745549
    C               -0.126904064590671    -0.023883892432822     0.935892984254451
    C               -1.485904064590670    -0.204883892432822     1.086892984254451
    C                0.357095935409329     0.547116107567178    -0.236107015745549
    C               -2.351904064590671     0.184116107567178     0.040892984254451
    C               -0.506904064590671     0.908116107567178    -1.251107015745549
    C               -1.887904064590670     0.769116107567178    -1.131107015745549
    H                0.542095935409330    -0.300883892432822     1.735892984254451
    H               -1.882904064590671    -0.644883892432822     1.991892984254451
    H                1.420095935409329     0.698116107567178    -0.359107015745549
    H               -3.415904064590670     0.030116107567178     0.163892984254451
    H               -0.094904064590671     1.340116107567178    -2.153107015745549
    H               -3.504904064590671     0.356116107567178    -2.402107015745548
    H               -2.212904064590671     1.303116107567178    -3.129107015745549
    H               -3.344937064590670     2.086176107567178    -1.989037015745549

}
e, wfn = energy('scf', return_wfn=True)
gdma(wfn)
dmavals = variable('DMA DISTRIBUTED MULTIPOLES')
charges = np.array(dmavals)
print(charges)
np.save('SSI-017LEU-056PHE-1-dimer.npy', np.array(charges))--------------------------------------------------------------------------

*** tstart() called on ds3
*** at Sun Apr 26 20:04:38 2020

   => Loading Basis Set <=

    Name: CC-PVDZ
    Role: ORBITAL
    Keyword: BASIS
    atoms 1-2, 9-15  entry C          line   138 file /theoryfs2/ds/metcalf/miniconda2/envs/tf2gpu/share/psi4/basis/cc-pvdz.gbs
    atoms 3-8, 16-23 entry H          line    22 file /theoryfs2/ds/metcalf/miniconda2/envs/tf2gpu/share/psi4/basis/cc-pvdz.gbs

         ---------------------------------------------------------
                                   SCF
               by Justin Turney, Rob Parrish, Andy Simmonett
                          and Daniel G. A. Smith
                              RHF Reference
                        1 Threads,    500 MiB Core
         ---------------------------------------------------------

  ==> Geometry <==

    Molecular point group: c1
    Full point group: C1

    Geometry (in Angstrom), charge = 0, multiplicity = 1:

       Center              X                  Y                   Z               Mass
    ------------   -----------------  -----------------  -----------------  -----------------
         C            3.447095935409    -0.915883892433     1.276892984254    12.000000000000
         C            4.420095935409    -2.081883892433     1.347892984254    12.000000000000
         H            2.441095935409    -1.294883892433     1.435892984254     1.007825032230
         H            3.676095935409    -0.186883892433     2.051892984254     1.007825032230
         H            3.509095935409    -0.436883892433     0.300892984254     1.007825032230
         H            4.282095935409    -2.584883892433     2.304892984254     1.007825032230
         H            4.206065935409    -2.778933892433     0.524302984254     1.007825032230
         H            5.442885935409    -1.682003892433     1.284682984254     1.007825032230
         C           -2.793904064591     1.162116107567    -2.218107015746    12.000000000000
         C           -0.126904064591    -0.023883892433     0.935892984254    12.000000000000
         C           -1.485904064591    -0.204883892433     1.086892984254    12.000000000000
         C            0.357095935409     0.547116107567    -0.236107015746    12.000000000000
         C           -2.351904064591     0.184116107567     0.040892984254    12.000000000000
         C           -0.506904064591     0.908116107567    -1.251107015746    12.000000000000
         C           -1.887904064591     0.769116107567    -1.131107015746    12.000000000000
         H            0.542095935409    -0.300883892433     1.735892984254     1.007825032230
         H           -1.882904064591    -0.644883892433     1.991892984254     1.007825032230
         H            1.420095935409     0.698116107567    -0.359107015746     1.007825032230
         H           -3.415904064591     0.030116107567     0.163892984254     1.007825032230
         H           -0.094904064591     1.340116107567    -2.153107015746     1.007825032230
         H           -3.504904064591     0.356116107567    -2.402107015746     1.007825032230
         H           -2.212904064591     1.303116107567    -3.129107015746     1.007825032230
         H           -3.344937064591     2.086176107567    -1.989037015746     1.007825032230

  Running in c1 symmetry.

  Rotational constants: A =      0.12867  B =      0.01725  C =      0.01576 [cm^-1]
  Rotational constants: A =   3857.43518  B =    517.21740  C =    472.46767 [MHz]
  Nuclear repulsion =  398.079797520398188

  Charge       = 0
  Multiplicity = 1
  Electrons    = 68
  Nalpha       = 34
  Nbeta        = 34

  ==> Algorithm <==

  SCF Algorithm Type is PK.
  DIIS enabled.
  MOM disabled.
  Fractional occupation disabled.
  Guess Type is SAD.
  Energy threshold   = 1.00e-06
  Density threshold  = 1.00e-10
  Integral threshold = 0.00e+00

  ==> Primary Basis <==

  Basis Set: CC-PVDZ
    Blend: CC-PVDZ
    Number of shells: 96
    Number of basis function: 196
    Number of Cartesian functions: 205
    Spherical Harmonics?: true
    Max angular momentum: 2

  ==> Pre-Iterations <==

   -------------------------------------------------------
    Irrep   Nso     Nmo     Nalpha   Nbeta   Ndocc  Nsocc
   -------------------------------------------------------
     A        196     196       0       0       0       0
   -------------------------------------------------------
    Total     196     196      34      34      34       0
   -------------------------------------------------------

  ==> Integral Setup <==

  Using integral reordering PK algorithm.
  Sizing the integral batches needed.
  Building batch lookup table.
   Calculation information:
      Number of atoms:                  23
      Number of AO shells:              96
      Number of primitives:            268
      Number of atomic orbitals:       205
      Number of basis functions:       196

      Integral cutoff                 1.00e-12
      Number of threads:                 1

	Batch   1 pq = [       0,    9405] index = [             0,44231715] size =     44231715
	Batch   2 pq = [    9405,   13301] index = [      44231715,88464951] size =     44233236
	Batch   3 pq = [   13301,   16290] index = [      88464951,132690195] size =     44225244
	Batch   4 pq = [   16290,   18810] index = [     132690195,176917455] size =     44227260
	Batch   5 pq = [   18810,   19306] index = [     176917455,186370471] size =      9453016
  Task number: 17
  Buffer size: 11059200
  Buffer per thread: 2
  We computed 8169254 shell quartets total.
  Whereas there are 10841496 unique shell quartets.

  ==> DiskJK: Disk-Based J/K Matrices <==

    J tasked:                  Yes
    K tasked:                  Yes
    wK tasked:                  No
    Memory [MiB]:              375
    Schwarz Cutoff:          1E-12

    OpenMP threads:              1

  Minimum eigenvalue in the overlap matrix is 2.9774583944E-04.
  Using Symmetric Orthogonalization.

  SCF Guess: Superposition of Atomic Densities via on-the-fly atomic UHF.

  ==> Iterations <==

                        Total Energy        Delta E     RMS |[F,P]|

   @RHF iter SAD:  -347.98861399180913   -3.47989e+02   0.00000e+00
   @RHF iter   1:  -348.75958278238647   -7.70969e-01   2.92554e-03 DIIS
   @RHF iter   2:  -348.95565107378764   -1.96068e-01   1.21955e-03 DIIS
   @RHF iter   3:  -348.98674117183378   -3.10901e-02   2.63312e-04 DIIS
   @RHF iter   4:  -348.98927381941445   -2.53265e-03   5.91426e-05 DIIS
   @RHF iter   5:  -348.98936205200289   -8.82326e-05   2.05088e-05 DIIS
   @RHF iter   6:  -348.98937237911207   -1.03271e-05   5.16514e-06 DIIS
   @RHF iter   7:  -348.98937319784204   -8.18730e-07   1.30915e-06 DIIS
   @RHF iter   8:  -348.98937327322852   -7.53865e-08   4.32828e-07 DIIS
   @RHF iter   9:  -348.98937329109930   -1.78708e-08   2.22975e-07 DIIS
   @RHF iter  10:  -348.98937329598323   -4.88393e-09   1.01349e-07 DIIS
   @RHF iter  11:  -348.98937329729762   -1.31439e-09   3.52872e-08 DIIS
   @RHF iter  12:  -348.98937329738919   -9.15747e-11   1.51856e-08 DIIS
   @RHF iter  13:  -348.98937329740221   -1.30171e-11   4.42669e-09 DIIS
   @RHF iter  14:  -348.98937329740085    1.36424e-12   1.20485e-09 DIIS
   @RHF iter  15:  -348.98937329740261   -1.76215e-12   5.92469e-10 DIIS
   @RHF iter  16:  -348.98937329740181    7.95808e-13   2.82343e-10 DIIS
   @RHF iter  17:  -348.98937329740136    4.54747e-13   1.01922e-10 DIIS
   @RHF iter  18:  -348.98937329740284   -1.47793e-12   4.24394e-11 DIIS
  Energy and wave function converged.

  ==> Post-Iterations <==

    Orbital Energies [Eh]
    ---------------------

    Doubly Occupied:

       1A    -11.236393     2A    -11.234443     3A    -11.230700
       4A    -11.229430     5A    -11.227453     6A    -11.227437
       7A    -11.226858     8A    -11.219118     9A    -11.215924
      10A     -1.153452    11A     -1.051224    12A     -1.022833
      13A     -1.007053    14A     -0.933768    15A     -0.835933
      16A     -0.823446    17A     -0.793598    18A     -0.690153
      19A     -0.632553    20A     -0.629193    21A     -0.603413
      22A     -0.602137    23A     -0.580508    24A     -0.576193
      25A     -0.567633    26A     -0.534566    27A     -0.498663
      28A     -0.492044    29A     -0.488558    30A     -0.485162
      31A     -0.480369    32A     -0.477188    33A     -0.328822
      34A     -0.321420

    Virtual:

      35A      0.136956    36A      0.142849    37A      0.178708
      38A      0.191643    39A      0.207205    40A      0.215536
      41A      0.237290    42A      0.240702    43A      0.254993
      44A      0.259815    45A      0.271579    46A      0.278030
      47A      0.286142    48A      0.289295    49A      0.323361
      50A      0.331776    51A      0.373649    52A      0.377868
      53A      0.395087    54A      0.461869    55A      0.465111
      56A      0.484614    57A      0.498946    58A      0.565170
      59A      0.595635    60A      0.601511    61A      0.606220
      62A      0.633370    63A      0.649953    64A      0.662653
      65A      0.676244    66A      0.694316    67A      0.703373
      68A      0.719208    69A      0.727158    70A      0.740862
      71A      0.747296    72A      0.751358    73A      0.762095
      74A      0.765509    75A      0.780006    76A      0.807297
      77A      0.843177    78A      0.854793    79A      0.863931
      80A      0.876956    81A      0.880897    82A      0.888869
      83A      0.892890    84A      0.894939    85A      0.901809
      86A      0.912255    87A      0.913493    88A      0.920352
      89A      0.927727    90A      0.936889    91A      0.941069
      92A      0.963467    93A      0.990798    94A      0.998660
      95A      1.026832    96A      1.055267    97A      1.116501
      98A      1.120666    99A      1.141173   100A      1.157775
     101A      1.161391   102A      1.186276   103A      1.197611
     104A      1.232574   105A      1.244127   106A      1.256493
     107A      1.258374   108A      1.279451   109A      1.309354
     110A      1.312871   111A      1.328730   112A      1.330852
     113A      1.421631   114A      1.483987   115A      1.493158
     116A      1.520692   117A      1.530174   118A      1.558977
     119A      1.590218   120A      1.616625   121A      1.669684
     122A      1.672102   123A      1.692010   124A      1.693699
     125A      1.730869   126A      1.747091   127A      1.766478
     128A      1.801161   129A      1.815551   130A      1.852473
     131A      1.865983   132A      1.868620   133A      1.893116
     134A      1.898421   135A      1.909583   136A      1.917717
     137A      1.925254   138A      1.938776   139A      1.941995
     140A      1.945336   141A      1.947043   142A      1.954676
     143A      1.966631   144A      1.969224   145A      1.978738
     146A      1.988088   147A      2.014249   148A      2.019945
     149A      2.042020   150A      2.066298   151A      2.081682
     152A      2.104458   153A      2.113454   154A      2.123567
     155A      2.146463   156A      2.173597   157A      2.177089
     158A      2.199344   159A      2.215667   160A      2.264179
     161A      2.277371   162A      2.297141   163A      2.299290
     164A      2.304507   165A      2.329326   166A      2.332581
     167A      2.351352   168A      2.457066   169A      2.468901
     170A      2.473579   171A      2.489101   172A      2.521720
     173A      2.541093   174A      2.573757   175A      2.587862
     176A      2.644185   177A      2.733254   178A      2.755319
     179A      2.766891   180A      2.772470   181A      2.795431
     182A      2.811481   183A      2.823331   184A      2.840218
     185A      2.844883   186A      2.855546   187A      2.876054
     188A      2.955878   189A      2.969285   190A      2.996162
     191A      3.019892   192A      3.029917   193A      3.174546
     194A      3.215727   195A      3.307218   196A      3.968870

    Final Occupation by Irrep:
              A
    DOCC [    34 ]

  @RHF Final Energy:  -348.98937329740284

   => Energetics <=

    Nuclear Repulsion Energy =            398.0797975203981878
    One-Electron Energy =               -1258.8230632653671819
    Two-Electron Energy =                 511.7538924475661588
    Total Energy =                       -348.9893732974028353

Computation Completed

Properties will be evaluated at   0.000000,   0.000000,   0.000000 [a0]

Properties computed using the SCF density matrix

  Nuclear Dipole Moment: [e a0]
     X:    10.3713      Y:    -3.8403      Z:     1.6516

  Electronic Dipole Moment: [e a0]
     X:   -10.4533      Y:     3.8660      Z:    -1.7408

  Dipole Moment: [e a0]
     X:    -0.0820      Y:     0.0257      Z:    -0.0892     Total:     0.1239

  Dipole Moment: [D]
     X:    -0.2085      Y:     0.0653      Z:    -0.2267     Total:     0.3149

*** tstop() called on ds3 at Sun Apr 26 20:06:00 2020
Module time:
	user time   =      56.21 seconds =       0.94 minutes
	system time =      28.94 seconds =       0.48 minutes
	total time  =         82 seconds =       1.37 minutes
Total time:
	user time   =      56.21 seconds =       0.94 minutes
	system time =      28.94 seconds =       0.48 minutes
	total time  =         82 seconds =       1.37 minutes
                                     G D M A

                                 by Anthony Stone

                           version 2.2.06, 22 June 2011

               Distributed Multipoles from Gaussian wavefunctions

Starting at 20:6:1 on 26 Apr 2020

Using SCF density matrix from file ./SSI/SSI-017LEU-056PHE-1-dimer.test.10894.fchk

                         Distributed Multipole Analysis

Standard DMA

Positions and radii in angstrom
Multipole moments in atomic units, ea_0^k for rank k

C          x =  3.447096  y = -0.915884  z =  1.276893 angstrom
           Maximum rank =  0   Radius =  0.650 angstrom
                   Q00  =  -0.246666

C          x =  4.420096  y = -2.081884  z =  1.347893 angstrom
           Maximum rank =  0   Radius =  0.650 angstrom
                   Q00  =  -0.222227

H          x =  2.441096  y = -1.294884  z =  1.435893 angstrom
           Maximum rank =  0   Radius =  0.325 angstrom
                   Q00  =   0.077035

H          x =  3.676096  y = -0.186884  z =  2.051893 angstrom
           Maximum rank =  0   Radius =  0.325 angstrom
                   Q00  =   0.078040

H          x =  3.509096  y = -0.436884  z =  0.300893 angstrom
           Maximum rank =  0   Radius =  0.325 angstrom
                   Q00  =   0.077793

H          x =  4.282096  y = -2.584884  z =  2.304893 angstrom
           Maximum rank =  0   Radius =  0.325 angstrom
                   Q00  =   0.078679

H          x =  4.206066  y = -2.778934  z =  0.524303 angstrom
           Maximum rank =  0   Radius =  0.325 angstrom
                   Q00  =   0.080481

H          x =  5.442886  y = -1.682004  z =  1.284683 angstrom
           Maximum rank =  0   Radius =  0.325 angstrom
                   Q00  =   0.076665

C          x = -2.793904  y =  1.162116  z = -2.218107 angstrom
           Maximum rank =  0   Radius =  0.650 angstrom
                   Q00  =  -0.205531

C          x = -0.126904  y = -0.023884  z =  0.935893 angstrom
           Maximum rank =  0   Radius =  0.650 angstrom
                   Q00  =  -0.098329

C          x = -1.485904  y = -0.204884  z =  1.086893 angstrom
           Maximum rank =  0   Radius =  0.650 angstrom
                   Q00  =  -0.069644

C          x =  0.357096  y =  0.547116  z = -0.236107 angstrom
           Maximum rank =  0   Radius =  0.650 angstrom
                   Q00  =  -0.064746

C          x = -2.351904  y =  0.184116  z =  0.040893 angstrom
           Maximum rank =  0   Radius =  0.650 angstrom
                   Q00  =  -0.024771

C          x = -0.506904  y =  0.908116  z = -1.251107 angstrom
           Maximum rank =  0   Radius =  0.650 angstrom
                   Q00  =  -0.051671

C          x = -1.887904  y =  0.769116  z = -1.131107 angstrom
           Maximum rank =  0   Radius =  0.650 angstrom
                   Q00  =  -0.083484

H          x =  0.542096  y = -0.300884  z =  1.735893 angstrom
           Maximum rank =  0   Radius =  0.325 angstrom
                   Q00  =   0.061210

H          x = -1.882904  y = -0.644884  z =  1.991893 angstrom
           Maximum rank =  0   Radius =  0.325 angstrom
                   Q00  =   0.065433

H          x =  1.420096  y =  0.698116  z = -0.359107 angstrom
           Maximum rank =  0   Radius =  0.325 angstrom
                   Q00  =   0.063491

H          x = -3.415904  y =  0.030116  z =  0.163893 angstrom
           Maximum rank =  0   Radius =  0.325 angstrom
                   Q00  =   0.052231

H          x = -0.094904  y =  1.340116  z = -2.153107 angstrom
           Maximum rank =  0   Radius =  0.325 angstrom
                   Q00  =   0.052170

H          x = -3.504904  y =  0.356116  z = -2.402107 angstrom
           Maximum rank =  0   Radius =  0.325 angstrom
                   Q00  =   0.100651

H          x = -2.212904  y =  1.303116  z = -3.129107 angstrom
           Maximum rank =  0   Radius =  0.325 angstrom
                   Q00  =   0.097588

H          x = -3.344937  y =  2.086176  z = -1.989037 angstrom
           Maximum rank =  0   Radius =  0.325 angstrom
                   Q00  =   0.105603

Total multipoles referred to origin at
           x =   0.000000,  y =    0.000000,  z =    0.000000 angstrom
                   Q00  =  -0.000000

Finished at 20:6:1 on 26 Apr 2020

  DMA results are available in the Python driver through the
	  variable('DMA DISTRIBUTED MULTIPOLES')
  and
	  variable('DMA TOTAL MULTIPOLES')
  commands.

    Psi4 stopped on: Sunday, 26 April 2020 08:06PM
    Psi4 wall time for execution: 0:01:22.40

*** Psi4 exiting successfully. Buy a developer a beer!
