                               Psi4 1.3.2 release

  ==> Input File <==

--------------------------------------------------------------------------
import numpy as np
set {scf_type pk
basis cc-pvdz
d_convergence 10
gdma_switch   0
gdma_limit    0
gdma_origin   [ 0.0,  0.0,  0.0 ]
}
molecule test {
    units Angstrom
    -1 1
    --
    -1 1
    C               -2.942330623695424    -0.307762884122908     2.208024891370215
    C               -1.092330623695424    -0.882762884122907     0.556024891370215
    C                0.189669376304576     0.939237115877093     0.530024891370215
    C               -1.703330623695424    -0.036762884122908     1.421024891370215
    C               -0.888330623695424     1.150237115877092     1.427024891370215
    C                1.151669376304576     1.896237115877093     0.285024891370215
    C                1.023669376304576     3.111237115877092     0.932024891370215
    C               -0.965330623695424     2.375237115877093     2.094024891370215
    C               -0.024330623695424     3.339237115877093     1.827024891370215
    N                0.032669376304576    -0.316762884122908     0.029024891370215
    H                0.580669376304576    -0.754762884122908    -0.716975108629785
    H               -1.454330623695424    -1.871762884122908     0.303024891370215
    H                1.963669376304576     1.703237115877092    -0.400975108629785
    H               -2.783330623695424     0.044237115877092     3.215024891370215
    H               -3.074330623695424    -1.389762884122908     2.274024891370216
    H                1.757669376304576     3.887237115877092     0.760024891370215
    H               -1.744330623695424     2.558237115877092     2.816024891370215
    H               -0.074330623695424     4.273237115877093     2.359024891370215
    H               -3.868283623695424     0.121303115877092     1.797524891370215
    C                1.420669376304576    -3.679762884122908    -3.219975108629785
    C                1.205669376304576    -2.351762884122907    -2.480975108629784
    O                0.044669376304576    -1.922762884122908    -2.402975108629785
    O                2.168669376304577    -1.744762884122907    -1.948975108629785
    H                0.453669376304576    -4.112762884122907    -3.476975108629785
    H                1.897669376304576    -4.401762884122907    -2.557975108629785
    H                2.015479376304576    -3.563119884122908    -4.137905108629784

}
e, wfn = energy('scf', return_wfn=True)
gdma(wfn)
dmavals = variable('DMA DISTRIBUTED MULTIPOLES')
charges = np.array(dmavals)
print(charges)
np.save('SSI-031TRP-060ASP-1-dimer.npy', np.array(charges))--------------------------------------------------------------------------

*** tstart() called on ds3
*** at Tue Apr 28 11:34:31 2020

   => Loading Basis Set <=

    Name: CC-PVDZ
    Role: ORBITAL
    Keyword: BASIS
    atoms 1-9, 20-21   entry C          line   138 file /theoryfs2/ds/metcalf/miniconda2/envs/tf2gpu/share/psi4/basis/cc-pvdz.gbs
    atoms 10           entry N          line   168 file /theoryfs2/ds/metcalf/miniconda2/envs/tf2gpu/share/psi4/basis/cc-pvdz.gbs
    atoms 11-19, 24-26 entry H          line    22 file /theoryfs2/ds/metcalf/miniconda2/envs/tf2gpu/share/psi4/basis/cc-pvdz.gbs
    atoms 22-23        entry O          line   198 file /theoryfs2/ds/metcalf/miniconda2/envs/tf2gpu/share/psi4/basis/cc-pvdz.gbs

         ---------------------------------------------------------
                                   SCF
               by Justin Turney, Rob Parrish, Andy Simmonett
                          and Daniel G. A. Smith
                              RHF Reference
                        1 Threads,    500 MiB Core
         ---------------------------------------------------------

  ==> Geometry <==

    Molecular point group: c1
    Full point group: C1

    Geometry (in Angstrom), charge = -1, multiplicity = 1:

       Center              X                  Y                   Z               Mass
    ------------   -----------------  -----------------  -----------------  -----------------
         C           -2.942330623695    -0.307762884123     2.208024891370    12.000000000000
         C           -1.092330623695    -0.882762884123     0.556024891370    12.000000000000
         C            0.189669376305     0.939237115877     0.530024891370    12.000000000000
         C           -1.703330623695    -0.036762884123     1.421024891370    12.000000000000
         C           -0.888330623695     1.150237115877     1.427024891370    12.000000000000
         C            1.151669376305     1.896237115877     0.285024891370    12.000000000000
         C            1.023669376305     3.111237115877     0.932024891370    12.000000000000
         C           -0.965330623695     2.375237115877     2.094024891370    12.000000000000
         C           -0.024330623695     3.339237115877     1.827024891370    12.000000000000
         N            0.032669376305    -0.316762884123     0.029024891370    14.003074004430
         H            0.580669376305    -0.754762884123    -0.716975108630     1.007825032230
         H           -1.454330623695    -1.871762884123     0.303024891370     1.007825032230
         H            1.963669376305     1.703237115877    -0.400975108630     1.007825032230
         H           -2.783330623695     0.044237115877     3.215024891370     1.007825032230
         H           -3.074330623695    -1.389762884123     2.274024891370     1.007825032230
         H            1.757669376305     3.887237115877     0.760024891370     1.007825032230
         H           -1.744330623695     2.558237115877     2.816024891370     1.007825032230
         H           -0.074330623695     4.273237115877     2.359024891370     1.007825032230
         H           -3.868283623695     0.121303115877     1.797524891370     1.007825032230
         C            1.420669376305    -3.679762884123    -3.219975108630    12.000000000000
         C            1.205669376305    -2.351762884123    -2.480975108630    12.000000000000
         O            0.044669376305    -1.922762884123    -2.402975108630    15.994914619570
         O            2.168669376305    -1.744762884123    -1.948975108630    15.994914619570
         H            0.453669376305    -4.112762884123    -3.476975108630     1.007825032230
         H            1.897669376305    -4.401762884123    -2.557975108630     1.007825032230
         H            2.015479376305    -3.563119884123    -4.137905108630     1.007825032230

  Running in c1 symmetry.

  Rotational constants: A =      0.03967  B =      0.01168  C =      0.00924 [cm^-1]
  Rotational constants: A =   1189.16697  B =    350.12605  C =    276.98222 [MHz]
  Nuclear repulsion =  814.719149108883130

  Charge       = -1
  Multiplicity = 1
  Electrons    = 102
  Nalpha       = 51
  Nbeta        = 51

  ==> Algorithm <==

  SCF Algorithm Type is PK.
  DIIS enabled.
  MOM disabled.
  Fractional occupation disabled.
  Guess Type is SAD.
  Energy threshold   = 1.00e-06
  Density threshold  = 1.00e-10
  Integral threshold = 0.00e+00

  ==> Primary Basis <==

  Basis Set: CC-PVDZ
    Blend: CC-PVDZ
    Number of shells: 120
    Number of basis function: 256
    Number of Cartesian functions: 270
    Spherical Harmonics?: true
    Max angular momentum: 2

  ==> Pre-Iterations <==

   -------------------------------------------------------
    Irrep   Nso     Nmo     Nalpha   Nbeta   Ndocc  Nsocc
   -------------------------------------------------------
     A        256     256       0       0       0       0
   -------------------------------------------------------
    Total     256     256      51      51      51       0
   -------------------------------------------------------

  ==> Integral Setup <==

  Using integral reordering PK algorithm.
  Sizing the integral batches needed.
  Building batch lookup table.
   Calculation information:
      Number of atoms:                  26
      Number of AO shells:             120
      Number of primitives:            368
      Number of atomic orbitals:       270
      Number of basis functions:       256

      Integral cutoff                 1.00e-12
      Number of threads:                 1

	Batch   1 pq = [       0,    9405] index = [             0,44231715] size =     44231715
	Batch   2 pq = [    9405,   13301] index = [      44231715,88464951] size =     44233236
	Batch   3 pq = [   13301,   16290] index = [      88464951,132690195] size =     44225244
	Batch   4 pq = [   16290,   18810] index = [     132690195,176917455] size =     44227260
	Batch   5 pq = [   18810,   21030] index = [     176917455,221140965] size =     44223510
	Batch   6 pq = [   21030,   23037] index = [     221140965,265363203] size =     44222238
	Batch   7 pq = [   23037,   24883] index = [     265363203,309594286] size =     44231083
	Batch   8 pq = [   24883,   26601] index = [     309594286,353819901] size =     44225615
	Batch   9 pq = [   26601,   28214] index = [     353819901,398029005] size =     44209104
	Batch  10 pq = [   28214,   29740] index = [     398029005,442248670] size =     44219665
	Batch  11 pq = [   29740,   31191] index = [     442248670,486454836] size =     44206166
	Batch  12 pq = [   31191,   32578] index = [     486454836,530679331] size =     44224495
	Batch  13 pq = [   32578,   32896] index = [     530679331,541089856] size =     10410525
  Task number: 49
  Buffer size: 11059200
  Buffer per thread: 2
  We computed 22091759 shell quartets total.
  Whereas there are 26357430 unique shell quartets.

  ==> DiskJK: Disk-Based J/K Matrices <==

    J tasked:                  Yes
    K tasked:                  Yes
    wK tasked:                  No
    Memory [MiB]:              375
    Schwarz Cutoff:          1E-12

    OpenMP threads:              1

  Minimum eigenvalue in the overlap matrix is 2.2985034094E-04.
  Using Symmetric Orthogonalization.

  SCF Guess: Superposition of Atomic Densities via on-the-fly atomic UHF.

  ==> Iterations <==

                        Total Energy        Delta E     RMS |[F,P]|

   @RHF iter SAD:  -626.70800114401743   -6.26708e+02   0.00000e+00
   @RHF iter   1:  -627.44363168176767   -7.35631e-01   3.18364e-03 DIIS
   @RHF iter   2:  -627.73409630954177   -2.90465e-01   1.67624e-03 DIIS
   @RHF iter   3:  -627.80601176061759   -7.19155e-02   3.07690e-04 DIIS
   @RHF iter   4:  -627.81006420061044   -4.05244e-03   1.11136e-04 DIIS
   @RHF iter   5:  -627.81058108838624   -5.16888e-04   1.93796e-05 DIIS
   @RHF iter   6:  -627.81060339055261   -2.23022e-05   9.56558e-06 DIIS
   @RHF iter   7:  -627.81060814628563   -4.75573e-06   2.90628e-06 DIIS
   @RHF iter   8:  -627.81060908593508   -9.39649e-07   1.10060e-06 DIIS
   @RHF iter   9:  -627.81060925077520   -1.64840e-07   4.50789e-07 DIIS
   @RHF iter  10:  -627.81060927507826   -2.43031e-08   1.60683e-07 DIIS
   @RHF iter  11:  -627.81060927953263   -4.45436e-09   6.96023e-08 DIIS
   @RHF iter  12:  -627.81060928037800   -8.45375e-10   3.63172e-08 DIIS
   @RHF iter  13:  -627.81060928063641   -2.58410e-10   1.43203e-08 DIIS
   @RHF iter  14:  -627.81060928066609   -2.96723e-11   3.99323e-09 DIIS
   @RHF iter  15:  -627.81060928066734   -1.25056e-12   1.28978e-09 DIIS
   @RHF iter  16:  -627.81060928067359   -6.25278e-12   6.27544e-10 DIIS
   @RHF iter  17:  -627.81060928067075    2.84217e-12   3.21367e-10 DIIS
   @RHF iter  18:  -627.81060928066972    1.02318e-12   1.29816e-10 DIIS
   @RHF iter  19:  -627.81060928067279   -3.06954e-12   5.99365e-11 DIIS
  Energy and wave function converged.

  ==> Post-Iterations <==

    Orbital Energies [Eh]
    ---------------------

    Doubly Occupied:

       1A    -20.295923     2A    -20.292321     3A    -15.451440
       4A    -11.148857     5A    -11.136646     6A    -11.136614
       7A    -11.126214     8A    -11.118106     9A    -11.117229
      10A    -11.112521    11A    -11.111028    12A    -11.103251
      13A    -11.092135    14A    -11.075462    15A     -1.189400
      16A     -1.162731    17A     -1.069566    18A     -1.017575
      19A     -0.955619    20A     -0.888723    21A     -0.872268
      22A     -0.820135    23A     -0.816210    24A     -0.721223
      25A     -0.686311    26A     -0.635166    27A     -0.591479
      28A     -0.543823    29A     -0.531087    30A     -0.528735
      31A     -0.489918    32A     -0.479464    33A     -0.472811
      34A     -0.452429    35A     -0.439342    36A     -0.437994
      37A     -0.436685    38A     -0.429746    39A     -0.426140
      40A     -0.417203    41A     -0.381890    42A     -0.369528
      43A     -0.358280    44A     -0.346693    45A     -0.339822
      46A     -0.258392    47A     -0.218586    48A     -0.205439
      49A     -0.196140    50A     -0.175371    51A     -0.156504

    Virtual:

      52A      0.243504    53A      0.281646    54A      0.284609
      55A      0.300922    56A      0.325854    57A      0.333030
      58A      0.335086    59A      0.346096    60A      0.367762
      61A      0.370096    62A      0.376496    63A      0.384256
      64A      0.396329    65A      0.401335    66A      0.452898
      67A      0.477757    68A      0.487352    69A      0.499306
      70A      0.533485    71A      0.545502    72A      0.555510
      73A      0.562883    74A      0.586150    75A      0.600892
      76A      0.626997    77A      0.631392    78A      0.688567
      79A      0.709137    80A      0.724564    81A      0.744119
      82A      0.749949    83A      0.761460    84A      0.789962
      85A      0.799361    86A      0.810027    87A      0.813728
      88A      0.830349    89A      0.832721    90A      0.843378
      91A      0.848198    92A      0.850947    93A      0.854409
      94A      0.858374    95A      0.878531    96A      0.882978
      97A      0.898251    98A      0.910573    99A      0.927266
     100A      0.939473   101A      0.947776   102A      0.960280
     103A      0.963016   104A      0.976436   105A      0.977697
     106A      0.999249   107A      1.006415   108A      1.010919
     109A      1.011965   110A      1.015232   111A      1.025701
     112A      1.047346   113A      1.048738   114A      1.065779
     115A      1.086797   116A      1.097467   117A      1.099701
     118A      1.107801   119A      1.138573   120A      1.167078
     121A      1.178395   122A      1.198890   123A      1.207928
     124A      1.213611   125A      1.244468   126A      1.257121
     127A      1.271731   128A      1.277443   129A      1.282903
     130A      1.317608   131A      1.320783   132A      1.330218
     133A      1.343706   134A      1.347740   135A      1.361303
     136A      1.363842   137A      1.394868   138A      1.408292
     139A      1.427431   140A      1.434232   141A      1.446210
     142A      1.456601   143A      1.478870   144A      1.489529
     145A      1.518793   146A      1.520076   147A      1.553339
     148A      1.562111   149A      1.592362   150A      1.624769
     151A      1.630818   152A      1.649476   153A      1.679622
     154A      1.687558   155A      1.704852   156A      1.722801
     157A      1.739514   158A      1.748778   159A      1.765860
     160A      1.780210   161A      1.800697   162A      1.818451
     163A      1.824890   164A      1.828437   165A      1.868398
     166A      1.879592   167A      1.907782   168A      1.923959
     169A      1.929773   170A      1.944702   171A      1.963424
     172A      2.002529   173A      2.011238   174A      2.021991
     175A      2.030006   176A      2.033855   177A      2.040669
     178A      2.052638   179A      2.056017   180A      2.059054
     181A      2.063324   182A      2.066607   183A      2.091423
     184A      2.100076   185A      2.118780   186A      2.146396
     187A      2.149934   188A      2.173425   189A      2.194187
     190A      2.200451   191A      2.213933   192A      2.219368
     193A      2.233683   194A      2.244491   195A      2.259553
     196A      2.267334   197A      2.273686   198A      2.278299
     199A      2.283183   200A      2.297931   201A      2.301228
     202A      2.357595   203A      2.374318   204A      2.377771
     205A      2.405406   206A      2.425573   207A      2.436811
     208A      2.446004   209A      2.450399   210A      2.473023
     211A      2.513835   212A      2.529908   213A      2.542437
     214A      2.577730   215A      2.584351   216A      2.621862
     217A      2.688140   218A      2.693277   219A      2.735992
     220A      2.738661   221A      2.757791   222A      2.765102
     223A      2.791798   224A      2.817408   225A      2.842437
     226A      2.878755   227A      2.884631   228A      2.893789
     229A      2.921437   230A      2.930961   231A      2.939527
     232A      2.971124   233A      2.984100   234A      2.998736
     235A      3.012649   236A      3.054707   237A      3.106447
     238A      3.143725   239A      3.196400   240A      3.202179
     241A      3.215508   242A      3.248162   243A      3.262313
     244A      3.275696   245A      3.339828   246A      3.345617
     247A      3.434997   248A      3.535344   249A      3.614519
     250A      3.740519   251A      3.789373   252A      3.884233
     253A      4.039535   254A      4.056655   255A      4.094796
     256A      4.189171

    Final Occupation by Irrep:
              A
    DOCC [    51 ]

  @RHF Final Energy:  -627.81060928067279

   => Energetics <=

    Nuclear Repulsion Energy =            814.7191491088831299
    One-Electron Energy =               -2487.3871657195309126
    Two-Electron Energy =                1044.8574073299748761
    Total Energy =                       -627.8106092806729066

Computation Completed

Properties will be evaluated at   0.000000,   0.000000,   0.000000 [a0]

Properties computed using the SCF density matrix

  Nuclear Dipole Moment: [e a0]
     X:    -4.0488      Y:    -3.3039      Z:     2.0732

  Electronic Dipole Moment: [e a0]
     X:     2.6771      Y:     4.7030      Z:     0.2403

  Dipole Moment: [e a0]
     X:    -1.3717      Y:     1.3991      Z:     2.3135     Total:     3.0317

  Dipole Moment: [D]
     X:    -3.4866      Y:     3.5561      Z:     5.8804     Total:     7.7059

*** tstop() called on ds3 at Tue Apr 28 11:39:48 2020
Module time:
	user time   =     207.20 seconds =       3.45 minutes
	system time =      80.88 seconds =       1.35 minutes
	total time  =        317 seconds =       5.28 minutes
Total time:
	user time   =     207.20 seconds =       3.45 minutes
	system time =      80.88 seconds =       1.35 minutes
	total time  =        317 seconds =       5.28 minutes
                                     G D M A

                                 by Anthony Stone

                           version 2.2.06, 22 June 2011

               Distributed Multipoles from Gaussian wavefunctions

Starting at 11:39:48 on 28 Apr 2020

Using SCF density matrix from file ./SSI/SSI-031TRP-060ASP-1-dimer.test.31193.fchk

                         Distributed Multipole Analysis

Standard DMA

Positions and radii in angstrom
Multipole moments in atomic units, ea_0^k for rank k

C          x = -2.942331  y = -0.307763  z =  2.208025 angstrom
           Maximum rank =  0   Radius =  0.650 angstrom
                   Q00  =  -0.199840

C          x = -1.092331  y = -0.882763  z =  0.556025 angstrom
           Maximum rank =  0   Radius =  0.650 angstrom
                   Q00  =   0.189139

C          x =  0.189669  y =  0.939237  z =  0.530025 angstrom
           Maximum rank =  0   Radius =  0.650 angstrom
                   Q00  =   0.320964

C          x = -1.703331  y = -0.036763  z =  1.421025 angstrom
           Maximum rank =  0   Radius =  0.650 angstrom
                   Q00  =  -0.196186

C          x = -0.888331  y =  1.150237  z =  1.427025 angstrom
           Maximum rank =  0   Radius =  0.650 angstrom
                   Q00  =  -0.073963

C          x =  1.151669  y =  1.896237  z =  0.285025 angstrom
           Maximum rank =  0   Radius =  0.650 angstrom
                   Q00  =  -0.119194

C          x =  1.023669  y =  3.111237  z =  0.932025 angstrom
           Maximum rank =  0   Radius =  0.650 angstrom
                   Q00  =  -0.092871

C          x = -0.965331  y =  2.375237  z =  2.094025 angstrom
           Maximum rank =  0   Radius =  0.650 angstrom
                   Q00  =  -0.100401

C          x = -0.024331  y =  3.339237  z =  1.827025 angstrom
           Maximum rank =  0   Radius =  0.650 angstrom
                   Q00  =  -0.065378

N          x =  0.032669  y = -0.316763  z =  0.029025 angstrom
           Maximum rank =  0   Radius =  0.650 angstrom
                   Q00  =  -0.504139

H          x =  0.580669  y = -0.754763  z = -0.716975 angstrom
           Maximum rank =  0   Radius =  0.325 angstrom
                   Q00  =   0.279338

H          x = -1.454331  y = -1.871763  z =  0.303025 angstrom
           Maximum rank =  0   Radius =  0.325 angstrom
                   Q00  =   0.080885

H          x =  1.963669  y =  1.703237  z = -0.400975 angstrom
           Maximum rank =  0   Radius =  0.325 angstrom
                   Q00  =   0.090223

H          x = -2.783331  y =  0.044237  z =  3.215025 angstrom
           Maximum rank =  0   Radius =  0.325 angstrom
                   Q00  =   0.083440

H          x = -3.074331  y = -1.389763  z =  2.274025 angstrom
           Maximum rank =  0   Radius =  0.325 angstrom
                   Q00  =   0.090334

H          x =  1.757669  y =  3.887237  z =  0.760025 angstrom
           Maximum rank =  0   Radius =  0.325 angstrom
                   Q00  =   0.036520

H          x = -1.744331  y =  2.558237  z =  2.816025 angstrom
           Maximum rank =  0   Radius =  0.325 angstrom
                   Q00  =   0.039182

H          x = -0.074331  y =  4.273237  z =  2.359025 angstrom
           Maximum rank =  0   Radius =  0.325 angstrom
                   Q00  =   0.024977

H          x = -3.868284  y =  0.121303  z =  1.797525 angstrom
           Maximum rank =  0   Radius =  0.325 angstrom
                   Q00  =   0.077413

C          x =  1.420669  y = -3.679763  z = -3.219975 angstrom
           Maximum rank =  0   Radius =  0.650 angstrom
                   Q00  =  -0.260827

C          x =  1.205669  y = -2.351763  z = -2.480975 angstrom
           Maximum rank =  0   Radius =  0.650 angstrom
                   Q00  =   0.899025

O          x =  0.044669  y = -1.922763  z = -2.402975 angstrom
           Maximum rank =  0   Radius =  0.650 angstrom
                   Q00  =  -0.894374

O          x =  2.168669  y = -1.744763  z = -1.948975 angstrom
           Maximum rank =  0   Radius =  0.650 angstrom
                   Q00  =  -0.916906

H          x =  0.453669  y = -4.112763  z = -3.476975 angstrom
           Maximum rank =  0   Radius =  0.325 angstrom
                   Q00  =   0.060472

H          x =  1.897669  y = -4.401763  z = -2.557975 angstrom
           Maximum rank =  0   Radius =  0.325 angstrom
                   Q00  =   0.072449

H          x =  2.015479  y = -3.563120  z = -4.137905 angstrom
           Maximum rank =  0   Radius =  0.325 angstrom
                   Q00  =   0.079718

Total multipoles referred to origin at
           x =   0.000000,  y =    0.000000,  z =    0.000000 angstrom
                   Q00  =  -1.000000

Finished at 11:39:48 on 28 Apr 2020

  DMA results are available in the Python driver through the
	  variable('DMA DISTRIBUTED MULTIPOLES')
  and
	  variable('DMA TOTAL MULTIPOLES')
  commands.

    Psi4 stopped on: Tuesday, 28 April 2020 11:39AM
    Psi4 wall time for execution: 0:05:17.21

*** Psi4 exiting successfully. Buy a developer a beer!
