                               Psi4 1.3.2 release

  ==> Input File <==

--------------------------------------------------------------------------
import numpy as np
set {scf_type pk
basis cc-pvdz
d_convergence 10
gdma_switch   0
gdma_limit    0
gdma_origin   [ 0.0,  0.0,  0.0 ]
}
molecule test {
    units Angstrom
    0 1
    --
    0 1
    C               -1.251942707399562    -2.000067416952315    -2.765531675201361
    C               -1.773942707399562    -2.198067416952315    -4.202531675201360
    O                0.180057292600438    -1.904067416952316    -2.742531675201361
    H               -1.679942707399562    -1.079067416952315    -2.363531675201361
    H               -1.575942707399562    -2.841067416952315    -2.149531675201361
    H               -2.833942707399562    -2.005067416952316    -4.224531675201360
    H                0.482057292600438    -1.791067416952316    -1.842531675201361
    H               -1.604822707399562    -3.221867416952315    -4.567431675201360
    H               -1.331282707399562    -1.455667416952315    -4.882921675201360
    C                0.092057292600438    -0.797067416952315     0.238468324798639
    C                1.286057292600438    -1.786067416952315     0.344468324798639
    C                0.222057292600438     0.488932583047685     1.050468324798639
    C                0.948057292600438     1.589932583047684     0.565468324798640
    C               -0.432942707399562     0.604932583047685     2.276468324798639
    C                0.999057292600438     2.793932583047684     1.317468324798639
    C               -0.381942707399562     1.787932583047685     3.024468324798639
    C                0.325057292600438     2.873932583047685     2.550468324798639
    H               -0.075942707399562    -0.497067416952315    -0.793531675201361
    H               -0.797942707399562    -1.319067416952315     0.597468324798639
    H                1.151057292600438    -2.588067416952315    -0.383531675201361
    H                1.462057292600438     1.512932583047685    -0.384531675201361
    H               -0.991942707399562    -0.242067416952315     2.650468324798640
    H                1.540057292600438     3.657932583047685     0.959468324798639
    H               -0.891942707399562     1.862932583047685     3.973468324798640
    H                0.352057292600438     3.782932583047685     3.134468324798640
    H                1.317817292600438    -2.216367416952315     1.356318324798639
    H                2.245027292600438    -1.328367416952315     0.060108324798639

}
e, wfn = energy('scf', return_wfn=True)
gdma(wfn)
dmavals = variable('DMA DISTRIBUTED MULTIPOLES')
charges = np.array(dmavals)
print(charges)
np.save('SSI-106SER-128PHE-1-dimer.npy', np.array(charges))--------------------------------------------------------------------------

*** tstart() called on ds3
*** at Tue Apr 28 03:08:34 2020

   => Loading Basis Set <=

    Name: CC-PVDZ
    Role: ORBITAL
    Keyword: BASIS
    atoms 1-2, 10-17 entry C          line   138 file /theoryfs2/ds/metcalf/miniconda2/envs/tf2gpu/share/psi4/basis/cc-pvdz.gbs
    atoms 3          entry O          line   198 file /theoryfs2/ds/metcalf/miniconda2/envs/tf2gpu/share/psi4/basis/cc-pvdz.gbs
    atoms 4-9, 18-27 entry H          line    22 file /theoryfs2/ds/metcalf/miniconda2/envs/tf2gpu/share/psi4/basis/cc-pvdz.gbs

         ---------------------------------------------------------
                                   SCF
               by Justin Turney, Rob Parrish, Andy Simmonett
                          and Daniel G. A. Smith
                              RHF Reference
                        1 Threads,    500 MiB Core
         ---------------------------------------------------------

  ==> Geometry <==

    Molecular point group: c1
    Full point group: C1

    Geometry (in Angstrom), charge = 0, multiplicity = 1:

       Center              X                  Y                   Z               Mass
    ------------   -----------------  -----------------  -----------------  -----------------
         C           -1.251942707400    -2.000067416952    -2.765531675201    12.000000000000
         C           -1.773942707400    -2.198067416952    -4.202531675201    12.000000000000
         O            0.180057292600    -1.904067416952    -2.742531675201    15.994914619570
         H           -1.679942707400    -1.079067416952    -2.363531675201     1.007825032230
         H           -1.575942707400    -2.841067416952    -2.149531675201     1.007825032230
         H           -2.833942707400    -2.005067416952    -4.224531675201     1.007825032230
         H            0.482057292600    -1.791067416952    -1.842531675201     1.007825032230
         H           -1.604822707400    -3.221867416952    -4.567431675201     1.007825032230
         H           -1.331282707400    -1.455667416952    -4.882921675201     1.007825032230
         C            0.092057292600    -0.797067416952     0.238468324799    12.000000000000
         C            1.286057292600    -1.786067416952     0.344468324799    12.000000000000
         C            0.222057292600     0.488932583048     1.050468324799    12.000000000000
         C            0.948057292600     1.589932583048     0.565468324799    12.000000000000
         C           -0.432942707400     0.604932583048     2.276468324799    12.000000000000
         C            0.999057292600     2.793932583048     1.317468324799    12.000000000000
         C           -0.381942707400     1.787932583048     3.024468324799    12.000000000000
         C            0.325057292600     2.873932583048     2.550468324799    12.000000000000
         H           -0.075942707400    -0.497067416952    -0.793531675201     1.007825032230
         H           -0.797942707400    -1.319067416952     0.597468324799     1.007825032230
         H            1.151057292600    -2.588067416952    -0.383531675201     1.007825032230
         H            1.462057292600     1.512932583048    -0.384531675201     1.007825032230
         H           -0.991942707400    -0.242067416952     2.650468324799     1.007825032230
         H            1.540057292600     3.657932583048     0.959468324799     1.007825032230
         H           -0.891942707400     1.862932583048     3.973468324799     1.007825032230
         H            0.352057292600     3.782932583048     3.134468324799     1.007825032230
         H            1.317817292600    -2.216367416952     1.356318324799     1.007825032230
         H            2.245027292600    -1.328367416952     0.060108324799     1.007825032230

  Running in c1 symmetry.

  Rotational constants: A =      0.07147  B =      0.01216  C =      0.01183 [cm^-1]
  Rotational constants: A =   2142.50778  B =    364.53090  C =    354.55771 [MHz]
  Nuclear repulsion =  568.322097527377650

  Charge       = 0
  Multiplicity = 1
  Electrons    = 84
  Nalpha       = 42
  Nbeta        = 42

  ==> Algorithm <==

  SCF Algorithm Type is PK.
  DIIS enabled.
  MOM disabled.
  Fractional occupation disabled.
  Guess Type is SAD.
  Energy threshold   = 1.00e-06
  Density threshold  = 1.00e-10
  Integral threshold = 0.00e+00

  ==> Primary Basis <==

  Basis Set: CC-PVDZ
    Blend: CC-PVDZ
    Number of shells: 114
    Number of basis function: 234
    Number of Cartesian functions: 245
    Spherical Harmonics?: true
    Max angular momentum: 2

  ==> Pre-Iterations <==

   -------------------------------------------------------
    Irrep   Nso     Nmo     Nalpha   Nbeta   Ndocc  Nsocc
   -------------------------------------------------------
     A        234     234       0       0       0       0
   -------------------------------------------------------
    Total     234     234      42      42      42       0
   -------------------------------------------------------

  ==> Integral Setup <==

  Using integral reordering PK algorithm.
  Sizing the integral batches needed.
  Building batch lookup table.
   Calculation information:
      Number of atoms:                  27
      Number of AO shells:             114
      Number of primitives:            322
      Number of atomic orbitals:       245
      Number of basis functions:       234

      Integral cutoff                 1.00e-12
      Number of threads:                 1

	Batch   1 pq = [       0,    9405] index = [             0,44231715] size =     44231715
	Batch   2 pq = [    9405,   13301] index = [      44231715,88464951] size =     44233236
	Batch   3 pq = [   13301,   16290] index = [      88464951,132690195] size =     44225244
	Batch   4 pq = [   16290,   18810] index = [     132690195,176917455] size =     44227260
	Batch   5 pq = [   18810,   21030] index = [     176917455,221140965] size =     44223510
	Batch   6 pq = [   21030,   23037] index = [     221140965,265363203] size =     44222238
	Batch   7 pq = [   23037,   24883] index = [     265363203,309594286] size =     44231083
	Batch   8 pq = [   24883,   26601] index = [     309594286,353819901] size =     44225615
	Batch   9 pq = [   26601,   27495] index = [     353819901,378001260] size =     24181359
  Task number: 35
  Buffer size: 11059200
  Buffer per thread: 2
  We computed 18195503 shell quartets total.
  Whereas there are 21487290 unique shell quartets.

  ==> DiskJK: Disk-Based J/K Matrices <==

    J tasked:                  Yes
    K tasked:                  Yes
    wK tasked:                  No
    Memory [MiB]:              375
    Schwarz Cutoff:          1E-12

    OpenMP threads:              1

  Minimum eigenvalue in the overlap matrix is 3.2516630154E-04.
  Using Symmetric Orthogonalization.

  SCF Guess: Superposition of Atomic Densities via on-the-fly atomic UHF.

  ==> Iterations <==

                        Total Energy        Delta E     RMS |[F,P]|

   @RHF iter SAD:  -461.51581201838343   -4.61516e+02   0.00000e+00
   @RHF iter   1:  -462.61501440746179   -1.09920e+00   2.70721e-03 DIIS
   @RHF iter   2:  -462.83686102744969   -2.21847e-01   1.20234e-03 DIIS
   @RHF iter   3:  -462.87399168153831   -3.71307e-02   2.71970e-04 DIIS
   @RHF iter   4:  -462.87714661143707   -3.15493e-03   7.99254e-05 DIIS
   @RHF iter   5:  -462.87733476453673   -1.88153e-04   1.59243e-05 DIIS
   @RHF iter   6:  -462.87734605395235   -1.12894e-05   3.37437e-06 DIIS
   @RHF iter   7:  -462.87734667294723   -6.18995e-07   1.24056e-06 DIIS
   @RHF iter   8:  -462.87734674481771   -7.18705e-08   4.21315e-07 DIIS
   @RHF iter   9:  -462.87734675877789   -1.39602e-08   1.87214e-07 DIIS
   @RHF iter  10:  -462.87734676229871   -3.52082e-09   8.42980e-08 DIIS
   @RHF iter  11:  -462.87734676355785   -1.25914e-09   3.43635e-08 DIIS
   @RHF iter  12:  -462.87734676378335   -2.25498e-10   1.32584e-08 DIIS
   @RHF iter  13:  -462.87734676380308   -1.97247e-11   4.58046e-09 DIIS
   @RHF iter  14:  -462.87734676380131    1.76215e-12   1.72987e-09 DIIS
   @RHF iter  15:  -462.87734676380478   -3.46745e-12   5.83763e-10 DIIS
   @RHF iter  16:  -462.87734676380569   -9.09495e-13   2.87810e-10 DIIS
   @RHF iter  17:  -462.87734676380319    2.50111e-12   1.38930e-10 DIIS
   @RHF iter  18:  -462.87734676380433   -1.13687e-12   5.21113e-11 DIIS
  Energy and wave function converged.

  ==> Post-Iterations <==

    Orbital Energies [Eh]
    ---------------------

    Doubly Occupied:

       1A    -20.544669     2A    -11.278405     3A    -11.246159
       4A    -11.244664     5A    -11.243502     6A    -11.241005
       7A    -11.238480     8A    -11.238093     9A    -11.236084
      10A    -11.235728    11A    -11.221715    12A     -1.346038
      13A     -1.152304    14A     -1.066122    15A     -1.009320
      16A     -1.006636    17A     -0.989503    18A     -0.872100
      19A     -0.834757    20A     -0.830233    21A     -0.788807
      22A     -0.702383    23A     -0.688074    24A     -0.645573
      25A     -0.639887    26A     -0.634766    27A     -0.596951
      28A     -0.590315    29A     -0.580347    30A     -0.559864
      31A     -0.547309    32A     -0.532248    33A     -0.529690
      34A     -0.520750    35A     -0.509987    36A     -0.485899
      37A     -0.484074    38A     -0.474759    39A     -0.472359
      40A     -0.435243    41A     -0.331739    42A     -0.327071

    Virtual:

      43A      0.128992    44A      0.135002    45A      0.173257
      46A      0.189478    47A      0.201366    48A      0.207160
      49A      0.221407    50A      0.224312    51A      0.238713
      52A      0.247500    53A      0.259368    54A      0.269880
      55A      0.276245    56A      0.280971    57A      0.290386
      58A      0.297564    59A      0.313760    60A      0.332868
      61A      0.346008    62A      0.378031    63A      0.387679
      64A      0.406052    65A      0.423262    66A      0.445091
      67A      0.464709    68A      0.485754    69A      0.487794
      70A      0.564882    71A      0.585162    72A      0.593936
      73A      0.610034    74A      0.622913    75A      0.643123
      76A      0.667309    77A      0.680041    78A      0.693532
      79A      0.708194    80A      0.710284    81A      0.722492
      82A      0.733051    83A      0.739193    84A      0.743994
      85A      0.746905    86A      0.753526    87A      0.774046
      88A      0.777351    89A      0.793975    90A      0.808932
      91A      0.830204    92A      0.837024    93A      0.845674
      94A      0.863960    95A      0.869741    96A      0.875409
      97A      0.882636    98A      0.886463    99A      0.893604
     100A      0.895947   101A      0.898724   102A      0.906144
     103A      0.910634   104A      0.926115   105A      0.926967
     106A      0.943237   107A      0.951454   108A      0.965485
     109A      0.980573   110A      0.983130   111A      0.988826
     112A      1.058606   113A      1.070680   114A      1.108084
     115A      1.127217   116A      1.131668   117A      1.141379
     118A      1.147487   119A      1.162466   120A      1.179115
     121A      1.189298   122A      1.228411   123A      1.232882
     124A      1.239636   125A      1.244885   126A      1.277618
     127A      1.288631   128A      1.305585   129A      1.315884
     130A      1.354929   131A      1.388330   132A      1.415289
     133A      1.423334   134A      1.429215   135A      1.465909
     136A      1.496331   137A      1.513602   138A      1.537161
     139A      1.550843   140A      1.564240   141A      1.593400
     142A      1.607751   143A      1.627204   144A      1.675925
     145A      1.691236   146A      1.706000   147A      1.731715
     148A      1.733100   149A      1.758327   150A      1.763771
     151A      1.790451   152A      1.829426   153A      1.834193
     154A      1.852836   155A      1.861907   156A      1.871237
     157A      1.876924   158A      1.882093   159A      1.890482
     160A      1.896946   161A      1.900620   162A      1.922002
     163A      1.923833   164A      1.926430   165A      1.930448
     166A      1.941533   167A      1.946985   168A      1.957341
     169A      1.967739   170A      1.976812   171A      1.984622
     172A      1.997162   173A      2.006724   174A      2.021166
     175A      2.041253   176A      2.050343   177A      2.051821
     178A      2.064850   179A      2.096940   180A      2.098597
     181A      2.132306   182A      2.143512   183A      2.151326
     184A      2.154777   185A      2.163154   186A      2.174556
     187A      2.215067   188A      2.228766   189A      2.245359
     190A      2.251978   191A      2.265821   192A      2.277365
     193A      2.290986   194A      2.311923   195A      2.323173
     196A      2.353059   197A      2.378693   198A      2.436072
     199A      2.447118   200A      2.472527   201A      2.482804
     202A      2.494661   203A      2.532756   204A      2.539157
     205A      2.565638   206A      2.583453   207A      2.619338
     208A      2.658078   209A      2.735773   210A      2.749223
     211A      2.755212   212A      2.762726   213A      2.773465
     214A      2.786918   215A      2.792741   216A      2.801393
     217A      2.829087   218A      2.861366   219A      2.890533
     220A      2.916323   221A      2.925262   222A      2.962896
     223A      2.983792   224A      3.014132   225A      3.040578
     226A      3.157836   227A      3.170923   228A      3.281291
     229A      3.346126   230A      3.433100   231A      3.455717
     232A      3.627181   233A      3.931671   234A      4.181167

    Final Occupation by Irrep:
              A
    DOCC [    42 ]

  @RHF Final Energy:  -462.87734676380433

   => Energetics <=

    Nuclear Repulsion Energy =            568.3220975273776503
    One-Electron Energy =               -1754.0916554852692570
    Two-Electron Energy =                 722.8922111940873947
    Total Energy =                       -462.8773467638043257

Computation Completed

Properties will be evaluated at   0.000000,   0.000000,   0.000000 [a0]

Properties computed using the SCF density matrix

  Nuclear Dipole Moment: [e a0]
     X:    -3.0305      Y:    -9.1664      Z:    -8.3194

  Electronic Dipole Moment: [e a0]
     X:     2.6244      Y:     9.1753      Z:     8.8657

  Dipole Moment: [e a0]
     X:    -0.4061      Y:     0.0088      Z:     0.5462     Total:     0.6807

  Dipole Moment: [D]
     X:    -1.0323      Y:     0.0225      Z:     1.3884     Total:     1.7303

*** tstop() called on ds3 at Tue Apr 28 03:11:41 2020
Module time:
	user time   =     132.46 seconds =       2.21 minutes
	system time =      62.40 seconds =       1.04 minutes
	total time  =        187 seconds =       3.12 minutes
Total time:
	user time   =     132.46 seconds =       2.21 minutes
	system time =      62.40 seconds =       1.04 minutes
	total time  =        187 seconds =       3.12 minutes
                                     G D M A

                                 by Anthony Stone

                           version 2.2.06, 22 June 2011

               Distributed Multipoles from Gaussian wavefunctions

Starting at 3:11:41 on 28 Apr 2020

Using SCF density matrix from file ./SSI/SSI-106SER-128PHE-1-dimer.test.19106.fchk

                         Distributed Multipole Analysis

Standard DMA

Positions and radii in angstrom
Multipole moments in atomic units, ea_0^k for rank k

C          x = -1.251943  y = -2.000067  z = -2.765532 angstrom
           Maximum rank =  0   Radius =  0.650 angstrom
                   Q00  =   0.090325

C          x = -1.773943  y = -2.198067  z = -4.202532 angstrom
           Maximum rank =  0   Radius =  0.650 angstrom
                   Q00  =  -0.237902

O          x =  0.180057  y = -1.904067  z = -2.742532 angstrom
           Maximum rank =  0   Radius =  0.650 angstrom
                   Q00  =  -0.626371

H          x = -1.679943  y = -1.079067  z = -2.363532 angstrom
           Maximum rank =  0   Radius =  0.325 angstrom
                   Q00  =   0.035195

H          x = -1.575943  y = -2.841067  z = -2.149532 angstrom
           Maximum rank =  0   Radius =  0.325 angstrom
                   Q00  =   0.044711

H          x = -2.833943  y = -2.005067  z = -4.224532 angstrom
           Maximum rank =  0   Radius =  0.325 angstrom
                   Q00  =   0.086551

H          x =  0.482057  y = -1.791067  z = -1.842532 angstrom
           Maximum rank =  0   Radius =  0.325 angstrom
                   Q00  =   0.428704

H          x = -1.604823  y = -3.221867  z = -4.567432 angstrom
           Maximum rank =  0   Radius =  0.325 angstrom
                   Q00  =   0.090595

H          x = -1.331283  y = -1.455667  z = -4.882922 angstrom
           Maximum rank =  0   Radius =  0.325 angstrom
                   Q00  =   0.096598

C          x =  0.092057  y = -0.797067  z =  0.238468 angstrom
           Maximum rank =  0   Radius =  0.650 angstrom
                   Q00  =  -0.046757

C          x =  1.286057  y = -1.786067  z =  0.344468 angstrom
           Maximum rank =  0   Radius =  0.650 angstrom
                   Q00  =  -0.257658

C          x =  0.222057  y =  0.488933  z =  1.050468 angstrom
           Maximum rank =  0   Radius =  0.650 angstrom
                   Q00  =  -0.107948

C          x =  0.948057  y =  1.589933  z =  0.565468 angstrom
           Maximum rank =  0   Radius =  0.650 angstrom
                   Q00  =  -0.100853

C          x = -0.432943  y =  0.604933  z =  2.276468 angstrom
           Maximum rank =  0   Radius =  0.650 angstrom
                   Q00  =   0.008431

C          x =  0.999057  y =  2.793933  z =  1.317468 angstrom
           Maximum rank =  0   Radius =  0.650 angstrom
                   Q00  =  -0.063163

C          x = -0.381943  y =  1.787933  z =  3.024468 angstrom
           Maximum rank =  0   Radius =  0.650 angstrom
                   Q00  =  -0.074759

C          x =  0.325057  y =  2.873933  z =  2.550468 angstrom
           Maximum rank =  0   Radius =  0.650 angstrom
                   Q00  =  -0.077170

H          x = -0.075943  y = -0.497067  z = -0.793532 angstrom
           Maximum rank =  0   Radius =  0.325 angstrom
                   Q00  =   0.051983

H          x = -0.797943  y = -1.319067  z =  0.597468 angstrom
           Maximum rank =  0   Radius =  0.325 angstrom
                   Q00  =   0.073197

H          x =  1.151057  y = -2.588067  z = -0.383532 angstrom
           Maximum rank =  0   Radius =  0.325 angstrom
                   Q00  =   0.068975

H          x =  1.462057  y =  1.512933  z = -0.384532 angstrom
           Maximum rank =  0   Radius =  0.325 angstrom
                   Q00  =   0.065383

H          x = -0.991943  y = -0.242067  z =  2.650468 angstrom
           Maximum rank =  0   Radius =  0.325 angstrom
                   Q00  =   0.056085

H          x =  1.540057  y =  3.657933  z =  0.959468 angstrom
           Maximum rank =  0   Radius =  0.325 angstrom
                   Q00  =   0.071423

H          x = -0.891943  y =  1.862933  z =  3.973468 angstrom
           Maximum rank =  0   Radius =  0.325 angstrom
                   Q00  =   0.065475

H          x =  0.352057  y =  3.782933  z =  3.134468 angstrom
           Maximum rank =  0   Radius =  0.325 angstrom
                   Q00  =   0.064103

H          x =  1.317817  y = -2.216367  z =  1.356318 angstrom
           Maximum rank =  0   Radius =  0.325 angstrom
                   Q00  =   0.100474

H          x =  2.245027  y = -1.328367  z =  0.060108 angstrom
           Maximum rank =  0   Radius =  0.325 angstrom
                   Q00  =   0.094372

Total multipoles referred to origin at
           x =   0.000000,  y =    0.000000,  z =    0.000000 angstrom
                   Q00  =  -0.000000

Finished at 3:11:41 on 28 Apr 2020

  DMA results are available in the Python driver through the
	  variable('DMA DISTRIBUTED MULTIPOLES')
  and
	  variable('DMA TOTAL MULTIPOLES')
  commands.

    Psi4 stopped on: Tuesday, 28 April 2020 03:11AM
    Psi4 wall time for execution: 0:03:07.37

*** Psi4 exiting successfully. Buy a developer a beer!
