                               Psi4 1.3.2 release

  ==> Input File <==

--------------------------------------------------------------------------
import numpy as np
set {scf_type pk
basis cc-pvdz
d_convergence 10
gdma_switch   0
gdma_limit    0
gdma_origin   [ 0.0,  0.0,  0.0 ]
}
molecule test {
    units Angstrom
    0 1
    --
    0 1
    C                2.338062084181799    -1.087697362496986     0.618469335186143
    C                3.192062084181799    -2.135697362496987     1.350469335186143
    C                1.293062084181800    -0.452697362496986     1.484469335186144
    C                1.598062084181800     0.655302637503013     2.266469335186143
    C                0.032062084181800    -1.012697362496986     1.573469335186144
    C                0.658062084181800     1.199302637503013     3.121469335186143
    C               -0.928937915818200    -0.444697362496986     2.386469335186143
    C               -0.610937915818200     0.647302637503014     3.179469335186143
    O               -1.565937915818200     1.144302637503014     4.009469335186143
    H                2.985062084181800    -0.303697362496986     0.234469335186143
    H                1.846062084181800    -1.558697362496986    -0.234530664813857
    H                2.527062084181799    -2.891697362496986     1.751469335186143
    H                2.588062084181800     1.089302637503013     2.217469335186143
    H               -0.201937915818200    -1.890697362496986     0.988469335186143
    H                0.910062084181800     2.044302637503014     3.743469335186143
    H               -1.916937915818200    -0.870697362496986     2.445469335186143
    H               -1.243937915818200     1.899302637503013     4.527469335186144
    H                3.768842084181799    -1.686333362496987     2.172289335186144
    H                3.875422084181799    -2.633477362496986     0.646739335186143
    C                1.016062084181800     1.855302637503013    -1.361530664813857
    C                1.425062084181800     2.747302637503013    -2.541530664813856
    C                0.026062084181800     0.778302637503014    -1.755530664813856
    C                0.409062084181800    -0.278697362496986    -2.584530664813856
    C               -1.314937915818200     0.903302637503013    -1.392530664813856
    C               -0.529937915818200    -1.234697362496986    -2.990530664813857
    C               -2.262937915818200    -0.057697362496986    -1.790530664813857
    C               -1.861937915818200    -1.125697362496986    -2.575530664813857
    O               -2.804937915818201    -2.028697362496986    -2.986530664813856
    H                1.910062084181800     1.375302637503014    -0.965530664813857
    H                0.595062084181800     2.475302637503014    -0.569530664813857
    H                1.813062084181800     2.081302637503013    -3.313530664813857
    H                1.437062084181800    -0.369697362496986    -2.906530664813857
    H               -1.629937915818200     1.742302637503014    -0.793530664813857
    H               -0.225937915818200    -2.052697362496986    -3.627530664813857
    H               -3.295937915818200     0.032302637503014    -1.490530664813857
    H               -2.493937915818201    -2.537697362496986    -3.764530664813857
    H                2.234492084181800     3.438322637503013    -2.263470664813857
    H                0.568522084181800     3.272582637503014    -2.989200664813856

}
e, wfn = energy('scf', return_wfn=True)
gdma(wfn)
dmavals = variable('DMA DISTRIBUTED MULTIPOLES')
charges = np.array(dmavals)
print(charges)
np.save('SSI-009TYR-121TYR-1-dimer.npy', np.array(charges))--------------------------------------------------------------------------

*** tstart() called on ds3
*** at Sun Apr 26 17:30:57 2020

   => Loading Basis Set <=

    Name: CC-PVDZ
    Role: ORBITAL
    Keyword: BASIS
    atoms 1-8, 20-27   entry C          line   138 file /theoryfs2/ds/metcalf/miniconda2/envs/tf2gpu/share/psi4/basis/cc-pvdz.gbs
    atoms 9, 28        entry O          line   198 file /theoryfs2/ds/metcalf/miniconda2/envs/tf2gpu/share/psi4/basis/cc-pvdz.gbs
    atoms 10-19, 29-38 entry H          line    22 file /theoryfs2/ds/metcalf/miniconda2/envs/tf2gpu/share/psi4/basis/cc-pvdz.gbs

         ---------------------------------------------------------
                                   SCF
               by Justin Turney, Rob Parrish, Andy Simmonett
                          and Daniel G. A. Smith
                              RHF Reference
                        1 Threads,    500 MiB Core
         ---------------------------------------------------------

  ==> Geometry <==

    Molecular point group: c1
    Full point group: C1

    Geometry (in Angstrom), charge = 0, multiplicity = 1:

       Center              X                  Y                   Z               Mass
    ------------   -----------------  -----------------  -----------------  -----------------
         C            2.338062084182    -1.087697362497     0.618469335186    12.000000000000
         C            3.192062084182    -2.135697362497     1.350469335186    12.000000000000
         C            1.293062084182    -0.452697362497     1.484469335186    12.000000000000
         C            1.598062084182     0.655302637503     2.266469335186    12.000000000000
         C            0.032062084182    -1.012697362497     1.573469335186    12.000000000000
         C            0.658062084182     1.199302637503     3.121469335186    12.000000000000
         C           -0.928937915818    -0.444697362497     2.386469335186    12.000000000000
         C           -0.610937915818     0.647302637503     3.179469335186    12.000000000000
         O           -1.565937915818     1.144302637503     4.009469335186    15.994914619570
         H            2.985062084182    -0.303697362497     0.234469335186     1.007825032230
         H            1.846062084182    -1.558697362497    -0.234530664814     1.007825032230
         H            2.527062084182    -2.891697362497     1.751469335186     1.007825032230
         H            2.588062084182     1.089302637503     2.217469335186     1.007825032230
         H           -0.201937915818    -1.890697362497     0.988469335186     1.007825032230
         H            0.910062084182     2.044302637503     3.743469335186     1.007825032230
         H           -1.916937915818    -0.870697362497     2.445469335186     1.007825032230
         H           -1.243937915818     1.899302637503     4.527469335186     1.007825032230
         H            3.768842084182    -1.686333362497     2.172289335186     1.007825032230
         H            3.875422084182    -2.633477362497     0.646739335186     1.007825032230
         C            1.016062084182     1.855302637503    -1.361530664814    12.000000000000
         C            1.425062084182     2.747302637503    -2.541530664814    12.000000000000
         C            0.026062084182     0.778302637503    -1.755530664814    12.000000000000
         C            0.409062084182    -0.278697362497    -2.584530664814    12.000000000000
         C           -1.314937915818     0.903302637503    -1.392530664814    12.000000000000
         C           -0.529937915818    -1.234697362497    -2.990530664814    12.000000000000
         C           -2.262937915818    -0.057697362497    -1.790530664814    12.000000000000
         C           -1.861937915818    -1.125697362497    -2.575530664814    12.000000000000
         O           -2.804937915818    -2.028697362497    -2.986530664814    15.994914619570
         H            1.910062084182     1.375302637503    -0.965530664814     1.007825032230
         H            0.595062084182     2.475302637503    -0.569530664814     1.007825032230
         H            1.813062084182     2.081302637503    -3.313530664814     1.007825032230
         H            1.437062084182    -0.369697362497    -2.906530664814     1.007825032230
         H           -1.629937915818     1.742302637503    -0.793530664814     1.007825032230
         H           -0.225937915818    -2.052697362497    -3.627530664814     1.007825032230
         H           -3.295937915818     0.032302637503    -1.490530664814     1.007825032230
         H           -2.493937915818    -2.537697362497    -3.764530664814     1.007825032230
         H            2.234492084182     3.438322637503    -2.263470664814     1.007825032230
         H            0.568522084182     3.272582637503    -2.989200664814     1.007825032230

  Running in c1 symmetry.

  Rotational constants: A =      0.01570  B =      0.00857  C =      0.00788 [cm^-1]
  Rotational constants: A =    470.70401  B =    257.00089  C =    236.31735 [MHz]
  Nuclear repulsion = 1270.707760162963268

  Charge       = 0
  Multiplicity = 1
  Electrons    = 132
  Nalpha       = 66
  Nbeta        = 66

  ==> Algorithm <==

  SCF Algorithm Type is PK.
  DIIS enabled.
  MOM disabled.
  Fractional occupation disabled.
  Guess Type is SAD.
  Energy threshold   = 1.00e-06
  Density threshold  = 1.00e-10
  Integral threshold = 0.00e+00

  ==> Primary Basis <==

  Basis Set: CC-PVDZ
    Blend: CC-PVDZ
    Number of shells: 168
    Number of basis function: 352
    Number of Cartesian functions: 370
    Spherical Harmonics?: true
    Max angular momentum: 2

  ==> Pre-Iterations <==

   -------------------------------------------------------
    Irrep   Nso     Nmo     Nalpha   Nbeta   Ndocc  Nsocc
   -------------------------------------------------------
     A        352     352       0       0       0       0
   -------------------------------------------------------
    Total     352     352      66      66      66       0
   -------------------------------------------------------

  ==> Integral Setup <==

  Using Yoshimine PK algorithm.
  Sizing the integral batches needed.
  Building batch lookup table.
   Calculation information:
      Number of atoms:                  38
      Number of AO shells:             168
      Number of primitives:            496
      Number of atomic orbitals:       370
      Number of basis functions:       352

      Integral cutoff                 1.00e-12
      Number of threads:                 1

	Batch   1 pq = [       0,    9405] index = [             0,44231715] size =     44231715
	Batch   2 pq = [    9405,   13301] index = [      44231715,88464951] size =     44233236
	Batch   3 pq = [   13301,   16290] index = [      88464951,132690195] size =     44225244
	Batch   4 pq = [   16290,   18810] index = [     132690195,176917455] size =     44227260
	Batch   5 pq = [   18810,   21030] index = [     176917455,221140965] size =     44223510
	Batch   6 pq = [   21030,   23037] index = [     221140965,265363203] size =     44222238
	Batch   7 pq = [   23037,   24883] index = [     265363203,309594286] size =     44231083
	Batch   8 pq = [   24883,   26601] index = [     309594286,353819901] size =     44225615
	Batch   9 pq = [   26601,   28214] index = [     353819901,398029005] size =     44209104
	Batch  10 pq = [   28214,   29740] index = [     398029005,442248670] size =     44219665
	Batch  11 pq = [   29740,   31191] index = [     442248670,486454836] size =     44206166
	Batch  12 pq = [   31191,   32578] index = [     486454836,530679331] size =     44224495
	Batch  13 pq = [   32578,   33908] index = [     530679331,574893186] size =     44213855
	Batch  14 pq = [   33908,   35188] index = [     574893186,619115266] size =     44222080
	Batch  15 pq = [   35188,   36423] index = [     619115266,663335676] size =     44220410
	Batch  16 pq = [   36423,   37617] index = [     663335676,707538153] size =     44202477
	Batch  17 pq = [   37617,   38775] index = [     707538153,751769700] size =     44231547
	Batch  18 pq = [   38775,   39899] index = [     751769700,795985050] size =     44215350
	Batch  19 pq = [   39899,   40992] index = [     795985050,840192528] size =     44207478
	Batch  20 pq = [   40992,   42057] index = [     840192528,884416653] size =     44224125
	Batch  21 pq = [   42057,   43095] index = [     884416653,928611060] size =     44194407
	Batch  22 pq = [   43095,   44109] index = [     928611060,972823995] size =     44212935
	Batch  23 pq = [   44109,   45100] index = [     972823995,1017027550] size =     44203555
	Batch  24 pq = [   45100,   46070] index = [    1017027550,1061245485] size =     44217935
	Batch  25 pq = [   46070,   47020] index = [    1061245485,1105463710] size =     44218225
	Batch  26 pq = [   47020,   47951] index = [    1105463710,1149673176] size =     44209466
	Batch  27 pq = [   47951,   48864] index = [    1149673176,1193869680] size =     44196504
	Batch  28 pq = [   48864,   49761] index = [    1193869680,1238103441] size =     44233761
	Batch  29 pq = [   49761,   50642] index = [    1238103441,1282331403] size =     44227962
	Batch  30 pq = [   50642,   51508] index = [    1282331403,1326562786] size =     44231383
	Batch  31 pq = [   51508,   52359] index = [    1326562786,1370758620] size =     44195834
	Batch  32 pq = [   52359,   53197] index = [    1370758620,1414987003] size =     44228383
	Batch  33 pq = [   53197,   54022] index = [    1414987003,1459215253] size =     44228250
	Batch  34 pq = [   54022,   54834] index = [    1459215253,1503411195] size =     44195942
	Batch  35 pq = [   54834,   55634] index = [    1503411195,1547598795] size =     44187600
	Batch  36 pq = [   55634,   56423] index = [    1547598795,1591805676] size =     44206881
	Batch  37 pq = [   56423,   57201] index = [    1591805676,1636005801] size =     44200125
	Batch  38 pq = [   57201,   57969] index = [    1636005801,1680231465] size =     44225664
	Batch  39 pq = [   57969,   58727] index = [    1680231465,1724459628] size =     44228163
	Batch  40 pq = [   58727,   59475] index = [    1724459628,1768667550] size =     44207922
	Batch  41 pq = [   59475,   60214] index = [    1768667550,1812893005] size =     44225455
	Batch  42 pq = [   60214,   60944] index = [    1812893005,1857116040] size =     44223035
	Batch  43 pq = [   60944,   61665] index = [    1857116040,1901316945] size =     44200905
	Batch  44 pq = [   61665,   62128] index = [    1901316945,1929975256] size =     28658311
  ==> DiskJK: Disk-Based J/K Matrices <==

    J tasked:                  Yes
    K tasked:                  Yes
    wK tasked:                  No
    Memory [MiB]:              375
    Schwarz Cutoff:          1E-12

    OpenMP threads:              1

  Minimum eigenvalue in the overlap matrix is 3.0762841522E-04.
  Using Symmetric Orthogonalization.

  SCF Guess: Superposition of Atomic Densities via on-the-fly atomic UHF.

  ==> Iterations <==

                        Total Energy        Delta E     RMS |[F,P]|

   @RHF iter SAD:  -766.06198306232614   -7.66062e+02   0.00000e+00
   @RHF iter   1:  -766.90441059035152   -8.42428e-01   2.25815e-03 DIIS
   @RHF iter   2:  -767.25102516242555   -3.46615e-01   9.87702e-04 DIIS
   @RHF iter   3:  -767.31048720576769   -5.94620e-02   2.46763e-04 DIIS
   @RHF iter   4:  -767.31570113022940   -5.21392e-03   1.15274e-04 DIIS
   @RHF iter   5:  -767.31666806446447   -9.66934e-04   1.59250e-05 DIIS
   @RHF iter   6:  -767.31669944516443   -3.13807e-05   5.95899e-06 DIIS
   @RHF iter   7:  -767.31670295471542   -3.50955e-06   2.09392e-06 DIIS
   @RHF iter   8:  -767.31670351180628   -5.57091e-07   6.28334e-07 DIIS
   @RHF iter   9:  -767.31670357265807   -6.08518e-08   2.15955e-07 DIIS
   @RHF iter  10:  -767.31670357995665   -7.29858e-09   8.27890e-08 DIIS
   @RHF iter  11:  -767.31670358157157   -1.61492e-09   3.72601e-08 DIIS
   @RHF iter  12:  -767.31670358200563   -4.34056e-10   1.90317e-08 DIIS
   @RHF iter  13:  -767.31670358214092   -1.35287e-10   6.68751e-09 DIIS
   @RHF iter  14:  -767.31670358215945   -1.85310e-11   1.71374e-09 DIIS
   @RHF iter  15:  -767.31670358215729    2.16005e-12   7.13337e-10 DIIS
   @RHF iter  16:  -767.31670358215638    9.09495e-13   2.81025e-10 DIIS
   @RHF iter  17:  -767.31670358215717   -7.95808e-13   1.23915e-10 DIIS
   @RHF iter  18:  -767.31670358215570    1.47793e-12   6.02850e-11 DIIS
  Energy and wave function converged.

  ==> Post-Iterations <==

    Orbital Energies [Eh]
    ---------------------

    Doubly Occupied:

       1A    -20.581386     2A    -20.580909     3A    -11.296257
       4A    -11.293307     5A    -11.238942     6A    -11.234859
       7A    -11.234269     8A    -11.233348     9A    -11.228720
      10A    -11.228607    11A    -11.227620    12A    -11.227017
      13A    -11.224021    14A    -11.222659    15A    -11.221391
      16A    -11.221066    17A    -11.219713    18A    -11.219183
      19A     -1.396754    20A     -1.391142    21A     -1.152991
      22A     -1.146371    23A     -1.055865    24A     -1.052715
      25A     -1.016977    26A     -1.012351    27A     -0.972256
      28A     -0.971860    29A     -0.859988    30A     -0.854517
      31A     -0.841863    32A     -0.840570    33A     -0.789449
      34A     -0.785256    35A     -0.729014    36A     -0.724979
      37A     -0.668695    38A     -0.666533    39A     -0.643356
      40A     -0.640066    41A     -0.612855    42A     -0.609475
      43A     -0.591926    44A     -0.591474    45A     -0.584565
      46A     -0.583377    47A     -0.582207    48A     -0.578091
      49A     -0.568331    50A     -0.563147    51A     -0.545825
      52A     -0.537599    53A     -0.522942    54A     -0.509336
      55A     -0.494589    56A     -0.492823    57A     -0.476422
      58A     -0.475047    59A     -0.472560    60A     -0.467781
      61A     -0.462038    62A     -0.457732    63A     -0.339414
      64A     -0.329753    65A     -0.301673    66A     -0.295683

    Virtual:

      67A      0.130246    68A      0.135619    69A      0.149106
      70A      0.166298    71A      0.179060    72A      0.180066
      73A      0.185360    74A      0.194392    75A      0.206428
      76A      0.211402    77A      0.223696    78A      0.226472
      79A      0.240884    80A      0.246482    81A      0.254014
      82A      0.262697    83A      0.265486    84A      0.273288
      85A      0.286135    86A      0.298107    87A      0.302235
      88A      0.306929    89A      0.320141    90A      0.337620
      91A      0.353957    92A      0.362526    93A      0.384396
      94A      0.389601    95A      0.417716    96A      0.422102
      97A      0.426400    98A      0.433569    99A      0.468425
     100A      0.483276   101A      0.484746   102A      0.491755
     103A      0.498511   104A      0.507705   105A      0.519793
     106A      0.529229   107A      0.576188   108A      0.594796
     109A      0.599221   110A      0.609730   111A      0.619712
     112A      0.626316   113A      0.642626   114A      0.648118
     115A      0.656719   116A      0.664150   117A      0.675426
     118A      0.683795   119A      0.701057   120A      0.709046
     121A      0.710755   122A      0.719435   123A      0.721762
     124A      0.728847   125A      0.735776   126A      0.741253
     127A      0.742622   128A      0.751582   129A      0.757668
     130A      0.761918   131A      0.779649   132A      0.790765
     133A      0.796920   134A      0.810976   135A      0.815097
     136A      0.819238   137A      0.832513   138A      0.836254
     139A      0.853588   140A      0.857701   141A      0.866243
     142A      0.874818   143A      0.875565   144A      0.880196
     145A      0.888390   146A      0.889369   147A      0.895737
     148A      0.897640   149A      0.901909   150A      0.910179
     151A      0.913875   152A      0.919003   153A      0.921545
     154A      0.931142   155A      0.937736   156A      0.947129
     157A      0.950541   158A      0.953199   159A      0.965396
     160A      0.971512   161A      0.974061   162A      0.981432
     163A      0.992273   164A      1.006348   165A      1.009554
     166A      1.020781   167A      1.028848   168A      1.054947
     169A      1.056611   170A      1.068013   171A      1.087128
     172A      1.102051   173A      1.119079   174A      1.135059
     175A      1.144086   176A      1.154044   177A      1.156407
     178A      1.162859   179A      1.169633   180A      1.189492
     181A      1.200460   182A      1.210822   183A      1.228264
     184A      1.245734   185A      1.251051   186A      1.259081
     187A      1.266495   188A      1.273676   189A      1.287095
     190A      1.288531   191A      1.293337   192A      1.300721
     193A      1.304176   194A      1.314633   195A      1.321380
     196A      1.332479   197A      1.352832   198A      1.356000
     199A      1.365283   200A      1.368918   201A      1.385853
     202A      1.387668   203A      1.411935   204A      1.434599
     205A      1.442261   206A      1.447993   207A      1.487938
     208A      1.497769   209A      1.500643   210A      1.511608
     211A      1.543269   212A      1.558149   213A      1.601369
     214A      1.618225   215A      1.622555   216A      1.630698
     217A      1.642298   218A      1.643997   219A      1.675893
     220A      1.685020   221A      1.690655   222A      1.703910
     223A      1.718408   224A      1.743658   225A      1.752643
     226A      1.763764   227A      1.780292   228A      1.792774
     229A      1.800375   230A      1.811333   231A      1.840912
     232A      1.858239   233A      1.867922   234A      1.873309
     235A      1.883257   236A      1.883856   237A      1.885630
     238A      1.890574   239A      1.895612   240A      1.899878
     241A      1.901087   242A      1.906185   243A      1.912703
     244A      1.917334   245A      1.923641   246A      1.933643
     247A      1.933919   248A      1.942408   249A      1.948252
     250A      1.955317   251A      1.958578   252A      1.967752
     253A      1.970041   254A      1.985452   255A      1.986977
     256A      1.998310   257A      2.011650   258A      2.012742
     259A      2.021366   260A      2.026237   261A      2.031047
     262A      2.041905   263A      2.050044   264A      2.062713
     265A      2.069135   266A      2.071089   267A      2.077695
     268A      2.085341   269A      2.093513   270A      2.105564
     271A      2.107298   272A      2.120397   273A      2.133643
     274A      2.153940   275A      2.156233   276A      2.162560
     277A      2.168086   278A      2.182048   279A      2.194709
     280A      2.210956   281A      2.228822   282A      2.235544
     283A      2.249660   284A      2.269635   285A      2.272998
     286A      2.281941   287A      2.306520   288A      2.312068
     289A      2.328643   290A      2.343552   291A      2.357699
     292A      2.364072   293A      2.378157   294A      2.382921
     295A      2.425885   296A      2.446089   297A      2.448773
     298A      2.473773   299A      2.475451   300A      2.481803
     301A      2.494512   302A      2.505140   303A      2.513605
     304A      2.523607   305A      2.533117   306A      2.538560
     307A      2.542299   308A      2.560805   309A      2.578772
     310A      2.590222   311A      2.620698   312A      2.633303
     313A      2.642961   314A      2.656439   315A      2.755470
     316A      2.766440   317A      2.772524   318A      2.781154
     319A      2.796917   320A      2.810932   321A      2.818485
     322A      2.830986   323A      2.858923   324A      2.881199
     325A      2.886777   326A      2.889320   327A      2.911535
     328A      2.920011   329A      2.959386   330A      2.982080
     331A      2.989878   332A      3.013845   333A      3.029107
     334A      3.048892   335A      3.083612   336A      3.116443
     337A      3.171366   338A      3.183938   339A      3.250454
     340A      3.259266   341A      3.283803   342A      3.314884
     343A      3.346729   344A      3.351315   345A      3.564749
     346A      3.583018   347A      3.670233   348A      3.694368
     349A      3.951214   350A      3.989498   351A      4.158419
     352A      4.200815

    Final Occupation by Irrep:
              A
    DOCC [    66 ]

  @RHF Final Energy:  -767.31670358215570

   => Energetics <=

    Nuclear Repulsion Energy =           1270.7077601629632682
    One-Electron Energy =               -3567.6619158934609004
    Two-Electron Energy =                1529.6374521483417084
    Total Energy =                       -767.3167035821556965

Computation Completed

Properties will be evaluated at   0.000000,   0.000000,   0.000000 [a0]

Properties computed using the SCF density matrix

  Nuclear Dipole Moment: [e a0]
     X:    15.0256      Y:     2.4847      Z:    -3.9241

  Electronic Dipole Moment: [e a0]
     X:   -14.1923      Y:    -2.2184      Z:     3.6608

  Dipole Moment: [e a0]
     X:     0.8333      Y:     0.2663      Z:    -0.2633     Total:     0.9136

  Dipole Moment: [D]
     X:     2.1181      Y:     0.6768      Z:    -0.6693     Total:     2.3221

*** tstop() called on ds3 at Sun Apr 26 20:12:07 2020
Module time:
	user time   =     559.54 seconds =       9.33 minutes
	system time =     519.37 seconds =       8.66 minutes
	total time  =       9670 seconds =     161.17 minutes
Total time:
	user time   =     559.54 seconds =       9.33 minutes
	system time =     519.37 seconds =       8.66 minutes
	total time  =       9670 seconds =     161.17 minutes
                                     G D M A

                                 by Anthony Stone

                           version 2.2.06, 22 June 2011

               Distributed Multipoles from Gaussian wavefunctions

Starting at 20:12:7 on 26 Apr 2020

Using SCF density matrix from file ./SSI/SSI-009TYR-121TYR-1-dimer.test.18729.fchk

                         Distributed Multipole Analysis

Standard DMA

Positions and radii in angstrom
Multipole moments in atomic units, ea_0^k for rank k

C          x =  2.338062  y = -1.087697  z =  0.618469 angstrom
           Maximum rank =  0   Radius =  0.650 angstrom
                   Q00  =  -0.031101

C          x =  3.192062  y = -2.135697  z =  1.350469 angstrom
           Maximum rank =  0   Radius =  0.650 angstrom
                   Q00  =  -0.233959

C          x =  1.293062  y = -0.452697  z =  1.484469 angstrom
           Maximum rank =  0   Radius =  0.650 angstrom
                   Q00  =  -0.141788

C          x =  1.598062  y =  0.655303  z =  2.266469 angstrom
           Maximum rank =  0   Radius =  0.650 angstrom
                   Q00  =   0.046108

C          x =  0.032062  y = -1.012697  z =  1.573469 angstrom
           Maximum rank =  0   Radius =  0.650 angstrom
                   Q00  =  -0.042666

C          x =  0.658062  y =  1.199303  z =  3.121469 angstrom
           Maximum rank =  0   Radius =  0.650 angstrom
                   Q00  =  -0.200604

C          x = -0.928938  y = -0.444697  z =  2.386469 angstrom
           Maximum rank =  0   Radius =  0.650 angstrom
                   Q00  =  -0.094216

C          x = -0.610938  y =  0.647303  z =  3.179469 angstrom
           Maximum rank =  0   Radius =  0.650 angstrom
                   Q00  =   0.319277

O          x = -1.565938  y =  1.144303  z =  4.009469 angstrom
           Maximum rank =  0   Radius =  0.650 angstrom
                   Q00  =  -0.671312

H          x =  2.985062  y = -0.303697  z =  0.234469 angstrom
           Maximum rank =  0   Radius =  0.325 angstrom
                   Q00  =   0.054485

H          x =  1.846062  y = -1.558697  z = -0.234531 angstrom
           Maximum rank =  0   Radius =  0.325 angstrom
                   Q00  =   0.071609

H          x =  2.527062  y = -2.891697  z =  1.751469 angstrom
           Maximum rank =  0   Radius =  0.325 angstrom
                   Q00  =   0.083987

H          x =  2.588062  y =  1.089303  z =  2.217469 angstrom
           Maximum rank =  0   Radius =  0.325 angstrom
                   Q00  =   0.062762

H          x = -0.201938  y = -1.890697  z =  0.988469 angstrom
           Maximum rank =  0   Radius =  0.325 angstrom
                   Q00  =   0.065068

H          x =  0.910062  y =  2.044303  z =  3.743469 angstrom
           Maximum rank =  0   Radius =  0.325 angstrom
                   Q00  =   0.069270

H          x = -1.916938  y = -0.870697  z =  2.445469 angstrom
           Maximum rank =  0   Radius =  0.325 angstrom
                   Q00  =   0.078147

H          x = -1.243938  y =  1.899303  z =  4.527469 angstrom
           Maximum rank =  0   Radius =  0.325 angstrom
                   Q00  =   0.405868

H          x =  3.768842  y = -1.686333  z =  2.172289 angstrom
           Maximum rank =  0   Radius =  0.325 angstrom
                   Q00  =   0.082269

H          x =  3.875422  y = -2.633477  z =  0.646739 angstrom
           Maximum rank =  0   Radius =  0.325 angstrom
                   Q00  =   0.078754

C          x =  1.016062  y =  1.855303  z = -1.361531 angstrom
           Maximum rank =  0   Radius =  0.650 angstrom
                   Q00  =  -0.032578

C          x =  1.425062  y =  2.747303  z = -2.541531 angstrom
           Maximum rank =  0   Radius =  0.650 angstrom
                   Q00  =  -0.244372

C          x =  0.026062  y =  0.778303  z = -1.755531 angstrom
           Maximum rank =  0   Radius =  0.650 angstrom
                   Q00  =  -0.122467

C          x =  0.409062  y = -0.278697  z = -2.584531 angstrom
           Maximum rank =  0   Radius =  0.650 angstrom
                   Q00  =  -0.082864

C          x = -1.314938  y =  0.903303  z = -1.392531 angstrom
           Maximum rank =  0   Radius =  0.650 angstrom
                   Q00  =   0.058296

C          x = -0.529938  y = -1.234697  z = -2.990531 angstrom
           Maximum rank =  0   Radius =  0.650 angstrom
                   Q00  =  -0.173796

C          x = -2.262938  y = -0.057697  z = -1.790531 angstrom
           Maximum rank =  0   Radius =  0.650 angstrom
                   Q00  =  -0.113352

C          x = -1.861938  y = -1.125697  z = -2.575531 angstrom
           Maximum rank =  0   Radius =  0.650 angstrom
                   Q00  =   0.307493

O          x = -2.804938  y = -2.028697  z = -2.986531 angstrom
           Maximum rank =  0   Radius =  0.650 angstrom
                   Q00  =  -0.672927

H          x =  1.910062  y =  1.375303  z = -0.965531 angstrom
           Maximum rank =  0   Radius =  0.325 angstrom
                   Q00  =   0.062884

H          x =  0.595062  y =  2.475303  z = -0.569531 angstrom
           Maximum rank =  0   Radius =  0.325 angstrom
                   Q00  =   0.069137

H          x =  1.813062  y =  2.081303  z = -3.313531 angstrom
           Maximum rank =  0   Radius =  0.325 angstrom
                   Q00  =   0.073072

H          x =  1.437062  y = -0.369697  z = -2.906531 angstrom
           Maximum rank =  0   Radius =  0.325 angstrom
                   Q00  =   0.069971

H          x = -1.629938  y =  1.742303  z = -0.793531 angstrom
           Maximum rank =  0   Radius =  0.325 angstrom
                   Q00  =   0.068899

H          x = -0.225938  y = -2.052697  z = -3.627531 angstrom
           Maximum rank =  0   Radius =  0.325 angstrom
                   Q00  =   0.071818

H          x = -3.295938  y =  0.032303  z = -1.490531 angstrom
           Maximum rank =  0   Radius =  0.325 angstrom
                   Q00  =   0.081690

H          x = -2.493938  y = -2.537697  z = -3.764531 angstrom
           Maximum rank =  0   Radius =  0.325 angstrom
                   Q00  =   0.409555

H          x =  2.234492  y =  3.438323  z = -2.263471 angstrom
           Maximum rank =  0   Radius =  0.325 angstrom
                   Q00  =   0.082088

H          x =  0.568522  y =  3.272583  z = -2.989201 angstrom
           Maximum rank =  0   Radius =  0.325 angstrom
                   Q00  =   0.085493

Total multipoles referred to origin at
           x =   0.000000,  y =    0.000000,  z =    0.000000 angstrom
                   Q00  =  -0.000000

Finished at 20:12:7 on 26 Apr 2020

  DMA results are available in the Python driver through the
	  variable('DMA DISTRIBUTED MULTIPOLES')
  and
	  variable('DMA TOTAL MULTIPOLES')
  commands.

    Psi4 stopped on: Sunday, 26 April 2020 08:12PM
    Psi4 wall time for execution: 2:41:10.12

*** Psi4 exiting successfully. Buy a developer a beer!
