                               Psi4 1.3.2 release

  ==> Input File <==

--------------------------------------------------------------------------
import numpy as np
set {scf_type pk
basis cc-pvdz
d_convergence 10
gdma_switch   0
gdma_limit    0
gdma_origin   [ 0.0,  0.0,  0.0 ]
}
molecule test {
    units Angstrom
    0 1
    --
    0 1
    C               -0.737913578883628    -0.228801854322767    -0.153516061905294
    C               -2.150913578883628    -0.699801854322767    -0.478516061905294
    C               -1.253913578883628     2.476198145677233    -0.417516061905294
    S               -0.228913578883628     1.203198145677233    -1.154516061905295
    H               -0.733913578883628     0.087198145677233     0.890483938094706
    H               -0.015913578883628    -1.025801854322767    -0.199516061905294
    H               -2.236913578883628    -0.807801854322767    -1.558516061905294
    H               -2.842913578883628     0.086198145677233    -0.173516061905294
    H               -1.074913578883628     2.521198145677233     0.656483938094706
    H               -1.005913578883628     3.441198145677233    -0.860516061905295
    H               -2.306913578883627     2.265198145677233    -0.603516061905294
    H               -2.464855578883628    -1.635161854322767     0.007843938094706
    C                2.424086421116373    -1.990801854322767     0.957483938094706
    C                2.222086421116372    -2.139801854322767     2.460483938094705
    H                1.623086421116372    -2.501801854322767     0.423483938094706
    H                2.418086421116372    -0.933801854322767     0.686483938094705
    H                3.385086421116372    -2.410801854322767     0.663483938094705
    H                3.097086421116373    -1.743801854322767     2.973483938094705
    H                2.076468421116372    -3.197861854322767     2.723743938094705
    H                1.350172421116373    -1.558761854322767     2.795393938094705

}
e, wfn = energy('scf', return_wfn=True)
gdma(wfn)
dmavals = variable('DMA DISTRIBUTED MULTIPOLES')
charges = np.array(dmavals)
print(charges)
np.save('SSI-015MET-023LEU-2-dimer.npy', np.array(charges))--------------------------------------------------------------------------

*** tstart() called on ds3
*** at Tue Apr 28 07:49:37 2020

   => Loading Basis Set <=

    Name: CC-PVDZ
    Role: ORBITAL
    Keyword: BASIS
    atoms 1-3, 13-14  entry C          line   138 file /theoryfs2/ds/metcalf/miniconda2/envs/tf2gpu/share/psi4/basis/cc-pvdz.gbs
    atoms 4           entry S          line   598 file /theoryfs2/ds/metcalf/miniconda2/envs/tf2gpu/share/psi4/basis/cc-pvdz.gbs
    atoms 5-12, 15-20 entry H          line    22 file /theoryfs2/ds/metcalf/miniconda2/envs/tf2gpu/share/psi4/basis/cc-pvdz.gbs

         ---------------------------------------------------------
                                   SCF
               by Justin Turney, Rob Parrish, Andy Simmonett
                          and Daniel G. A. Smith
                              RHF Reference
                        1 Threads,    500 MiB Core
         ---------------------------------------------------------

  ==> Geometry <==

    Molecular point group: c1
    Full point group: C1

    Geometry (in Angstrom), charge = 0, multiplicity = 1:

       Center              X                  Y                   Z               Mass
    ------------   -----------------  -----------------  -----------------  -----------------
         C           -0.737913578884    -0.228801854323    -0.153516061905    12.000000000000
         C           -2.150913578884    -0.699801854323    -0.478516061905    12.000000000000
         C           -1.253913578884     2.476198145677    -0.417516061905    12.000000000000
         S           -0.228913578884     1.203198145677    -1.154516061905    31.972071174400
         H           -0.733913578884     0.087198145677     0.890483938095     1.007825032230
         H           -0.015913578884    -1.025801854323    -0.199516061905     1.007825032230
         H           -2.236913578884    -0.807801854323    -1.558516061905     1.007825032230
         H           -2.842913578884     0.086198145677    -0.173516061905     1.007825032230
         H           -1.074913578884     2.521198145677     0.656483938095     1.007825032230
         H           -1.005913578884     3.441198145677    -0.860516061905     1.007825032230
         H           -2.306913578884     2.265198145677    -0.603516061905     1.007825032230
         H           -2.464855578884    -1.635161854323     0.007843938095     1.007825032230
         C            2.424086421116    -1.990801854323     0.957483938095    12.000000000000
         C            2.222086421116    -2.139801854323     2.460483938095    12.000000000000
         H            1.623086421116    -2.501801854323     0.423483938095     1.007825032230
         H            2.418086421116    -0.933801854323     0.686483938095     1.007825032230
         H            3.385086421116    -2.410801854323     0.663483938095     1.007825032230
         H            3.097086421116    -1.743801854323     2.973483938095     1.007825032230
         H            2.076468421116    -3.197861854323     2.723743938095     1.007825032230
         H            1.350172421116    -1.558761854323     2.795393938095     1.007825032230

  Running in c1 symmetry.

  Rotational constants: A =      0.11328  B =      0.02729  C =      0.02481 [cm^-1]
  Rotational constants: A =   3396.08784  B =    818.03235  C =    743.86887 [MHz]
  Nuclear repulsion =  293.504821296938758

  Charge       = 0
  Multiplicity = 1
  Electrons    = 60
  Nalpha       = 30
  Nbeta        = 30

  ==> Algorithm <==

  SCF Algorithm Type is PK.
  DIIS enabled.
  MOM disabled.
  Fractional occupation disabled.
  Guess Type is SAD.
  Energy threshold   = 1.00e-06
  Density threshold  = 1.00e-10
  Integral threshold = 0.00e+00

  ==> Primary Basis <==

  Basis Set: CC-PVDZ
    Blend: CC-PVDZ
    Number of shells: 80
    Number of basis function: 158
    Number of Cartesian functions: 164
    Spherical Harmonics?: true
    Max angular momentum: 2

  ==> Pre-Iterations <==

   -------------------------------------------------------
    Irrep   Nso     Nmo     Nalpha   Nbeta   Ndocc  Nsocc
   -------------------------------------------------------
     A        158     158       0       0       0       0
   -------------------------------------------------------
    Total     158     158      30      30      30       0
   -------------------------------------------------------

  ==> Integral Setup <==

  Using integral reordering PK algorithm.
  Sizing the integral batches needed.
  Building batch lookup table.
   Calculation information:
      Number of atoms:                  20
      Number of AO shells:              80
      Number of primitives:            230
      Number of atomic orbitals:       164
      Number of basis functions:       158

      Integral cutoff                 1.00e-12
      Number of threads:                 1

	Batch   1 pq = [       0,    9405] index = [             0,44231715] size =     44231715
	Batch   2 pq = [    9405,   12561] index = [      44231715,78895641] size =     34663926
  Task number: 8
  Buffer size: 11059200
  Buffer per thread: 2
  We computed 4294631 shell quartets total.
  Whereas there are 5250420 unique shell quartets.

  ==> DiskJK: Disk-Based J/K Matrices <==

    J tasked:                  Yes
    K tasked:                  Yes
    wK tasked:                  No
    Memory [MiB]:              375
    Schwarz Cutoff:          1E-12

    OpenMP threads:              1

  Minimum eigenvalue in the overlap matrix is 6.4520003031E-03.
  Using Symmetric Orthogonalization.

  SCF Guess: Superposition of Atomic Densities via on-the-fly atomic UHF.

  ==> Iterations <==

                        Total Energy        Delta E     RMS |[F,P]|

   @RHF iter SAD:  -593.92756482946106   -5.93928e+02   0.00000e+00
   @RHF iter   1:  -594.84649898232453   -9.18934e-01   3.19500e-03 DIIS
   @RHF iter   2:  -594.99803374782550   -1.51535e-01   1.30537e-03 DIIS
   @RHF iter   3:  -595.02153774576573   -2.35040e-02   3.01092e-04 DIIS
   @RHF iter   4:  -595.02385423128942   -2.31649e-03   5.61265e-05 DIIS
   @RHF iter   5:  -595.02391606728213   -6.18360e-05   1.62431e-05 DIIS
   @RHF iter   6:  -595.02392109009020   -5.02281e-06   3.53067e-06 DIIS
   @RHF iter   7:  -595.02392137937090   -2.89281e-07   8.28310e-07 DIIS
   @RHF iter   8:  -595.02392139920948   -1.98386e-08   2.80149e-07 DIIS
   @RHF iter   9:  -595.02392140159509   -2.38560e-09   8.62570e-08 DIIS
   @RHF iter  10:  -595.02392140185646   -2.61366e-10   2.21058e-08 DIIS
   @RHF iter  11:  -595.02392140187499   -1.85310e-11   5.30378e-09 DIIS
   @RHF iter  12:  -595.02392140187590   -9.09495e-13   1.62880e-09 DIIS
   @RHF iter  13:  -595.02392140187646   -5.68434e-13   4.95598e-10 DIIS
   @RHF iter  14:  -595.02392140187681   -3.41061e-13   1.13168e-10 DIIS
   @RHF iter  15:  -595.02392140187703   -2.27374e-13   3.62370e-11 DIIS
  Energy and wave function converged.

  ==> Post-Iterations <==

    Orbital Energies [Eh]
    ---------------------

    Doubly Occupied:

       1A    -91.934347     2A    -11.255028     3A    -11.254977
       4A    -11.226340     5A    -11.220373     6A    -11.217613
       7A     -8.938145     8A     -6.620152     9A     -6.618661
      10A     -6.616449    11A     -1.081014    12A     -1.021031
      13A     -0.995998    14A     -0.883616    15A     -0.837992
      16A     -0.788999    17A     -0.631087    18A     -0.605502
      19A     -0.601979    20A     -0.597887    21A     -0.584010
      22A     -0.562171    23A     -0.528442    24A     -0.503399
      25A     -0.502869    26A     -0.490393    27A     -0.486148
      28A     -0.477603    29A     -0.420111    30A     -0.331499

    Virtual:

      31A      0.166107    32A      0.180574    33A      0.202804
      34A      0.211092    35A      0.227494    36A      0.238979
      37A      0.243185    38A      0.250907    39A      0.255989
      40A      0.268678    41A      0.273020    42A      0.281203
      43A      0.290786    44A      0.307743    45A      0.335137
      46A      0.343713    47A      0.390295    48A      0.399323
      49A      0.533809    50A      0.556639    51A      0.583410
      52A      0.595323    53A      0.601801    54A      0.604235
      55A      0.609125    56A      0.623244    57A      0.634621
      58A      0.682426    59A      0.701542    60A      0.713459
      61A      0.730466    62A      0.777521    63A      0.799639
      64A      0.824352    65A      0.828763    66A      0.846656
      67A      0.848793    68A      0.868152    69A      0.869952
      70A      0.880048    71A      0.887420    72A      0.892582
      73A      0.895832    74A      0.900018    75A      0.916509
      76A      0.924285    77A      0.924833    78A      0.933771
      79A      0.950276    80A      0.958706    81A      0.977582
      82A      0.987728    83A      1.026866    84A      1.033857
      85A      1.118928    86A      1.148630    87A      1.205953
      88A      1.216103    89A      1.238245    90A      1.264232
      91A      1.298360    92A      1.337488    93A      1.355316
      94A      1.421852    95A      1.472049    96A      1.477563
      97A      1.496545    98A      1.511519    99A      1.557270
     100A      1.604271   101A      1.652463   102A      1.682110
     103A      1.689444   104A      1.701037   105A      1.708946
     106A      1.848250   107A      1.853952   108A      1.868130
     109A      1.882561   110A      1.892299   111A      1.895681
     112A      1.901088   113A      1.914604   114A      1.934317
     115A      1.944811   116A      1.945627   117A      1.945954
     118A      1.954821   119A      1.960294   120A      1.969574
     121A      1.992434   122A      2.003417   123A      2.017345
     124A      2.019480   125A      2.051401   126A      2.075347
     127A      2.108481   128A      2.127214   129A      2.144695
     130A      2.232818   131A      2.249110   132A      2.290432
     133A      2.300604   134A      2.309087   135A      2.329623
     136A      2.417399   137A      2.447047   138A      2.448132
     139A      2.459754   140A      2.480304   141A      2.558070
     142A      2.566710   143A      2.580757   144A      2.585550
     145A      2.755355   146A      2.758453   147A      2.770474
     148A      2.786019   149A      2.788052   150A      2.795682
     151A      2.833392   152A      2.835624   153A      2.849544
     154A      2.857670   155A      2.894225   156A      2.957171
     157A      2.962896   158A      3.038423

    Final Occupation by Irrep:
              A
    DOCC [    30 ]

  @RHF Final Energy:  -595.02392140187703

   => Energetics <=

    Nuclear Repulsion Energy =            293.5048212969387578
    One-Electron Energy =               -1397.3898147577533564
    Two-Electron Energy =                 508.8610720589377365
    Total Energy =                       -595.0239214018770326

Computation Completed

Properties will be evaluated at   0.000000,   0.000000,   0.000000 [a0]

Properties computed using the SCF density matrix

  Nuclear Dipole Moment: [e a0]
     X:     1.1824      Y:    -6.9192      Z:     7.8680

  Electronic Dipole Moment: [e a0]
     X:    -1.6048      Y:     6.8837      Z:    -7.3685

  Dipole Moment: [e a0]
     X:    -0.4223      Y:    -0.0355      Z:     0.4995     Total:     0.6550

  Dipole Moment: [D]
     X:    -1.0735      Y:    -0.0903      Z:     1.2695     Total:     1.6650

*** tstop() called on ds3 at Tue Apr 28 07:50:16 2020
Module time:
	user time   =      28.96 seconds =       0.48 minutes
	system time =      10.41 seconds =       0.17 minutes
	total time  =         39 seconds =       0.65 minutes
Total time:
	user time   =      28.96 seconds =       0.48 minutes
	system time =      10.41 seconds =       0.17 minutes
	total time  =         39 seconds =       0.65 minutes
                                     G D M A

                                 by Anthony Stone

                           version 2.2.06, 22 June 2011

               Distributed Multipoles from Gaussian wavefunctions

Starting at 7:50:16 on 28 Apr 2020

Using SCF density matrix from file ./SSI/SSI-015MET-023LEU-2-dimer.test.7221.fchk

                         Distributed Multipole Analysis

Standard DMA

Positions and radii in angstrom
Multipole moments in atomic units, ea_0^k for rank k

C          x = -0.737914  y = -0.228802  z = -0.153516 angstrom
           Maximum rank =  0   Radius =  0.650 angstrom
                   Q00  =  -0.202546

C          x = -2.150914  y = -0.699802  z = -0.478516 angstrom
           Maximum rank =  0   Radius =  0.650 angstrom
                   Q00  =  -0.242805

C          x = -1.253914  y =  2.476198  z = -0.417516 angstrom
           Maximum rank =  0   Radius =  0.650 angstrom
                   Q00  =  -0.359961

S          x = -0.228914  y =  1.203198  z = -1.154516 angstrom
           Maximum rank =  0   Radius =  0.650 angstrom
                   Q00  =   0.105150

H          x = -0.733914  y =  0.087198  z =  0.890484 angstrom
           Maximum rank =  0   Radius =  0.325 angstrom
                   Q00  =   0.051469

H          x = -0.015914  y = -1.025802  z = -0.199516 angstrom
           Maximum rank =  0   Radius =  0.325 angstrom
                   Q00  =   0.101308

H          x = -2.236914  y = -0.807802  z = -1.558516 angstrom
           Maximum rank =  0   Radius =  0.325 angstrom
                   Q00  =   0.087266

H          x = -2.842914  y =  0.086198  z = -0.173516 angstrom
           Maximum rank =  0   Radius =  0.325 angstrom
                   Q00  =   0.076960

H          x = -1.074914  y =  2.521198  z =  0.656484 angstrom
           Maximum rank =  0   Radius =  0.325 angstrom
                   Q00  =   0.086278

H          x = -1.005914  y =  3.441198  z = -0.860516 angstrom
           Maximum rank =  0   Radius =  0.325 angstrom
                   Q00  =   0.122132

H          x = -2.306914  y =  2.265198  z = -0.603516 angstrom
           Maximum rank =  0   Radius =  0.325 angstrom
                   Q00  =   0.085500

H          x = -2.464856  y = -1.635162  z =  0.007844 angstrom
           Maximum rank =  0   Radius =  0.325 angstrom
                   Q00  =   0.090585

C          x =  2.424086  y = -1.990802  z =  0.957484 angstrom
           Maximum rank =  0   Radius =  0.650 angstrom
                   Q00  =  -0.238014

C          x =  2.222086  y = -2.139802  z =  2.460484 angstrom
           Maximum rank =  0   Radius =  0.650 angstrom
                   Q00  =  -0.234603

H          x =  1.623086  y = -2.501802  z =  0.423484 angstrom
           Maximum rank =  0   Radius =  0.325 angstrom
                   Q00  =   0.073266

H          x =  2.418086  y = -0.933802  z =  0.686484 angstrom
           Maximum rank =  0   Radius =  0.325 angstrom
                   Q00  =   0.083327

H          x =  3.385086  y = -2.410802  z =  0.663484 angstrom
           Maximum rank =  0   Radius =  0.325 angstrom
                   Q00  =   0.081553

H          x =  3.097086  y = -1.743802  z =  2.973484 angstrom
           Maximum rank =  0   Radius =  0.325 angstrom
                   Q00  =   0.080216

H          x =  2.076468  y = -3.197862  z =  2.723744 angstrom
           Maximum rank =  0   Radius =  0.325 angstrom
                   Q00  =   0.077684

H          x =  1.350172  y = -1.558762  z =  2.795394 angstrom
           Maximum rank =  0   Radius =  0.325 angstrom
                   Q00  =   0.075238

Total multipoles referred to origin at
           x =   0.000000,  y =    0.000000,  z =    0.000000 angstrom
                   Q00  =  -0.000000

Finished at 7:50:16 on 28 Apr 2020

  DMA results are available in the Python driver through the
	  variable('DMA DISTRIBUTED MULTIPOLES')
  and
	  variable('DMA TOTAL MULTIPOLES')
  commands.

    Psi4 stopped on: Tuesday, 28 April 2020 07:50AM
    Psi4 wall time for execution: 0:00:38.83

*** Psi4 exiting successfully. Buy a developer a beer!
