                               Psi4 1.3.2 release

  ==> Input File <==

--------------------------------------------------------------------------
import numpy as np
set {scf_type pk
basis cc-pvdz
d_convergence 10
gdma_switch   0
gdma_limit    0
gdma_origin   [ 0.0,  0.0,  0.0 ]
}
molecule test {
    units Angstrom
    -1 1
    --
    -1 1
    C               -0.870483728247972    -0.578177407687399     1.144336869153832
    C               -1.577483728247972    -1.375177407687399     2.231336869153832
    C               -1.730483728247972    -0.465177407687399    -0.086663130846169
    O               -2.599483728247972    -1.345177407687399    -0.332663130846168
    O               -1.440483728247972     0.464822592312601    -0.862663130846169
    H               -0.609483728247972     0.410822592312601     1.525336869153831
    H                0.049516271752028    -1.082177407687399     0.845336869153831
    H               -1.958483728247972    -2.296177407687399     1.786336869153831
    H               -2.415603728247972    -0.801767407687399     2.654126869153832
    H               -0.834633728247972    -1.701307407687399     2.974186869153832
    C                2.235516271752028     0.630822592312601    -0.505663130846169
    C                1.853516271752028     2.109822592312601    -0.665663130846169
    O                3.645516271752028     0.513822592312601    -0.814663130846169
    H                2.058516271752028     0.322822592312601     0.525336869153831
    H                1.639516271752028     0.017822592312601    -1.177663130846168
    H                2.473516271752028     2.658822592312601     0.040336869153831
    H                3.987516271752028    -0.288177407687399    -0.388663130846169
    H                0.800016271752028     2.309602592312602    -0.420243130846168
    H                2.134526271752028     2.431502592312601    -1.679343130846169

}
e, wfn = energy('scf', return_wfn=True)
gdma(wfn)
dmavals = variable('DMA DISTRIBUTED MULTIPOLES')
charges = np.array(dmavals)
print(charges)
np.save('SSI-007ASP-119SER-1-dimer.npy', np.array(charges))--------------------------------------------------------------------------

*** tstart() called on ds3
*** at Sun Apr 26 20:35:46 2020

   => Loading Basis Set <=

    Name: CC-PVDZ
    Role: ORBITAL
    Keyword: BASIS
    atoms 1-3, 11-12  entry C          line   138 file /theoryfs2/ds/metcalf/miniconda2/envs/tf2gpu/share/psi4/basis/cc-pvdz.gbs
    atoms 4-5, 13     entry O          line   198 file /theoryfs2/ds/metcalf/miniconda2/envs/tf2gpu/share/psi4/basis/cc-pvdz.gbs
    atoms 6-10, 14-19 entry H          line    22 file /theoryfs2/ds/metcalf/miniconda2/envs/tf2gpu/share/psi4/basis/cc-pvdz.gbs

         ---------------------------------------------------------
                                   SCF
               by Justin Turney, Rob Parrish, Andy Simmonett
                          and Daniel G. A. Smith
                              RHF Reference
                        1 Threads,    500 MiB Core
         ---------------------------------------------------------

  ==> Geometry <==

    Molecular point group: c1
    Full point group: C1

    Geometry (in Angstrom), charge = -1, multiplicity = 1:

       Center              X                  Y                   Z               Mass
    ------------   -----------------  -----------------  -----------------  -----------------
         C           -0.870483728248    -0.578177407687     1.144336869154    12.000000000000
         C           -1.577483728248    -1.375177407687     2.231336869154    12.000000000000
         C           -1.730483728248    -0.465177407687    -0.086663130846    12.000000000000
         O           -2.599483728248    -1.345177407687    -0.332663130846    15.994914619570
         O           -1.440483728248     0.464822592313    -0.862663130846    15.994914619570
         H           -0.609483728248     0.410822592313     1.525336869154     1.007825032230
         H            0.049516271752    -1.082177407687     0.845336869154     1.007825032230
         H           -1.958483728248    -2.296177407687     1.786336869154     1.007825032230
         H           -2.415603728248    -0.801767407687     2.654126869154     1.007825032230
         H           -0.834633728248    -1.701307407687     2.974186869154     1.007825032230
         C            2.235516271752     0.630822592313    -0.505663130846    12.000000000000
         C            1.853516271752     2.109822592313    -0.665663130846    12.000000000000
         O            3.645516271752     0.513822592313    -0.814663130846    15.994914619570
         H            2.058516271752     0.322822592313     0.525336869154     1.007825032230
         H            1.639516271752     0.017822592313    -1.177663130846     1.007825032230
         H            2.473516271752     2.658822592313     0.040336869154     1.007825032230
         H            3.987516271752    -0.288177407687    -0.388663130846     1.007825032230
         H            0.800016271752     2.309602592313    -0.420243130846     1.007825032230
         H            2.134526271752     2.431502592313    -1.679343130846     1.007825032230

  Running in c1 symmetry.

  Rotational constants: A =      0.09753  B =      0.02287  C =      0.02063 [cm^-1]
  Rotational constants: A =   2923.90418  B =    685.69067  C =    618.45503 [MHz]
  Nuclear repulsion =  363.404808615683010

  Charge       = -1
  Multiplicity = 1
  Electrons    = 66
  Nalpha       = 33
  Nbeta        = 33

  ==> Algorithm <==

  SCF Algorithm Type is PK.
  DIIS enabled.
  MOM disabled.
  Fractional occupation disabled.
  Guess Type is SAD.
  Energy threshold   = 1.00e-06
  Density threshold  = 1.00e-10
  Integral threshold = 0.00e+00

  ==> Primary Basis <==

  Basis Set: CC-PVDZ
    Blend: CC-PVDZ
    Number of shells: 81
    Number of basis function: 167
    Number of Cartesian functions: 175
    Spherical Harmonics?: true
    Max angular momentum: 2

  ==> Pre-Iterations <==

   -------------------------------------------------------
    Irrep   Nso     Nmo     Nalpha   Nbeta   Ndocc  Nsocc
   -------------------------------------------------------
     A        167     167       0       0       0       0
   -------------------------------------------------------
    Total     167     167      33      33      33       0
   -------------------------------------------------------

  ==> Integral Setup <==

  Using integral reordering PK algorithm.
  Sizing the integral batches needed.
  Building batch lookup table.
   Calculation information:
      Number of atoms:                  19
      Number of AO shells:              81
      Number of primitives:            231
      Number of atomic orbitals:       175
      Number of basis functions:       167

      Integral cutoff                 1.00e-12
      Number of threads:                 1

	Batch   1 pq = [       0,    9405] index = [             0,44231715] size =     44231715
	Batch   2 pq = [    9405,   13301] index = [      44231715,88464951] size =     44233236
	Batch   3 pq = [   13301,   14028] index = [      88464951,98399406] size =      9934455
  Task number: 9
  Buffer size: 11059200
  Buffer per thread: 2
  We computed 4333967 shell quartets total.
  Whereas there are 5516181 unique shell quartets.

  ==> DiskJK: Disk-Based J/K Matrices <==

    J tasked:                  Yes
    K tasked:                  Yes
    wK tasked:                  No
    Memory [MiB]:              375
    Schwarz Cutoff:          1E-12

    OpenMP threads:              1

  Minimum eigenvalue in the overlap matrix is 3.6067616637E-03.
  Using Symmetric Orthogonalization.

  SCF Guess: Superposition of Atomic Densities via on-the-fly atomic UHF.

  ==> Iterations <==

                        Total Energy        Delta E     RMS |[F,P]|

   @RHF iter SAD:  -418.55246517019134   -4.18552e+02   0.00000e+00
   @RHF iter   1:  -420.05869541526914   -1.50623e+00   4.73691e-03 DIIS
   @RHF iter   2:  -420.29720849337644   -2.38513e-01   2.64249e-03 DIIS
   @RHF iter   3:  -420.36831258756803   -7.11041e-02   4.02854e-04 DIIS
   @RHF iter   4:  -420.37144399976097   -3.13141e-03   1.55576e-04 DIIS
   @RHF iter   5:  -420.37188677844841   -4.42779e-04   2.64422e-05 DIIS
   @RHF iter   6:  -420.37190331649145   -1.65380e-05   8.61816e-06 DIIS
   @RHF iter   7:  -420.37190463133209   -1.31484e-06   3.02449e-06 DIIS
   @RHF iter   8:  -420.37190479398697   -1.62655e-07   7.83979e-07 DIIS
   @RHF iter   9:  -420.37190480770715   -1.37202e-08   3.17896e-07 DIIS
   @RHF iter  10:  -420.37190480986720   -2.16005e-09   8.78545e-08 DIIS
   @RHF iter  11:  -420.37190481011186   -2.44654e-10   2.90117e-08 DIIS
   @RHF iter  12:  -420.37190481014062   -2.87628e-11   9.88075e-09 DIIS
   @RHF iter  13:  -420.37190481014204   -1.42109e-12   3.25410e-09 DIIS
   @RHF iter  14:  -420.37190481014392   -1.87583e-12   1.12550e-09 DIIS
   @RHF iter  15:  -420.37190481014949   -5.57066e-12   3.51879e-10 DIIS
   @RHF iter  16:  -420.37190481014824    1.25056e-12   1.22825e-10 DIIS
   @RHF iter  17:  -420.37190481014807    1.70530e-13   3.73215e-11 DIIS
  Energy and wave function converged.

  ==> Post-Iterations <==

    Orbital Energies [Eh]
    ---------------------

    Doubly Occupied:

       1A    -20.443293     2A    -20.267035     3A    -20.266398
       4A    -11.158777     5A    -11.118031     6A    -11.102190
       7A    -11.071541     8A    -11.056128     9A     -1.234602
      10A     -1.154830    11A     -1.042766    12A     -0.887611
      13A     -0.876301    14A     -0.715275    15A     -0.704170
      16A     -0.575629    17A     -0.521714    18A     -0.513755
      19A     -0.465815    20A     -0.445788    21A     -0.435677
      22A     -0.421714    23A     -0.399950    24A     -0.394874
      25A     -0.371524    26A     -0.362000    27A     -0.355760
      28A     -0.328870    29A     -0.326686    30A     -0.302844
      31A     -0.187111    32A     -0.177781    33A     -0.167760

    Virtual:

      34A      0.284842    35A      0.319741    36A      0.327801
      37A      0.357256    38A      0.363353    39A      0.375102
      40A      0.391455    41A      0.409078    42A      0.420036
      43A      0.424399    44A      0.444086    45A      0.488398
      46A      0.489807    47A      0.508224    48A      0.560136
      49A      0.611938    50A      0.691164    51A      0.721424
      52A      0.735163    53A      0.740965    54A      0.763300
      55A      0.786896    56A      0.792158    57A      0.842603
      58A      0.854408    59A      0.915254    60A      0.923796
      61A      0.945641    62A      0.966048    63A      0.974229
      64A      0.993376    65A      1.013852    66A      1.017184
      67A      1.020203    68A      1.027325    69A      1.035737
      70A      1.043906    71A      1.057723    72A      1.064023
      73A      1.066885    74A      1.082489    75A      1.094100
      76A      1.131955    77A      1.147616    78A      1.236239
      79A      1.262274    80A      1.267608    81A      1.290337
      82A      1.307963    83A      1.326574    84A      1.372155
      85A      1.401037    86A      1.434812    87A      1.463958
      88A      1.512063    89A      1.531515    90A      1.558650
      91A      1.595891    92A      1.601231    93A      1.622959
      94A      1.631899    95A      1.641662    96A      1.668778
      97A      1.678930    98A      1.707277    99A      1.754128
     100A      1.797893   101A      1.802774   102A      1.835857
     103A      1.887787   104A      1.896340   105A      1.926891
     106A      1.982360   107A      1.993909   108A      2.009136
     109A      2.030894   110A      2.032800   111A      2.048667
     112A      2.076043   113A      2.082819   114A      2.096621
     115A      2.103820   116A      2.107784   117A      2.114164
     118A      2.143130   119A      2.166269   120A      2.170848
     121A      2.194447   122A      2.235604   123A      2.238427
     124A      2.253838   125A      2.290258   126A      2.366448
     127A      2.377069   128A      2.383881   129A      2.410476
     130A      2.415411   131A      2.474717   132A      2.502229
     133A      2.549743   134A      2.581514   135A      2.597304
     136A      2.649720   137A      2.655427   138A      2.668783
     139A      2.696222   140A      2.725685   141A      2.756843
     142A      2.805044   143A      2.882989   144A      2.893257
     145A      2.911218   146A      2.925509   147A      2.974801
     148A      3.002859   149A      3.017259   150A      3.047494
     151A      3.064681   152A      3.130010   153A      3.241867
     154A      3.282697   155A      3.299817   156A      3.355989
     157A      3.414202   158A      3.499475   159A      3.549886
     160A      3.622967   161A      3.716872   162A      3.771554
     163A      3.844902   164A      4.042703   165A      4.098460
     166A      4.193084   167A      4.207028

    Final Occupation by Irrep:
              A
    DOCC [    33 ]

  @RHF Final Energy:  -420.37190481014807

   => Energetics <=

    Nuclear Repulsion Energy =            363.4048086156830095
    One-Electron Energy =               -1307.8450250956550462
    Two-Electron Energy =                 524.0683116698239701
    Total Energy =                       -420.3719048101480666

Computation Completed

Properties will be evaluated at   0.000000,   0.000000,   0.000000 [a0]

Properties computed using the SCF density matrix

  Nuclear Dipole Moment: [e a0]
     X:     6.8650      Y:     1.8561      Z:     6.2574

  Electronic Dipole Moment: [e a0]
     X:    -3.7719      Y:    -1.5438      Z:    -4.7780

  Dipole Moment: [e a0]
     X:     3.0931      Y:     0.3123      Z:     1.4794     Total:     3.4428

  Dipole Moment: [D]
     X:     7.8618      Y:     0.7938      Z:     3.7602     Total:     8.7508

*** tstop() called on ds3 at Sun Apr 26 20:36:57 2020
Module time:
	user time   =      30.55 seconds =       0.51 minutes
	system time =      12.63 seconds =       0.21 minutes
	total time  =         71 seconds =       1.18 minutes
Total time:
	user time   =      30.55 seconds =       0.51 minutes
	system time =      12.63 seconds =       0.21 minutes
	total time  =         71 seconds =       1.18 minutes
                                     G D M A

                                 by Anthony Stone

                           version 2.2.06, 22 June 2011

               Distributed Multipoles from Gaussian wavefunctions

Starting at 20:36:57 on 26 Apr 2020

Using SCF density matrix from file ./SSI/SSI-007ASP-119SER-1-dimer.test.31052.fchk

                         Distributed Multipole Analysis

Standard DMA

Positions and radii in angstrom
Multipole moments in atomic units, ea_0^k for rank k

C          x = -0.870484  y = -0.578177  z =  1.144337 angstrom
           Maximum rank =  0   Radius =  0.650 angstrom
                   Q00  =  -0.144537

C          x = -1.577484  y = -1.375177  z =  2.231337 angstrom
           Maximum rank =  0   Radius =  0.650 angstrom
                   Q00  =  -0.224052

C          x = -1.730484  y = -0.465177  z = -0.086663 angstrom
           Maximum rank =  0   Radius =  0.650 angstrom
                   Q00  =   1.004407

O          x = -2.599484  y = -1.345177  z = -0.332663 angstrom
           Maximum rank =  0   Radius =  0.650 angstrom
                   Q00  =  -0.955354

O          x = -1.440484  y =  0.464823  z = -0.862663 angstrom
           Maximum rank =  0   Radius =  0.650 angstrom
                   Q00  =  -0.928841

H          x = -0.609484  y =  0.410823  z =  1.525337 angstrom
           Maximum rank =  0   Radius =  0.325 angstrom
                   Q00  =   0.029878

H          x =  0.049516  y = -1.082177  z =  0.845337 angstrom
           Maximum rank =  0   Radius =  0.325 angstrom
                   Q00  =   0.052744

H          x = -1.958484  y = -2.296177  z =  1.786337 angstrom
           Maximum rank =  0   Radius =  0.325 angstrom
                   Q00  =   0.096609

H          x = -2.415604  y = -0.801767  z =  2.654127 angstrom
           Maximum rank =  0   Radius =  0.325 angstrom
                   Q00  =   0.066202

H          x = -0.834634  y = -1.701307  z =  2.974187 angstrom
           Maximum rank =  0   Radius =  0.325 angstrom
                   Q00  =   0.010287

C          x =  2.235516  y =  0.630823  z = -0.505663 angstrom
           Maximum rank =  0   Radius =  0.650 angstrom
                   Q00  =   0.071881

C          x =  1.853516  y =  2.109823  z = -0.665663 angstrom
           Maximum rank =  0   Radius =  0.650 angstrom
                   Q00  =  -0.209259

O          x =  3.645516  y =  0.513823  z = -0.814663 angstrom
           Maximum rank =  0   Radius =  0.650 angstrom
                   Q00  =  -0.601342

H          x =  2.058516  y =  0.322823  z =  0.525337 angstrom
           Maximum rank =  0   Radius =  0.325 angstrom
                   Q00  =   0.048687

H          x =  1.639516  y =  0.017823  z = -1.177663 angstrom
           Maximum rank =  0   Radius =  0.325 angstrom
                   Q00  =   0.076422

H          x =  2.473516  y =  2.658823  z =  0.040337 angstrom
           Maximum rank =  0   Radius =  0.325 angstrom
                   Q00  =   0.044414

H          x =  3.987516  y = -0.288177  z = -0.388663 angstrom
           Maximum rank =  0   Radius =  0.325 angstrom
                   Q00  =   0.372277

H          x =  0.800016  y =  2.309603  z = -0.420243 angstrom
           Maximum rank =  0   Radius =  0.325 angstrom
                   Q00  =   0.116819

H          x =  2.134526  y =  2.431503  z = -1.679343 angstrom
           Maximum rank =  0   Radius =  0.325 angstrom
                   Q00  =   0.072758

Total multipoles referred to origin at
           x =   0.000000,  y =    0.000000,  z =    0.000000 angstrom
                   Q00  =  -1.000000

Finished at 20:36:57 on 26 Apr 2020

  DMA results are available in the Python driver through the
	  variable('DMA DISTRIBUTED MULTIPOLES')
  and
	  variable('DMA TOTAL MULTIPOLES')
  commands.

    Psi4 stopped on: Sunday, 26 April 2020 08:36PM
    Psi4 wall time for execution: 0:01:11.37

*** Psi4 exiting successfully. Buy a developer a beer!
