                               Psi4 1.3.2 release

  ==> Input File <==

--------------------------------------------------------------------------
import numpy as np
set {scf_type pk
basis cc-pvdz
d_convergence 10
gdma_switch   0
gdma_limit    0
gdma_origin   [ 0.0,  0.0,  0.0 ]
}
molecule test {
    units Angstrom
    0 1
    --
    0 1
    C                5.031451404632298    -1.651222902546162     0.510349827350001
    C                0.799451404632298    -1.348222902546162     1.279349827350001
    C                1.258451404632298    -1.628222902546162    -0.007650172649999
    C                1.712451404632298    -1.164222902546162     2.316349827350002
    C                2.631451404632299    -1.720222902546162    -0.255650172649999
    C                3.081451404632299    -1.261222902546162     2.064349827350001
    C                3.553451404632298    -1.536222902546162     0.776349827350001
    H               -0.262548595367702    -1.274222902546162     1.473349827350001
    H                0.551451404632298    -1.776222902546162    -0.812650172649999
    H                1.346451404632298    -0.969222902546162     3.312349827350001
    H                2.976451404632299    -1.939222902546162    -1.254650172649999
    H                3.747451404632298    -1.158222902546162     2.905349827350001
    H                5.243451404632297    -1.462222902546161    -0.538650172649999
    H                5.315451404632298    -2.686222902546161     0.709349827350001
    H                5.648871404632298    -0.999972902546162     1.146479827350001
    C               -0.699548595367702     1.441777097453838    -0.901650172649999
    C               -0.339548595367702     2.728777097453839    -1.640650172649999
    C               -2.181548595367701     1.250777097453838    -0.766650172649999
    C               -2.958548595367702     1.141777097453838     0.341349827350001
    C               -4.267548595367702     1.035777097453839    -1.423650172649999
    N               -3.021548595367702     1.181777097453838    -1.861650172649999
    N               -4.255548595367702     1.008777097453838    -0.097650172649999
    H               -0.295548595367702     0.588777097453838    -1.447650172649999
    H               -0.252548595367702     1.446777097453838     0.091349827350001
    H               -0.762548595367702     2.670777097453839    -2.643650172649999
    H               -2.626548595367701     1.157777097453838     1.367349827350001
    H               -5.149548595367703     0.938777097453838    -2.044650172649999
    H               -5.078548595367701     0.868777097453838     0.491349827350001
    H                0.751591404632298     2.849597097453838    -1.710120172649999
    H               -0.789698595367702     3.583487097453839    -1.114510172649999

}
e, wfn = energy('scf', return_wfn=True)
gdma(wfn)
dmavals = variable('DMA DISTRIBUTED MULTIPOLES')
charges = np.array(dmavals)
print(charges)
np.save('SSI-126PHE-132HIE-1-dimer.npy', np.array(charges))--------------------------------------------------------------------------

*** tstart() called on ds3
*** at Sun Apr 26 17:20:02 2020

   => Loading Basis Set <=

    Name: CC-PVDZ
    Role: ORBITAL
    Keyword: BASIS
    atoms 1-7, 16-20  entry C          line   138 file /theoryfs2/ds/metcalf/miniconda2/envs/tf2gpu/share/psi4/basis/cc-pvdz.gbs
    atoms 8-15, 23-30 entry H          line    22 file /theoryfs2/ds/metcalf/miniconda2/envs/tf2gpu/share/psi4/basis/cc-pvdz.gbs
    atoms 21-22       entry N          line   168 file /theoryfs2/ds/metcalf/miniconda2/envs/tf2gpu/share/psi4/basis/cc-pvdz.gbs

         ---------------------------------------------------------
                                   SCF
               by Justin Turney, Rob Parrish, Andy Simmonett
                          and Daniel G. A. Smith
                              RHF Reference
                        1 Threads,    500 MiB Core
         ---------------------------------------------------------

  ==> Geometry <==

    Molecular point group: c1
    Full point group: C1

    Geometry (in Angstrom), charge = 0, multiplicity = 1:

       Center              X                  Y                   Z               Mass
    ------------   -----------------  -----------------  -----------------  -----------------
         C            5.031451404632    -1.651222902546     0.510349827350    12.000000000000
         C            0.799451404632    -1.348222902546     1.279349827350    12.000000000000
         C            1.258451404632    -1.628222902546    -0.007650172650    12.000000000000
         C            1.712451404632    -1.164222902546     2.316349827350    12.000000000000
         C            2.631451404632    -1.720222902546    -0.255650172650    12.000000000000
         C            3.081451404632    -1.261222902546     2.064349827350    12.000000000000
         C            3.553451404632    -1.536222902546     0.776349827350    12.000000000000
         H           -0.262548595368    -1.274222902546     1.473349827350     1.007825032230
         H            0.551451404632    -1.776222902546    -0.812650172650     1.007825032230
         H            1.346451404632    -0.969222902546     3.312349827350     1.007825032230
         H            2.976451404632    -1.939222902546    -1.254650172650     1.007825032230
         H            3.747451404632    -1.158222902546     2.905349827350     1.007825032230
         H            5.243451404632    -1.462222902546    -0.538650172650     1.007825032230
         H            5.315451404632    -2.686222902546     0.709349827350     1.007825032230
         H            5.648871404632    -0.999972902546     1.146479827350     1.007825032230
         C           -0.699548595368     1.441777097454    -0.901650172650    12.000000000000
         C           -0.339548595368     2.728777097454    -1.640650172650    12.000000000000
         C           -2.181548595368     1.250777097454    -0.766650172650    12.000000000000
         C           -2.958548595368     1.141777097454     0.341349827350    12.000000000000
         C           -4.267548595368     1.035777097454    -1.423650172650    12.000000000000
         N           -3.021548595368     1.181777097454    -1.861650172650    14.003074004430
         N           -4.255548595368     1.008777097454    -0.097650172650    14.003074004430
         H           -0.295548595368     0.588777097454    -1.447650172650     1.007825032230
         H           -0.252548595368     1.446777097454     0.091349827350     1.007825032230
         H           -0.762548595368     2.670777097454    -2.643650172650     1.007825032230
         H           -2.626548595368     1.157777097454     1.367349827350     1.007825032230
         H           -5.149548595368     0.938777097454    -2.044650172650     1.007825032230
         H           -5.078548595368     0.868777097454     0.491349827350     1.007825032230
         H            0.751591404632     2.849597097454    -1.710120172650     1.007825032230
         H           -0.789698595368     3.583487097454    -1.114510172650     1.007825032230

  Running in c1 symmetry.

  Rotational constants: A =      0.04788  B =      0.00781  C =      0.00730 [cm^-1]
  Rotational constants: A =   1435.46956  B =    234.05824  C =    218.80372 [MHz]
  Nuclear repulsion =  784.418604045054622

  Charge       = 0
  Multiplicity = 1
  Electrons    = 102
  Nalpha       = 51
  Nbeta        = 51

  ==> Algorithm <==

  SCF Algorithm Type is PK.
  DIIS enabled.
  MOM disabled.
  Fractional occupation disabled.
  Guess Type is SAD.
  Energy threshold   = 1.00e-06
  Density threshold  = 1.00e-10
  Integral threshold = 0.00e+00

  ==> Primary Basis <==

  Basis Set: CC-PVDZ
    Blend: CC-PVDZ
    Number of shells: 132
    Number of basis function: 276
    Number of Cartesian functions: 290
    Spherical Harmonics?: true
    Max angular momentum: 2

  ==> Pre-Iterations <==

   -------------------------------------------------------
    Irrep   Nso     Nmo     Nalpha   Nbeta   Ndocc  Nsocc
   -------------------------------------------------------
     A        276     276       0       0       0       0
   -------------------------------------------------------
    Total     276     276      51      51      51       0
   -------------------------------------------------------

  ==> Integral Setup <==

  Using integral reordering PK algorithm.
  Sizing the integral batches needed.
  Building batch lookup table.
   Calculation information:
      Number of atoms:                  30
      Number of AO shells:             132
      Number of primitives:            388
      Number of atomic orbitals:       290
      Number of basis functions:       276

      Integral cutoff                 1.00e-12
      Number of threads:                 1

	Batch   1 pq = [       0,    9405] index = [             0,44231715] size =     44231715
	Batch   2 pq = [    9405,   13301] index = [      44231715,88464951] size =     44233236
	Batch   3 pq = [   13301,   16290] index = [      88464951,132690195] size =     44225244
	Batch   4 pq = [   16290,   18810] index = [     132690195,176917455] size =     44227260
	Batch   5 pq = [   18810,   21030] index = [     176917455,221140965] size =     44223510
	Batch   6 pq = [   21030,   23037] index = [     221140965,265363203] size =     44222238
	Batch   7 pq = [   23037,   24883] index = [     265363203,309594286] size =     44231083
	Batch   8 pq = [   24883,   26601] index = [     309594286,353819901] size =     44225615
	Batch   9 pq = [   26601,   28214] index = [     353819901,398029005] size =     44209104
	Batch  10 pq = [   28214,   29740] index = [     398029005,442248670] size =     44219665
	Batch  11 pq = [   29740,   31191] index = [     442248670,486454836] size =     44206166
	Batch  12 pq = [   31191,   32578] index = [     486454836,530679331] size =     44224495
	Batch  13 pq = [   32578,   33908] index = [     530679331,574893186] size =     44213855
	Batch  14 pq = [   33908,   35188] index = [     574893186,619115266] size =     44222080
	Batch  15 pq = [   35188,   36423] index = [     619115266,663335676] size =     44220410
	Batch  16 pq = [   36423,   37617] index = [     663335676,707538153] size =     44202477
	Batch  17 pq = [   37617,   38226] index = [     707538153,730632651] size =     23094498
  Task number: 67
  Buffer size: 11059200
  Buffer per thread: 2
  We computed 31520768 shell quartets total.
  Whereas there are 38531031 unique shell quartets.

  ==> DiskJK: Disk-Based J/K Matrices <==

    J tasked:                  Yes
    K tasked:                  Yes
    wK tasked:                  No
    Memory [MiB]:              375
    Schwarz Cutoff:          1E-12

    OpenMP threads:              1

  Minimum eigenvalue in the overlap matrix is 3.1611823855E-04.
  Using Symmetric Orthogonalization.

  SCF Guess: Superposition of Atomic Densities via on-the-fly atomic UHF.

  ==> Iterations <==

                        Total Energy        Delta E     RMS |[F,P]|

   @RHF iter SAD:  -571.68390956138421   -5.71684e+02   0.00000e+00
   @RHF iter   1:  -572.35701330667575   -6.73104e-01   2.45401e-03 DIIS
   @RHF iter   2:  -572.61079198703965   -2.53779e-01   1.20332e-03 DIIS
   @RHF iter   3:  -572.66422101126466   -5.34290e-02   3.28135e-04 DIIS
   @RHF iter   4:  -572.66921566077815   -4.99465e-03   1.35887e-04 DIIS
   @RHF iter   5:  -572.66998482621534   -7.69165e-04   1.86615e-05 DIIS
   @RHF iter   6:  -572.67000995426235   -2.51280e-05   7.67918e-06 DIIS
   @RHF iter   7:  -572.67001361103735   -3.65677e-06   2.45788e-06 DIIS
   @RHF iter   8:  -572.67001424795467   -6.36917e-07   1.03673e-06 DIIS
   @RHF iter   9:  -572.67001438310569   -1.35151e-07   3.91745e-07 DIIS
   @RHF iter  10:  -572.67001440197851   -1.88728e-08   1.31205e-07 DIIS
   @RHF iter  11:  -572.67001440459751   -2.61900e-09   5.47088e-08 DIIS
   @RHF iter  12:  -572.67001440490958   -3.12070e-10   2.36081e-08 DIIS
   @RHF iter  13:  -572.67001440496767   -5.80940e-11   7.43045e-09 DIIS
   @RHF iter  14:  -572.67001440497688   -9.20863e-12   3.17189e-09 DIIS
   @RHF iter  15:  -572.67001440498245   -5.57066e-12   1.18905e-09 DIIS
   @RHF iter  16:  -572.67001440497984    2.61480e-12   5.02499e-10 DIIS
   @RHF iter  17:  -572.67001440498075   -9.09495e-13   2.26966e-10 DIIS
   @RHF iter  18:  -572.67001440497870    2.04636e-12   7.07076e-11 DIIS
  Energy and wave function converged.

  ==> Post-Iterations <==

    Orbital Energies [Eh]
    ---------------------

    Doubly Occupied:

       1A    -15.620386     2A    -15.527098     3A    -11.292352
       4A    -11.248778     5A    -11.241464     6A    -11.236868
       7A    -11.234271     8A    -11.234151     9A    -11.229517
      10A    -11.229344    11A    -11.229040    12A    -11.228454
      13A    -11.217126    14A    -11.206785    15A     -1.340939
      16A     -1.152390    17A     -1.148627    18A     -1.046122
      19A     -1.041769    20A     -1.008480    21A     -0.982306
      22A     -0.929714    23A     -0.851382    24A     -0.822141
      25A     -0.815651    26A     -0.793555    27A     -0.759319
      28A     -0.731192    29A     -0.688000    30A     -0.631213
      31A     -0.627350    32A     -0.618715    33A     -0.605097
      34A     -0.597946    35A     -0.580933    36A     -0.577306
      37A     -0.572521    38A     -0.560739    39A     -0.556349
      40A     -0.537421    41A     -0.505056    42A     -0.487182
      43A     -0.484812    44A     -0.482058    45A     -0.476734
      46A     -0.474780    47A     -0.408612    48A     -0.375738
      49A     -0.329524    50A     -0.318513    51A     -0.308725

    Virtual:

      52A      0.136626    53A      0.141751    54A      0.171096
      55A      0.178019    56A      0.190363    57A      0.196797
      58A      0.208234    59A      0.216895    60A      0.222418
      61A      0.227033    62A      0.246720    63A      0.248641
      64A      0.257760    65A      0.272456    66A      0.275664
      67A      0.284937    68A      0.286597    69A      0.287758
      70A      0.302230    71A      0.332837    72A      0.370974
      73A      0.376969    74A      0.383875    75A      0.393403
      76A      0.408239    77A      0.439589    78A      0.455908
      79A      0.464210    80A      0.479352    81A      0.481511
      82A      0.488031    83A      0.494751    84A      0.560190
      85A      0.588256    86A      0.607571    87A      0.608546
      88A      0.628750    89A      0.631397    90A      0.649188
      91A      0.661908    92A      0.680954    93A      0.686417
      94A      0.699635    95A      0.707726    96A      0.713128
      97A      0.714419    98A      0.728764    99A      0.738441
     100A      0.741653   101A      0.748997   102A      0.757135
     103A      0.760142   104A      0.767060   105A      0.772200
     106A      0.789829   107A      0.811648   108A      0.817347
     109A      0.833369   110A      0.841147   111A      0.857978
     112A      0.866663   113A      0.872813   114A      0.879386
     115A      0.889844   116A      0.897387   117A      0.897967
     118A      0.901533   119A      0.910010   120A      0.915964
     121A      0.928463   122A      0.930141   123A      0.936197
     124A      0.940868   125A      0.945993   126A      0.961911
     127A      0.969221   128A      0.976486   129A      0.979820
     130A      0.992668   131A      1.007459   132A      1.022024
     133A      1.050328   134A      1.055567   135A      1.073272
     136A      1.107814   137A      1.110393   138A      1.120374
     139A      1.129212   140A      1.142126   141A      1.149797
     142A      1.154352   143A      1.158032   144A      1.187322
     145A      1.194243   146A      1.235146   147A      1.238499
     148A      1.251986   149A      1.253726   150A      1.260273
     151A      1.270850   152A      1.290685   153A      1.305499
     154A      1.311048   155A      1.317991   156A      1.326551
     157A      1.329987   158A      1.335916   159A      1.396905
     160A      1.411465   161A      1.434679   162A      1.447443
     163A      1.455889   164A      1.498923   165A      1.516355
     166A      1.528899   167A      1.541555   168A      1.553568
     169A      1.572817   170A      1.596392   171A      1.620161
     172A      1.667348   173A      1.677323   174A      1.696625
     175A      1.700589   176A      1.718747   177A      1.734518
     178A      1.742784   179A      1.761397   180A      1.768839
     181A      1.773692   182A      1.791233   183A      1.811822
     184A      1.826683   185A      1.839333   186A      1.861851
     187A      1.878263   188A      1.882600   189A      1.890415
     190A      1.901715   191A      1.909742   192A      1.922780
     193A      1.925116   194A      1.934774   195A      1.936568
     196A      1.942817   197A      1.952535   198A      1.955153
     199A      1.961432   200A      1.965038   201A      1.982040
     202A      1.987164   203A      1.993053   204A      2.002864
     205A      2.018011   206A      2.025593   207A      2.030277
     208A      2.034837   209A      2.073131   210A      2.079241
     211A      2.085701   212A      2.110709   213A      2.116412
     214A      2.126915   215A      2.145418   216A      2.151779
     217A      2.157381   218A      2.164463   219A      2.178293
     220A      2.180911   221A      2.185282   222A      2.224377
     223A      2.237843   224A      2.264315   225A      2.268470
     226A      2.283503   227A      2.288429   228A      2.305730
     229A      2.318491   230A      2.330009   231A      2.336678
     232A      2.346245   233A      2.399789   234A      2.445868
     235A      2.450139   236A      2.459654   237A      2.472000
     238A      2.477578   239A      2.492286   240A      2.514946
     241A      2.549612   242A      2.575108   243A      2.594747
     244A      2.612347   245A      2.631281   246A      2.690102
     247A      2.735258   248A      2.736875   249A      2.743346
     250A      2.766952   251A      2.770967   252A      2.783155
     253A      2.786047   254A      2.810666   255A      2.814997
     256A      2.840101   257A      2.846966   258A      2.858386
     259A      2.873808   260A      2.894381   261A      2.916025
     262A      2.934726   263A      2.941310   264A      2.983840
     265A      3.010878   266A      3.022500   267A      3.031751
     268A      3.081920   269A      3.168270   270A      3.176402
     271A      3.199998   272A      3.260731   273A      3.296797
     274A      3.480143   275A      3.788544   276A      3.957369

    Final Occupation by Irrep:
              A
    DOCC [    51 ]

  @RHF Final Energy:  -572.67001440497870

   => Energetics <=

    Nuclear Repulsion Energy =            784.4186040450546216
    One-Electron Energy =               -2331.7681579946211059
    Two-Electron Energy =                 974.6795395445878967
    Total Energy =                       -572.6700144049787014

Computation Completed

Properties will be evaluated at   0.000000,   0.000000,   0.000000 [a0]

Properties computed using the SCF density matrix

  Nuclear Dipole Moment: [e a0]
     X:     9.7367      Y:     1.7178      Z:    -0.0596

  Electronic Dipole Moment: [e a0]
     X:   -10.4466      Y:    -1.9339      Z:     1.0839

  Dipole Moment: [e a0]
     X:    -0.7099      Y:    -0.2161      Z:     1.0243     Total:     1.2649

  Dipole Moment: [D]
     X:    -1.8043      Y:    -0.5492      Z:     2.6036     Total:     3.2150

*** tstop() called on ds3 at Sun Apr 26 17:27:58 2020
Module time:
	user time   =     294.22 seconds =       4.90 minutes
	system time =     121.03 seconds =       2.02 minutes
	total time  =        476 seconds =       7.93 minutes
Total time:
	user time   =     294.22 seconds =       4.90 minutes
	system time =     121.03 seconds =       2.02 minutes
	total time  =        476 seconds =       7.93 minutes
                                     G D M A

                                 by Anthony Stone

                           version 2.2.06, 22 June 2011

               Distributed Multipoles from Gaussian wavefunctions

Starting at 17:27:58 on 26 Apr 2020

Using SCF density matrix from file ./SSI/SSI-126PHE-132HIE-1-dimer.test.18174.fchk

                         Distributed Multipole Analysis

Standard DMA

Positions and radii in angstrom
Multipole moments in atomic units, ea_0^k for rank k

C          x =  5.031451  y = -1.651223  z =  0.510350 angstrom
           Maximum rank =  0   Radius =  0.650 angstrom
                   Q00  =  -0.206688

C          x =  0.799451  y = -1.348223  z =  1.279350 angstrom
           Maximum rank =  0   Radius =  0.650 angstrom
                   Q00  =  -0.082326

C          x =  1.258451  y = -1.628223  z = -0.007650 angstrom
           Maximum rank =  0   Radius =  0.650 angstrom
                   Q00  =  -0.078639

C          x =  1.712451  y = -1.164223  z =  2.316350 angstrom
           Maximum rank =  0   Radius =  0.650 angstrom
                   Q00  =  -0.079999

C          x =  2.631451  y = -1.720223  z = -0.255650 angstrom
           Maximum rank =  0   Radius =  0.650 angstrom
                   Q00  =  -0.056497

C          x =  3.081451  y = -1.261223  z =  2.064350 angstrom
           Maximum rank =  0   Radius =  0.650 angstrom
                   Q00  =  -0.019841

C          x =  3.553451  y = -1.536223  z =  0.776350 angstrom
           Maximum rank =  0   Radius =  0.650 angstrom
                   Q00  =  -0.088695

H          x = -0.262549  y = -1.274223  z =  1.473350 angstrom
           Maximum rank =  0   Radius =  0.325 angstrom
                   Q00  =   0.059299

H          x =  0.551451  y = -1.776223  z = -0.812650 angstrom
           Maximum rank =  0   Radius =  0.325 angstrom
                   Q00  =   0.072259

H          x =  1.346451  y = -0.969223  z =  3.312350 angstrom
           Maximum rank =  0   Radius =  0.325 angstrom
                   Q00  =   0.062673

H          x =  2.976451  y = -1.939223  z = -1.254650 angstrom
           Maximum rank =  0   Radius =  0.325 angstrom
                   Q00  =   0.058425

H          x =  3.747451  y = -1.158223  z =  2.905350 angstrom
           Maximum rank =  0   Radius =  0.325 angstrom
                   Q00  =   0.054797

H          x =  5.243451  y = -1.462223  z = -0.538650 angstrom
           Maximum rank =  0   Radius =  0.325 angstrom
                   Q00  =   0.101019

H          x =  5.315451  y = -2.686223  z =  0.709350 angstrom
           Maximum rank =  0   Radius =  0.325 angstrom
                   Q00  =   0.102372

H          x =  5.648871  y = -0.999973  z =  1.146480 angstrom
           Maximum rank =  0   Radius =  0.325 angstrom
                   Q00  =   0.101216

C          x = -0.699549  y =  1.441777  z = -0.901650 angstrom
           Maximum rank =  0   Radius =  0.650 angstrom
                   Q00  =  -0.012617

C          x = -0.339549  y =  2.728777  z = -1.640650 angstrom
           Maximum rank =  0   Radius =  0.650 angstrom
                   Q00  =  -0.238028

C          x = -2.181549  y =  1.250777  z = -0.766650 angstrom
           Maximum rank =  0   Radius =  0.650 angstrom
                   Q00  =   0.217216

C          x = -2.958549  y =  1.141777  z =  0.341350 angstrom
           Maximum rank =  0   Radius =  0.650 angstrom
                   Q00  =  -0.001281

C          x = -4.267549  y =  1.035777  z = -1.423650 angstrom
           Maximum rank =  0   Radius =  0.650 angstrom
                   Q00  =   0.464658

N          x = -3.021549  y =  1.181777  z = -1.861650 angstrom
           Maximum rank =  0   Radius =  0.650 angstrom
                   Q00  =  -0.789147

N          x = -4.255549  y =  1.008777  z = -0.097650 angstrom
           Maximum rank =  0   Radius =  0.650 angstrom
                   Q00  =  -0.482010

H          x = -0.295549  y =  0.588777  z = -1.447650 angstrom
           Maximum rank =  0   Radius =  0.325 angstrom
                   Q00  =   0.078082

H          x = -0.252549  y =  1.446777  z =  0.091350 angstrom
           Maximum rank =  0   Radius =  0.325 angstrom
                   Q00  =   0.064925

H          x = -0.762549  y =  2.670777  z = -2.643650 angstrom
           Maximum rank =  0   Radius =  0.325 angstrom
                   Q00  =   0.098320

H          x = -2.626549  y =  1.157777  z =  1.367350 angstrom
           Maximum rank =  0   Radius =  0.325 angstrom
                   Q00  =   0.103374

H          x = -5.149549  y =  0.938777  z = -2.044650 angstrom
           Maximum rank =  0   Radius =  0.325 angstrom
                   Q00  =   0.122820

H          x = -5.078549  y =  0.868777  z =  0.491350 angstrom
           Maximum rank =  0   Radius =  0.325 angstrom
                   Q00  =   0.219911

H          x =  0.751591  y =  2.849597  z = -1.710120 angstrom
           Maximum rank =  0   Radius =  0.325 angstrom
                   Q00  =   0.080124

H          x = -0.789699  y =  3.583487  z = -1.114510 angstrom
           Maximum rank =  0   Radius =  0.325 angstrom
                   Q00  =   0.074280

Total multipoles referred to origin at
           x =   0.000000,  y =    0.000000,  z =    0.000000 angstrom
                   Q00  =  -0.000000

Finished at 17:27:59 on 26 Apr 2020

  DMA results are available in the Python driver through the
	  variable('DMA DISTRIBUTED MULTIPOLES')
  and
	  variable('DMA TOTAL MULTIPOLES')
  commands.

    Psi4 stopped on: Sunday, 26 April 2020 05:27PM
    Psi4 wall time for execution: 0:07:57.01

*** Psi4 exiting successfully. Buy a developer a beer!
