                               Psi4 1.3.2 release

  ==> Input File <==

--------------------------------------------------------------------------
import numpy as np
set {scf_type pk
basis cc-pvdz
d_convergence 10
gdma_switch   0
gdma_limit    0
gdma_origin   [ 0.0,  0.0,  0.0 ]
}
molecule test {
    units Angstrom
    0 1
    --
    0 1
    C               -1.660751405060483     0.127248334470422     1.641978025347676
    C               -1.142751405060483    -0.163751665529578     0.248978025347676
    C               -0.383751405060483    -1.292751665529578    -0.000021974652324
    C               -1.433751405060483     0.695248334470422    -0.808021974652324
    C                0.095248594939517    -1.531751665529578    -1.267021974652324
    C               -0.937751405060483     0.452248334470422    -2.078021974652324
    C               -0.178751405060483    -0.648751665529578    -2.307021974652324
    H               -1.650751405060483     1.204248334470422     1.808978025347676
    H               -0.981751405060483    -0.319751665529578     2.367978025347675
    H               -0.156751405060483    -1.984751665529578     0.799978025347676
    H               -2.043751405060483     1.569248334470422    -0.642021974652324
    H                0.697248594939517    -2.403751665529577    -1.458021974652324
    H               -1.177751405060483     1.116248334470422    -2.891021974652324
    H                0.207248594939517    -0.841751665529578    -3.298021974652324
    H               -2.672861405060483    -0.263860665529578     1.822712025347676
    C                2.166248594939517     0.859248334470422     1.215978025347676
    C                2.860248594939518     1.161248334470422     2.532978025347676
    H                2.887248594939517     0.564248334470422     0.455978025347676
    H                1.480248594939517     0.029248334470422     1.368978025347676
    H                1.607248594939517     1.730248334470422     0.870978025347676
    H                3.411248594939517     0.268248334470422     2.828978025347676
    H                3.568688594939518     1.990518834470422     2.390048025347676
    H                2.156218594939517     1.410947334470422     3.340436025347676

}
e, wfn = energy('scf', return_wfn=True)
gdma(wfn)
dmavals = variable('DMA DISTRIBUTED MULTIPOLES')
charges = np.array(dmavals)
print(charges)
np.save('SSI-027PHE-071VAL-1-dimer.npy', np.array(charges))--------------------------------------------------------------------------

*** tstart() called on ds3
*** at Sun Apr 26 20:28:47 2020

   => Loading Basis Set <=

    Name: CC-PVDZ
    Role: ORBITAL
    Keyword: BASIS
    atoms 1-7, 16-17  entry C          line   138 file /theoryfs2/ds/metcalf/miniconda2/envs/tf2gpu/share/psi4/basis/cc-pvdz.gbs
    atoms 8-15, 18-23 entry H          line    22 file /theoryfs2/ds/metcalf/miniconda2/envs/tf2gpu/share/psi4/basis/cc-pvdz.gbs

         ---------------------------------------------------------
                                   SCF
               by Justin Turney, Rob Parrish, Andy Simmonett
                          and Daniel G. A. Smith
                              RHF Reference
                        1 Threads,    500 MiB Core
         ---------------------------------------------------------

  ==> Geometry <==

    Molecular point group: c1
    Full point group: C1

    Geometry (in Angstrom), charge = 0, multiplicity = 1:

       Center              X                  Y                   Z               Mass
    ------------   -----------------  -----------------  -----------------  -----------------
         C           -1.660751405060     0.127248334470     1.641978025348    12.000000000000
         C           -1.142751405060    -0.163751665530     0.248978025348    12.000000000000
         C           -0.383751405060    -1.292751665530    -0.000021974652    12.000000000000
         C           -1.433751405060     0.695248334470    -0.808021974652    12.000000000000
         C            0.095248594940    -1.531751665530    -1.267021974652    12.000000000000
         C           -0.937751405060     0.452248334470    -2.078021974652    12.000000000000
         C           -0.178751405060    -0.648751665530    -2.307021974652    12.000000000000
         H           -1.650751405060     1.204248334470     1.808978025348     1.007825032230
         H           -0.981751405060    -0.319751665530     2.367978025348     1.007825032230
         H           -0.156751405060    -1.984751665530     0.799978025348     1.007825032230
         H           -2.043751405060     1.569248334470    -0.642021974652     1.007825032230
         H            0.697248594940    -2.403751665530    -1.458021974652     1.007825032230
         H           -1.177751405060     1.116248334470    -2.891021974652     1.007825032230
         H            0.207248594940    -0.841751665530    -3.298021974652     1.007825032230
         H           -2.672861405060    -0.263860665530     1.822712025348     1.007825032230
         C            2.166248594940     0.859248334470     1.215978025348    12.000000000000
         C            2.860248594940     1.161248334470     2.532978025348    12.000000000000
         H            2.887248594940     0.564248334470     0.455978025348     1.007825032230
         H            1.480248594940     0.029248334470     1.368978025348     1.007825032230
         H            1.607248594940     1.730248334470     0.870978025348     1.007825032230
         H            3.411248594940     0.268248334470     2.828978025348     1.007825032230
         H            3.568688594940     1.990518834470     2.390048025348     1.007825032230
         H            2.156218594940     1.410947334470     3.340436025348     1.007825032230

  Running in c1 symmetry.

  Rotational constants: A =      0.06647  B =      0.02935  C =      0.02538 [cm^-1]
  Rotational constants: A =   1992.64268  B =    879.81062  C =    760.98928 [MHz]
  Nuclear repulsion =  417.546649614924149

  Charge       = 0
  Multiplicity = 1
  Electrons    = 68
  Nalpha       = 34
  Nbeta        = 34

  ==> Algorithm <==

  SCF Algorithm Type is PK.
  DIIS enabled.
  MOM disabled.
  Fractional occupation disabled.
  Guess Type is SAD.
  Energy threshold   = 1.00e-06
  Density threshold  = 1.00e-10
  Integral threshold = 0.00e+00

  ==> Primary Basis <==

  Basis Set: CC-PVDZ
    Blend: CC-PVDZ
    Number of shells: 96
    Number of basis function: 196
    Number of Cartesian functions: 205
    Spherical Harmonics?: true
    Max angular momentum: 2

  ==> Pre-Iterations <==

   -------------------------------------------------------
    Irrep   Nso     Nmo     Nalpha   Nbeta   Ndocc  Nsocc
   -------------------------------------------------------
     A        196     196       0       0       0       0
   -------------------------------------------------------
    Total     196     196      34      34      34       0
   -------------------------------------------------------

  ==> Integral Setup <==

  Using integral reordering PK algorithm.
  Sizing the integral batches needed.
  Building batch lookup table.
   Calculation information:
      Number of atoms:                  23
      Number of AO shells:              96
      Number of primitives:            268
      Number of atomic orbitals:       205
      Number of basis functions:       196

      Integral cutoff                 1.00e-12
      Number of threads:                 1

	Batch   1 pq = [       0,    9405] index = [             0,44231715] size =     44231715
	Batch   2 pq = [    9405,   13301] index = [      44231715,88464951] size =     44233236
	Batch   3 pq = [   13301,   16290] index = [      88464951,132690195] size =     44225244
	Batch   4 pq = [   16290,   18810] index = [     132690195,176917455] size =     44227260
	Batch   5 pq = [   18810,   19306] index = [     176917455,186370471] size =      9453016
  Task number: 17
  Buffer size: 11059200
  Buffer per thread: 2
  We computed 10405809 shell quartets total.
  Whereas there are 10841496 unique shell quartets.

  ==> DiskJK: Disk-Based J/K Matrices <==

    J tasked:                  Yes
    K tasked:                  Yes
    wK tasked:                  No
    Memory [MiB]:              375
    Schwarz Cutoff:          1E-12

    OpenMP threads:              1

  Minimum eigenvalue in the overlap matrix is 2.8800432299E-04.
  Using Symmetric Orthogonalization.

  SCF Guess: Superposition of Atomic Densities via on-the-fly atomic UHF.

  ==> Iterations <==

                        Total Energy        Delta E     RMS |[F,P]|

   @RHF iter SAD:  -348.02064368125599   -3.48021e+02   0.00000e+00
   @RHF iter   1:  -348.75930342229725   -7.38660e-01   2.93919e-03 DIIS
   @RHF iter   2:  -348.95600868091054   -1.96705e-01   1.22440e-03 DIIS
   @RHF iter   3:  -348.98718920537783   -3.11805e-02   2.58803e-04 DIIS
   @RHF iter   4:  -348.98967517554200   -2.48597e-03   4.99406e-05 DIIS
   @RHF iter   5:  -348.98974413264182   -6.89571e-05   1.58734e-05 DIIS
   @RHF iter   6:  -348.98975070302043   -6.57038e-06   4.26977e-06 DIIS
   @RHF iter   7:  -348.98975127077705   -5.67757e-07   1.45992e-06 DIIS
   @RHF iter   8:  -348.98975135937548   -8.85984e-08   4.64556e-07 DIIS
   @RHF iter   9:  -348.98975138235249   -2.29770e-08   2.25842e-07 DIIS
   @RHF iter  10:  -348.98975138847885   -6.12636e-09   9.48419e-08 DIIS
   @RHF iter  11:  -348.98975138968012   -1.20127e-09   2.94514e-08 DIIS
   @RHF iter  12:  -348.98975138974578   -6.56541e-11   1.32529e-08 DIIS
   @RHF iter  13:  -348.98975138975430   -8.52651e-12   4.03703e-09 DIIS
   @RHF iter  14:  -348.98975138975470   -3.97904e-13   1.17122e-09 DIIS
   @RHF iter  15:  -348.98975138975510   -3.97904e-13   5.99315e-10 DIIS
   @RHF iter  16:  -348.98975138975277    2.33058e-12   2.66759e-10 DIIS
   @RHF iter  17:  -348.98975138975453   -1.76215e-12   9.26349e-11 DIIS
  Energy and wave function converged.

  ==> Post-Iterations <==

    Orbital Energies [Eh]
    ---------------------

    Doubly Occupied:

       1A    -11.238407     2A    -11.231235     3A    -11.229673
       4A    -11.229009     5A    -11.227245     6A    -11.226880
       7A    -11.225503     8A    -11.213477     9A    -11.206716
      10A     -1.158892    11A     -1.046325    12A     -1.015442
      13A     -1.013807    14A     -0.932404    15A     -0.829989
      16A     -0.825895    17A     -0.796858    18A     -0.694030
      19A     -0.634467    20A     -0.627558    21A     -0.595164
      22A     -0.592814    23A     -0.584174    24A     -0.575002
      25A     -0.561365    26A     -0.535934    27A     -0.500749
      28A     -0.490499    29A     -0.484261    30A     -0.481033
      31A     -0.477979    32A     -0.474091    33A     -0.334508
      34A     -0.322325

    Virtual:

      35A      0.137580    36A      0.144524    37A      0.171140
      38A      0.193577    39A      0.210525    40A      0.218725
      41A      0.241055    42A      0.242482    43A      0.254689
      44A      0.261970    45A      0.268125    46A      0.271514
      47A      0.279210    48A      0.292941    49A      0.303130
      50A      0.338094    51A      0.375374    52A      0.376542
      53A      0.401834    54A      0.457013    55A      0.467634
      56A      0.480858    57A      0.496692    58A      0.560784
      59A      0.573636    60A      0.587721    61A      0.601712
      62A      0.609897    63A      0.644207    64A      0.666691
      65A      0.686593    66A      0.693911    67A      0.697500
      68A      0.717091    69A      0.729045    70A      0.738577
      71A      0.753819    72A      0.759761    73A      0.769518
      74A      0.773075    75A      0.782809    76A      0.818221
      77A      0.853284    78A      0.853962    79A      0.862250
      80A      0.871070    81A      0.882027    82A      0.890130
      83A      0.896301    84A      0.898999    85A      0.902418
      86A      0.909672    87A      0.920668    88A      0.925587
      89A      0.942885    90A      0.951477    91A      0.966828
      92A      0.977356    93A      0.993169    94A      1.014339
      95A      1.045960    96A      1.056032    97A      1.125044
      98A      1.135199    99A      1.137323   100A      1.152419
     101A      1.159436   102A      1.169049   103A      1.205215
     104A      1.235525   105A      1.247398   106A      1.254526
     107A      1.263607   108A      1.277742   109A      1.307666
     110A      1.314046   111A      1.330838   112A      1.347081
     113A      1.411448   114A      1.480698   115A      1.483076
     116A      1.514613   117A      1.528410   118A      1.560053
     119A      1.593791   120A      1.605627   121A      1.672023
     122A      1.686190   123A      1.697098   124A      1.706442
     125A      1.748714   126A      1.761353   127A      1.767422
     128A      1.798422   129A      1.818347   130A      1.865246
     131A      1.870328   132A      1.872350   133A      1.894858
     134A      1.903498   135A      1.913291   136A      1.917452
     137A      1.927628   138A      1.929365   139A      1.947930
     140A      1.952646   141A      1.955204   142A      1.966546
     143A      1.974329   144A      1.982091   145A      1.992092
     146A      1.998011   147A      2.001635   148A      2.027767
     149A      2.052660   150A      2.074229   151A      2.081466
     152A      2.107354   153A      2.123065   154A      2.136276
     155A      2.156469   156A      2.165106   157A      2.179684
     158A      2.184282   159A      2.200168   160A      2.266267
     161A      2.289120   162A      2.299413   163A      2.302324
     164A      2.316015   165A      2.317520   166A      2.328145
     167A      2.337093   168A      2.457924   169A      2.475915
     170A      2.481962   171A      2.487814   172A      2.505076
     173A      2.555235   174A      2.562305   175A      2.598469
     176A      2.630029   177A      2.751832   178A      2.764060
     179A      2.771541   180A      2.776358   181A      2.794332
     182A      2.814436   183A      2.832588   184A      2.855185
     185A      2.862838   186A      2.873169   187A      2.887089
     188A      2.966511   189A      2.981563   190A      3.013960
     191A      3.034622   192A      3.052482   193A      3.173545
     194A      3.223568   195A      3.329238   196A      4.013274

    Final Occupation by Irrep:
              A
    DOCC [    34 ]

  @RHF Final Energy:  -348.98975138975453

   => Energetics <=

    Nuclear Repulsion Energy =            417.5466496149241493
    One-Electron Energy =               -1297.8453828450979017
    Two-Electron Energy =                 531.3089818404192783
    Total Energy =                       -348.9897513897544741

Computation Completed

Properties will be evaluated at   0.000000,   0.000000,   0.000000 [a0]

Properties computed using the SCF density matrix

  Nuclear Dipole Moment: [e a0]
     X:     6.8733      Y:     3.8149      Z:     9.1553

  Electronic Dipole Moment: [e a0]
     X:    -6.9558      Y:    -3.8233      Z:    -9.1081

  Dipole Moment: [e a0]
     X:    -0.0825      Y:    -0.0084      Z:     0.0472     Total:     0.0954

  Dipole Moment: [D]
     X:    -0.2096      Y:    -0.0213      Z:     0.1200     Total:     0.2424

*** tstop() called on ds3 at Sun Apr 26 20:30:40 2020
Module time:
	user time   =      78.83 seconds =       1.31 minutes
	system time =      31.95 seconds =       0.53 minutes
	total time  =        113 seconds =       1.88 minutes
Total time:
	user time   =      78.83 seconds =       1.31 minutes
	system time =      31.95 seconds =       0.53 minutes
	total time  =        113 seconds =       1.88 minutes
                                     G D M A

                                 by Anthony Stone

                           version 2.2.06, 22 June 2011

               Distributed Multipoles from Gaussian wavefunctions

Starting at 20:30:40 on 26 Apr 2020

Using SCF density matrix from file ./SSI/SSI-027PHE-071VAL-1-dimer.test.17114.fchk

                         Distributed Multipole Analysis

Standard DMA

Positions and radii in angstrom
Multipole moments in atomic units, ea_0^k for rank k

C          x = -1.660751  y =  0.127248  z =  1.641978 angstrom
           Maximum rank =  0   Radius =  0.650 angstrom
                   Q00  =  -0.202925

C          x = -1.142751  y = -0.163752  z =  0.248978 angstrom
           Maximum rank =  0   Radius =  0.650 angstrom
                   Q00  =  -0.108728

C          x = -0.383751  y = -1.292752  z = -0.000022 angstrom
           Maximum rank =  0   Radius =  0.650 angstrom
                   Q00  =  -0.079565

C          x = -1.433751  y =  0.695248  z = -0.808022 angstrom
           Maximum rank =  0   Radius =  0.650 angstrom
                   Q00  =  -0.026112

C          x =  0.095249  y = -1.531752  z = -1.267022 angstrom
           Maximum rank =  0   Radius =  0.650 angstrom
                   Q00  =  -0.022345

C          x = -0.937751  y =  0.452248  z = -2.078022 angstrom
           Maximum rank =  0   Radius =  0.650 angstrom
                   Q00  =  -0.068641

C          x = -0.178751  y = -0.648752  z = -2.307022 angstrom
           Maximum rank =  0   Radius =  0.650 angstrom
                   Q00  =  -0.075824

H          x = -1.650751  y =  1.204248  z =  1.808978 angstrom
           Maximum rank =  0   Radius =  0.325 angstrom
                   Q00  =   0.100001

H          x = -0.981751  y = -0.319752  z =  2.367978 angstrom
           Maximum rank =  0   Radius =  0.325 angstrom
                   Q00  =   0.095465

H          x = -0.156751  y = -1.984752  z =  0.799978 angstrom
           Maximum rank =  0   Radius =  0.325 angstrom
                   Q00  =   0.053647

H          x = -2.043751  y =  1.569248  z = -0.642022 angstrom
           Maximum rank =  0   Radius =  0.325 angstrom
                   Q00  =   0.053093

H          x =  0.697249  y = -2.403752  z = -1.458022 angstrom
           Maximum rank =  0   Radius =  0.325 angstrom
                   Q00  =   0.061214

H          x = -1.177751  y =  1.116248  z = -2.891022 angstrom
           Maximum rank =  0   Radius =  0.325 angstrom
                   Q00  =   0.059650

H          x =  0.207249  y = -0.841752  z = -3.298022 angstrom
           Maximum rank =  0   Radius =  0.325 angstrom
                   Q00  =   0.056882

H          x = -2.672861  y = -0.263861  z =  1.822712 angstrom
           Maximum rank =  0   Radius =  0.325 angstrom
                   Q00  =   0.106578

C          x =  2.166249  y =  0.859248  z =  1.215978 angstrom
           Maximum rank =  0   Radius =  0.650 angstrom
                   Q00  =  -0.208062

C          x =  2.860249  y =  1.161248  z =  2.532978 angstrom
           Maximum rank =  0   Radius =  0.650 angstrom
                   Q00  =  -0.251234

H          x =  2.887249  y =  0.564248  z =  0.455978 angstrom
           Maximum rank =  0   Radius =  0.325 angstrom
                   Q00  =   0.079352

H          x =  1.480249  y =  0.029248  z =  1.368978 angstrom
           Maximum rank =  0   Radius =  0.325 angstrom
                   Q00  =   0.076102

H          x =  1.607249  y =  1.730248  z =  0.870978 angstrom
           Maximum rank =  0   Radius =  0.325 angstrom
                   Q00  =   0.077544

H          x =  3.411249  y =  0.268248  z =  2.828978 angstrom
           Maximum rank =  0   Radius =  0.325 angstrom
                   Q00  =   0.073020

H          x =  3.568689  y =  1.990519  z =  2.390048 angstrom
           Maximum rank =  0   Radius =  0.325 angstrom
                   Q00  =   0.074725

H          x =  2.156219  y =  1.410947  z =  3.340436 angstrom
           Maximum rank =  0   Radius =  0.325 angstrom
                   Q00  =   0.076162

Total multipoles referred to origin at
           x =   0.000000,  y =    0.000000,  z =    0.000000 angstrom
                   Q00  =  -0.000000

Finished at 20:30:40 on 26 Apr 2020

  DMA results are available in the Python driver through the
	  variable('DMA DISTRIBUTED MULTIPOLES')
  and
	  variable('DMA TOTAL MULTIPOLES')
  commands.

    Psi4 stopped on: Sunday, 26 April 2020 08:30PM
    Psi4 wall time for execution: 0:01:52.33

*** Psi4 exiting successfully. Buy a developer a beer!
