                               Psi4 1.3.2 release

  ==> Input File <==

--------------------------------------------------------------------------
import numpy as np
set {scf_type pk
basis cc-pvdz
d_convergence 10
gdma_switch   0
gdma_limit    0
gdma_origin   [ 0.0,  0.0,  0.0 ]
}
molecule test {
    units Angstrom
    -1 1
    --
    -1 1
    C                1.199449985190624     1.082861465668141    -0.535300137059792
    C                1.486449985190624     2.395861465668141    -1.261300137059792
    C                1.073449985190624     1.266861465668141     0.945699862940208
    O                1.722449985190624     2.131861465668141     1.533699862940208
    N                0.214449985190624     0.476861465668141     1.566699862940208
    H                0.305449985190624     0.606861465668141    -0.933300137059792
    H                2.026449985190625     0.386861465668141    -0.678300137059792
    H                2.334449985190625     2.878861465668141    -0.770300137059792
    H                0.113449985190624     0.564861465668141     2.564699862940209
    H               -0.346550014809376    -0.203138534331859     1.048699862940208
    H                0.624942985190624     3.074211465668141    -1.173870137059792
    H                1.827568985190625     2.218101465668141    -2.291850137059792
    C               -2.183550014809375    -1.895138534331859    -1.794300137059792
    C               -1.352550014809376    -1.796138534331859    -0.514300137059792
    O               -1.815550014809376    -1.208138534331859     0.483699862940208
    O               -0.246550014809376    -2.365138534331859    -0.477300137059792
    H               -2.735550014809375    -2.837138534331859    -1.799300137059792
    H               -1.495550014809376    -1.921138534331859    -2.641300137059791
    H               -2.902011014809375    -1.071168534331859    -1.916320137059792

}
e, wfn = energy('scf', return_wfn=True)
gdma(wfn)
dmavals = variable('DMA DISTRIBUTED MULTIPOLES')
charges = np.array(dmavals)
print(charges)
np.save('SSI-010ASN-023GLU-1-dimer.npy', np.array(charges))--------------------------------------------------------------------------

*** tstart() called on ds3
*** at Sun Apr 26 20:33:13 2020

   => Loading Basis Set <=

    Name: CC-PVDZ
    Role: ORBITAL
    Keyword: BASIS
    atoms 1-3, 13-14  entry C          line   138 file /theoryfs2/ds/metcalf/miniconda2/envs/tf2gpu/share/psi4/basis/cc-pvdz.gbs
    atoms 4, 15-16    entry O          line   198 file /theoryfs2/ds/metcalf/miniconda2/envs/tf2gpu/share/psi4/basis/cc-pvdz.gbs
    atoms 5           entry N          line   168 file /theoryfs2/ds/metcalf/miniconda2/envs/tf2gpu/share/psi4/basis/cc-pvdz.gbs
    atoms 6-12, 17-19 entry H          line    22 file /theoryfs2/ds/metcalf/miniconda2/envs/tf2gpu/share/psi4/basis/cc-pvdz.gbs

         ---------------------------------------------------------
                                   SCF
               by Justin Turney, Rob Parrish, Andy Simmonett
                          and Daniel G. A. Smith
                              RHF Reference
                        1 Threads,    500 MiB Core
         ---------------------------------------------------------

  ==> Geometry <==

    Molecular point group: c1
    Full point group: C1

    Geometry (in Angstrom), charge = -1, multiplicity = 1:

       Center              X                  Y                   Z               Mass
    ------------   -----------------  -----------------  -----------------  -----------------
         C            1.199449985191     1.082861465668    -0.535300137060    12.000000000000
         C            1.486449985191     2.395861465668    -1.261300137060    12.000000000000
         C            1.073449985191     1.266861465668     0.945699862940    12.000000000000
         O            1.722449985191     2.131861465668     1.533699862940    15.994914619570
         N            0.214449985191     0.476861465668     1.566699862940    14.003074004430
         H            0.305449985191     0.606861465668    -0.933300137060     1.007825032230
         H            2.026449985191     0.386861465668    -0.678300137060     1.007825032230
         H            2.334449985191     2.878861465668    -0.770300137060     1.007825032230
         H            0.113449985191     0.564861465668     2.564699862940     1.007825032230
         H           -0.346550014809    -0.203138534332     1.048699862940     1.007825032230
         H            0.624942985191     3.074211465668    -1.173870137060     1.007825032230
         H            1.827568985191     2.218101465668    -2.291850137060     1.007825032230
         C           -2.183550014809    -1.895138534332    -1.794300137060    12.000000000000
         C           -1.352550014809    -1.796138534332    -0.514300137060    12.000000000000
         O           -1.815550014809    -1.208138534332     0.483699862940    15.994914619570
         O           -0.246550014809    -2.365138534332    -0.477300137060    15.994914619570
         H           -2.735550014809    -2.837138534332    -1.799300137060     1.007825032230
         H           -1.495550014809    -1.921138534332    -2.641300137060     1.007825032230
         H           -2.902011014809    -1.071168534332    -1.916320137060     1.007825032230

  Running in c1 symmetry.

  Rotational constants: A =      0.08484  B =      0.02368  C =      0.02059 [cm^-1]
  Rotational constants: A =   2543.42061  B =    709.99012  C =    617.14372 [MHz]
  Nuclear repulsion =  442.028761579524087

  Charge       = -1
  Multiplicity = 1
  Electrons    = 72
  Nalpha       = 36
  Nbeta        = 36

  ==> Algorithm <==

  SCF Algorithm Type is PK.
  DIIS enabled.
  MOM disabled.
  Fractional occupation disabled.
  Guess Type is SAD.
  Energy threshold   = 1.00e-06
  Density threshold  = 1.00e-10
  Integral threshold = 0.00e+00

  ==> Primary Basis <==

  Basis Set: CC-PVDZ
    Blend: CC-PVDZ
    Number of shells: 84
    Number of basis function: 176
    Number of Cartesian functions: 185
    Spherical Harmonics?: true
    Max angular momentum: 2

  ==> Pre-Iterations <==

   -------------------------------------------------------
    Irrep   Nso     Nmo     Nalpha   Nbeta   Ndocc  Nsocc
   -------------------------------------------------------
     A        176     176       0       0       0       0
   -------------------------------------------------------
    Total     176     176      36      36      36       0
   -------------------------------------------------------

  ==> Integral Setup <==

  Using integral reordering PK algorithm.
  Sizing the integral batches needed.
  Building batch lookup table.
   Calculation information:
      Number of atoms:                  19
      Number of AO shells:              84
      Number of primitives:            248
      Number of atomic orbitals:       185
      Number of basis functions:       176

      Integral cutoff                 1.00e-12
      Number of threads:                 1

	Batch   1 pq = [       0,    9405] index = [             0,44231715] size =     44231715
	Batch   2 pq = [    9405,   13301] index = [      44231715,88464951] size =     44233236
	Batch   3 pq = [   13301,   15576] index = [      88464951,121313676] size =     32848725
  Task number: 11
  Buffer size: 11059200
  Buffer per thread: 2
  We computed 5427012 shell quartets total.
  Whereas there are 6374235 unique shell quartets.

  ==> DiskJK: Disk-Based J/K Matrices <==

    J tasked:                  Yes
    K tasked:                  Yes
    wK tasked:                  No
    Memory [MiB]:              375
    Schwarz Cutoff:          1E-12

    OpenMP threads:              1

  Minimum eigenvalue in the overlap matrix is 3.3336017292E-03.
  Using Symmetric Orthogonalization.

  SCF Guess: Superposition of Atomic Densities via on-the-fly atomic UHF.

  ==> Iterations <==

                        Total Energy        Delta E     RMS |[F,P]|

   @RHF iter SAD:  -472.56091574003818   -4.72561e+02   0.00000e+00
   @RHF iter   1:  -473.96722107549647   -1.40631e+00   4.77192e-03 DIIS
   @RHF iter   2:  -474.21806997637759   -2.50849e-01   2.72436e-03 DIIS
   @RHF iter   3:  -474.29971405780111   -8.16441e-02   4.31891e-04 DIIS
   @RHF iter   4:  -474.30332047775795   -3.60642e-03   1.71122e-04 DIIS
   @RHF iter   5:  -474.30391913289981   -5.98655e-04   3.24617e-05 DIIS
   @RHF iter   6:  -474.30394603325635   -2.69004e-05   1.63029e-05 DIIS
   @RHF iter   7:  -474.30395170425010   -5.67099e-06   4.23724e-06 DIIS
   @RHF iter   8:  -474.30395255403698   -8.49787e-07   1.89552e-06 DIIS
   @RHF iter   9:  -474.30395271008035   -1.56043e-07   6.92346e-07 DIIS
   @RHF iter  10:  -474.30395272944713   -1.93668e-08   1.83943e-07 DIIS
   @RHF iter  11:  -474.30395273052767   -1.08054e-09   6.51133e-08 DIIS
   @RHF iter  12:  -474.30395273061771   -9.00400e-11   2.28863e-08 DIIS
   @RHF iter  13:  -474.30395273062987   -1.21645e-11   7.36030e-09 DIIS
   @RHF iter  14:  -474.30395273063141   -1.53477e-12   2.23673e-09 DIIS
   @RHF iter  15:  -474.30395273063328   -1.87583e-12   8.68829e-10 DIIS
   @RHF iter  16:  -474.30395273063232    9.66338e-13   3.71392e-10 DIIS
   @RHF iter  17:  -474.30395273063158    7.38964e-13   1.54440e-10 DIIS
   @RHF iter  18:  -474.30395273063414   -2.55795e-12   5.76202e-11 DIIS
  Energy and wave function converged.

  ==> Post-Iterations <==

    Orbital Energies [Eh]
    ---------------------

    Doubly Occupied:

       1A    -20.362564     2A    -20.293957     3A    -20.287459
       4A    -15.418951     5A    -11.198858     6A    -11.145934
       7A    -11.110724     8A    -11.102707     9A    -11.074210
      10A     -1.227144    11A     -1.188371    12A     -1.069963
      13A     -1.055890    14A     -0.920353    15A     -0.819450
      16A     -0.762426    17A     -0.630939    18A     -0.565546
      19A     -0.529027    20A     -0.526546    21A     -0.501811
      22A     -0.453915    23A     -0.438852    24A     -0.433508
      25A     -0.429082    26A     -0.424138    27A     -0.393958
      28A     -0.378169    29A     -0.370974    30A     -0.359163
      31A     -0.334443    32A     -0.272905    33A     -0.252036
      34A     -0.216770    35A     -0.202135    36A     -0.194049

    Virtual:

      37A      0.299170    38A      0.325413    39A      0.345137
      40A      0.350206    41A      0.363426    42A      0.375076
      43A      0.378867    44A      0.387379    45A      0.398341
      46A      0.428073    47A      0.468877    48A      0.508653
      49A      0.519457    50A      0.548318    51A      0.583703
      52A      0.604814    53A      0.656502    54A      0.699990
      55A      0.730553    56A      0.748521    57A      0.761497
      58A      0.779807    59A      0.804017    60A      0.829599
      61A      0.854455    62A      0.873116    63A      0.893181
      64A      0.922503    65A      0.943789    66A      0.971935
      67A      0.974321    68A      1.000260    69A      1.002483
      70A      1.005202    71A      1.011193    72A      1.017761
      73A      1.030566    74A      1.043329    75A      1.053413
      76A      1.056358    77A      1.076793    78A      1.109617
      79A      1.114611    80A      1.117183    81A      1.175185
      82A      1.190587    83A      1.209465    84A      1.244014
      85A      1.253108    86A      1.301571    87A      1.315529
      88A      1.350768    89A      1.413427    90A      1.433496
      91A      1.449702    92A      1.479860    93A      1.513420
      94A      1.531752    95A      1.543138    96A      1.555191
      97A      1.571763    98A      1.587323    99A      1.595525
     100A      1.616823   101A      1.647233   102A      1.669285
     103A      1.701188   104A      1.714579   105A      1.755289
     106A      1.793752   107A      1.812582   108A      1.821753
     109A      1.852030   110A      1.863317   111A      1.917539
     112A      1.985458   113A      1.990445   114A      2.004755
     115A      2.032342   116A      2.039999   117A      2.045836
     118A      2.049983   119A      2.081698   120A      2.085725
     121A      2.094557   122A      2.113012   123A      2.123810
     124A      2.132824   125A      2.142116   126A      2.171477
     127A      2.192019   128A      2.200076   129A      2.226929
     130A      2.295416   131A      2.323957   132A      2.361718
     133A      2.383603   134A      2.404907   135A      2.415016
     136A      2.437792   137A      2.459492   138A      2.518510
     139A      2.556460   140A      2.592381   141A      2.614500
     142A      2.651708   143A      2.659222   144A      2.680781
     145A      2.708048   146A      2.730888   147A      2.754151
     148A      2.810120   149A      2.829562   150A      2.872978
     151A      2.889556   152A      2.901559   153A      2.947654
     154A      2.957457   155A      2.974613   156A      3.006758
     157A      3.043141   158A      3.110437   159A      3.155686
     160A      3.217154   161A      3.246113   162A      3.251539
     163A      3.283317   164A      3.298531   165A      3.332103
     166A      3.526207   167A      3.639970   168A      3.653644
     169A      3.701305   170A      3.733366   171A      3.809024
     172A      4.012819   173A      4.048342   174A      4.054243
     175A      4.065908   176A      4.188832

    Final Occupation by Irrep:
              A
    DOCC [    36 ]

  @RHF Final Energy:  -474.30395273063414

   => Energetics <=

    Nuclear Repulsion Energy =            442.0287615795240868
    One-Electron Energy =               -1538.7715779274308261
    Two-Electron Energy =                 622.4388636172725455
    Total Energy =                       -474.3039527306341370

Computation Completed

Properties will be evaluated at   0.000000,   0.000000,   0.000000 [a0]

Properties computed using the SCF density matrix

  Nuclear Dipole Moment: [e a0]
     X:    -0.2341      Y:     3.4577      Z:    -8.0511

  Electronic Dipole Moment: [e a0]
     X:     0.4690      Y:    -2.1941      Z:     7.1393

  Dipole Moment: [e a0]
     X:     0.2349      Y:     1.2636      Z:    -0.9118     Total:     1.5758

  Dipole Moment: [D]
     X:     0.5971      Y:     3.2117      Z:    -2.3176     Total:     4.0054

*** tstop() called on ds3 at Sun Apr 26 20:34:13 2020
Module time:
	user time   =      40.96 seconds =       0.68 minutes
	system time =      20.28 seconds =       0.34 minutes
	total time  =         60 seconds =       1.00 minutes
Total time:
	user time   =      40.96 seconds =       0.68 minutes
	system time =      20.28 seconds =       0.34 minutes
	total time  =         60 seconds =       1.00 minutes
                                     G D M A

                                 by Anthony Stone

                           version 2.2.06, 22 June 2011

               Distributed Multipoles from Gaussian wavefunctions

Starting at 20:34:13 on 26 Apr 2020

Using SCF density matrix from file ./SSI/SSI-010ASN-023GLU-1-dimer.test.20762.fchk

                         Distributed Multipole Analysis

Standard DMA

Positions and radii in angstrom
Multipole moments in atomic units, ea_0^k for rank k

C          x =  1.199450  y =  1.082861  z = -0.535300 angstrom
           Maximum rank =  0   Radius =  0.650 angstrom
                   Q00  =  -0.134247

C          x =  1.486450  y =  2.395861  z = -1.261300 angstrom
           Maximum rank =  0   Radius =  0.650 angstrom
                   Q00  =  -0.200335

C          x =  1.073450  y =  1.266861  z =  0.945700 angstrom
           Maximum rank =  0   Radius =  0.650 angstrom
                   Q00  =   0.889113

O          x =  1.722450  y =  2.131861  z =  1.533700 angstrom
           Maximum rank =  0   Radius =  0.650 angstrom
                   Q00  =  -0.885062

N          x =  0.214450  y =  0.476861  z =  1.566700 angstrom
           Maximum rank =  0   Radius =  0.650 angstrom
                   Q00  =  -0.561727

H          x =  0.305450  y =  0.606861  z = -0.933300 angstrom
           Maximum rank =  0   Radius =  0.325 angstrom
                   Q00  =   0.084370

H          x =  2.026450  y =  0.386861  z = -0.678300 angstrom
           Maximum rank =  0   Radius =  0.325 angstrom
                   Q00  =   0.099019

H          x =  2.334450  y =  2.878861  z = -0.770300 angstrom
           Maximum rank =  0   Radius =  0.325 angstrom
                   Q00  =   0.095577

H          x =  0.113450  y =  0.564861  z =  2.564700 angstrom
           Maximum rank =  0   Radius =  0.325 angstrom
                   Q00  =   0.179978

H          x = -0.346550  y = -0.203139  z =  1.048700 angstrom
           Maximum rank =  0   Radius =  0.325 angstrom
                   Q00  =   0.290890

H          x =  0.624943  y =  3.074211  z = -1.173870 angstrom
           Maximum rank =  0   Radius =  0.325 angstrom
                   Q00  =   0.061405

H          x =  1.827569  y =  2.218101  z = -2.291850 angstrom
           Maximum rank =  0   Radius =  0.325 angstrom
                   Q00  =   0.045125

C          x = -2.183550  y = -1.895139  z = -1.794300 angstrom
           Maximum rank =  0   Radius =  0.650 angstrom
                   Q00  =  -0.273793

C          x = -1.352550  y = -1.796139  z = -0.514300 angstrom
           Maximum rank =  0   Radius =  0.650 angstrom
                   Q00  =   0.916154

O          x = -1.815550  y = -1.208139  z =  0.483700 angstrom
           Maximum rank =  0   Radius =  0.650 angstrom
                   Q00  =  -0.920264

O          x = -0.246550  y = -2.365139  z = -0.477300 angstrom
           Maximum rank =  0   Radius =  0.650 angstrom
                   Q00  =  -0.899995

H          x = -2.735550  y = -2.837139  z = -1.799300 angstrom
           Maximum rank =  0   Radius =  0.325 angstrom
                   Q00  =   0.091396

H          x = -1.495550  y = -1.921139  z = -2.641300 angstrom
           Maximum rank =  0   Radius =  0.325 angstrom
                   Q00  =   0.063308

H          x = -2.902011  y = -1.071169  z = -1.916320 angstrom
           Maximum rank =  0   Radius =  0.325 angstrom
                   Q00  =   0.059087

Total multipoles referred to origin at
           x =   0.000000,  y =    0.000000,  z =    0.000000 angstrom
                   Q00  =  -1.000000

Finished at 20:34:13 on 26 Apr 2020

  DMA results are available in the Python driver through the
	  variable('DMA DISTRIBUTED MULTIPOLES')
  and
	  variable('DMA TOTAL MULTIPOLES')
  commands.

    Psi4 stopped on: Sunday, 26 April 2020 08:34PM
    Psi4 wall time for execution: 0:00:59.95

*** Psi4 exiting successfully. Buy a developer a beer!
