                               Psi4 1.3.2 release

  ==> Input File <==

--------------------------------------------------------------------------
import numpy as np
set {scf_type pk
basis cc-pvdz
d_convergence 10
gdma_switch   0
gdma_limit    0
gdma_origin   [ 0.0,  0.0,  0.0 ]
}
molecule test {
    units Angstrom
    0 1
    --
    0 1
    C                1.955169754233459    -1.619753771877893     0.349142708931119
    C                0.461169754233459    -1.381753771877893     0.524142708931119
    O               -0.378830245766541    -2.223753771877893     0.169142708931119
    N                0.110169754233459    -0.239753771877893     1.068142708931119
    H               -0.863830245766541    -0.059753771877893     1.276142708931119
    H                0.829169754233459     0.471246228122107     1.234142708931119
    H                2.173169754233459    -2.613753771877893     0.738142708931119
    H                2.527169754233459    -0.897753771877893     0.932142708931119
    H                2.251469754233459    -1.557333771877893    -0.708359291068881
    C               -0.909830245766541     2.182246228122108    -0.489857291068881
    C               -1.187830245766540     3.124246228122107    -1.613857291068881
    H               -1.613830245766541     2.335246228122108     0.329142708931119
    H               -1.005830245766541     1.160246228122107    -0.858857291068881
    H                0.111169754233459     2.310246228122107    -0.140857291068881
    H               -0.381830245766541     3.023246228122107    -2.340857291068881
    H               -1.207320245766540     4.154076228122108    -1.227761291068881
    H               -2.132390245766540     2.853036228122107    -2.108078291068881

}
e, wfn = energy('scf', return_wfn=True)
gdma(wfn)
dmavals = variable('DMA DISTRIBUTED MULTIPOLES')
charges = np.array(dmavals)
print(charges)
np.save('SSI-017GLN-093VAL-1-dimer.npy', np.array(charges))--------------------------------------------------------------------------

*** tstart() called on ds3
*** at Mon Apr 27 23:29:56 2020

   => Loading Basis Set <=

    Name: CC-PVDZ
    Role: ORBITAL
    Keyword: BASIS
    atoms 1-2, 10-11 entry C          line   138 file /theoryfs2/ds/metcalf/miniconda2/envs/tf2gpu/share/psi4/basis/cc-pvdz.gbs
    atoms 3          entry O          line   198 file /theoryfs2/ds/metcalf/miniconda2/envs/tf2gpu/share/psi4/basis/cc-pvdz.gbs
    atoms 4          entry N          line   168 file /theoryfs2/ds/metcalf/miniconda2/envs/tf2gpu/share/psi4/basis/cc-pvdz.gbs
    atoms 5-9, 12-17 entry H          line    22 file /theoryfs2/ds/metcalf/miniconda2/envs/tf2gpu/share/psi4/basis/cc-pvdz.gbs

         ---------------------------------------------------------
                                   SCF
               by Justin Turney, Rob Parrish, Andy Simmonett
                          and Daniel G. A. Smith
                              RHF Reference
                        1 Threads,    500 MiB Core
         ---------------------------------------------------------

  ==> Geometry <==

    Molecular point group: c1
    Full point group: C1

    Geometry (in Angstrom), charge = 0, multiplicity = 1:

       Center              X                  Y                   Z               Mass
    ------------   -----------------  -----------------  -----------------  -----------------
         C            1.955169754233    -1.619753771878     0.349142708931    12.000000000000
         C            0.461169754233    -1.381753771878     0.524142708931    12.000000000000
         O           -0.378830245767    -2.223753771878     0.169142708931    15.994914619570
         N            0.110169754233    -0.239753771878     1.068142708931    14.003074004430
         H           -0.863830245767    -0.059753771878     1.276142708931     1.007825032230
         H            0.829169754233     0.471246228122     1.234142708931     1.007825032230
         H            2.173169754233    -2.613753771878     0.738142708931     1.007825032230
         H            2.527169754233    -0.897753771878     0.932142708931     1.007825032230
         H            2.251469754233    -1.557333771878    -0.708359291069     1.007825032230
         C           -0.909830245767     2.182246228122    -0.489857291069    12.000000000000
         C           -1.187830245767     3.124246228122    -1.613857291069    12.000000000000
         H           -1.613830245767     2.335246228122     0.329142708931     1.007825032230
         H           -1.005830245767     1.160246228122    -0.858857291069     1.007825032230
         H            0.111169754233     2.310246228122    -0.140857291069     1.007825032230
         H           -0.381830245767     3.023246228122    -2.340857291069     1.007825032230
         H           -1.207320245767     4.154076228122    -1.227761291069     1.007825032230
         H           -2.132390245767     2.853036228122    -2.108078291069     1.007825032230

  Running in c1 symmetry.

  Rotational constants: A =      0.20397  B =      0.03427  C =      0.03281 [cm^-1]
  Rotational constants: A =   6114.89404  B =   1027.44383  C =    983.59596 [MHz]
  Nuclear repulsion =  232.330886210105660

  Charge       = 0
  Multiplicity = 1
  Electrons    = 50
  Nalpha       = 25
  Nbeta        = 25

  ==> Algorithm <==

  SCF Algorithm Type is PK.
  DIIS enabled.
  MOM disabled.
  Fractional occupation disabled.
  Guess Type is SAD.
  Energy threshold   = 1.00e-06
  Density threshold  = 1.00e-10
  Integral threshold = 0.00e+00

  ==> Primary Basis <==

  Basis Set: CC-PVDZ
    Blend: CC-PVDZ
    Number of shells: 69
    Number of basis function: 139
    Number of Cartesian functions: 145
    Spherical Harmonics?: true
    Max angular momentum: 2

  ==> Pre-Iterations <==

   -------------------------------------------------------
    Irrep   Nso     Nmo     Nalpha   Nbeta   Ndocc  Nsocc
   -------------------------------------------------------
     A        139     139       0       0       0       0
   -------------------------------------------------------
    Total     139     139      25      25      25       0
   -------------------------------------------------------

  ==> Integral Setup <==

  Using integral reordering PK algorithm.
  Sizing the integral batches needed.
  Building batch lookup table.
   Calculation information:
      Number of atoms:                  17
      Number of AO shells:              69
      Number of primitives:            187
      Number of atomic orbitals:       145
      Number of basis functions:       139

      Integral cutoff                 1.00e-12
      Number of threads:                 1

	Batch   1 pq = [       0,    9730] index = [             0,47341315] size =     47341315
  Task number: 5
  Buffer size: 11059200
  Buffer per thread: 2
  We computed 2372769 shell quartets total.
  Whereas there are 2917320 unique shell quartets.

  ==> DiskJK: Disk-Based J/K Matrices <==

    J tasked:                  Yes
    K tasked:                  Yes
    wK tasked:                  No
    Memory [MiB]:              375
    Schwarz Cutoff:          1E-12

    OpenMP threads:              1

  Minimum eigenvalue in the overlap matrix is 4.4790779453E-03.
  Using Symmetric Orthogonalization.

  SCF Guess: Superposition of Atomic Densities via on-the-fly atomic UHF.

  ==> Iterations <==

                        Total Energy        Delta E     RMS |[F,P]|

   @RHF iter SAD:  -286.01415255266221   -2.86014e+02   0.00000e+00
   @RHF iter   1:  -286.98325714491187   -9.69105e-01   4.69308e-03 DIIS
   @RHF iter   2:  -287.16114367734065   -1.77887e-01   2.66498e-03 DIIS
   @RHF iter   3:  -287.21395974146861   -5.28161e-02   5.56463e-04 DIIS
   @RHF iter   4:  -287.21747122266538   -3.51148e-03   2.22338e-04 DIIS
   @RHF iter   5:  -287.21809452705190   -6.23304e-04   3.40449e-05 DIIS
   @RHF iter   6:  -287.21812467825464   -3.01512e-05   1.51418e-05 DIIS
   @RHF iter   7:  -287.21812931809836   -4.63984e-06   6.04436e-06 DIIS
   @RHF iter   8:  -287.21813037152310   -1.05342e-06   2.16496e-06 DIIS
   @RHF iter   9:  -287.21813050897822   -1.37455e-07   5.86706e-07 DIIS
   @RHF iter  10:  -287.21813051656989   -7.59167e-09   1.87022e-07 DIIS
   @RHF iter  11:  -287.21813051744618   -8.76298e-10   4.09882e-08 DIIS
   @RHF iter  12:  -287.21813051748705   -4.08704e-11   8.79453e-09 DIIS
   @RHF iter  13:  -287.21813051748990   -2.84217e-12   1.85373e-09 DIIS
   @RHF iter  14:  -287.21813051748836    1.53477e-12   8.25719e-10 DIIS
   @RHF iter  15:  -287.21813051749177   -3.41061e-12   3.34486e-10 DIIS
   @RHF iter  16:  -287.21813051749052    1.25056e-12   1.27385e-10 DIIS
   @RHF iter  17:  -287.21813051749092   -3.97904e-13   5.72496e-11 DIIS
  Energy and wave function converged.

  ==> Post-Iterations <==

    Orbital Energies [Eh]
    ---------------------

    Doubly Occupied:

       1A    -20.497455     2A    -15.590059     3A    -11.345628
       4A    -11.243440     5A    -11.222055     6A    -11.221372
       7A     -1.358120     8A     -1.216697     9A     -1.035854
      10A     -0.998274    11A     -0.841517    12A     -0.798437
      13A     -0.726671    14A     -0.650782    15A     -0.614808
      16A     -0.611085    17A     -0.608205    18A     -0.561769
      19A     -0.557059    20A     -0.527064    21A     -0.509642
      22A     -0.490396    23A     -0.487538    24A     -0.405632
      25A     -0.396856

    Virtual:

      26A      0.155983    27A      0.187872    28A      0.197959
      29A      0.208537    30A      0.213681    31A      0.249257
      32A      0.249812    33A      0.270790    34A      0.273511
      35A      0.282969    36A      0.292754    37A      0.310198
      38A      0.380333    39A      0.408326    40A      0.468284
      41A      0.565493    42A      0.589028    43A      0.595335
      44A      0.601984    45A      0.631724    46A      0.660540
      47A      0.675922    48A      0.697432    49A      0.703292
      50A      0.736069    51A      0.750814    52A      0.796587
      53A      0.830100    54A      0.857162    55A      0.866211
      56A      0.879318    57A      0.883938    58A      0.887573
      59A      0.896949    60A      0.903360    61A      0.911720
      62A      0.924539    63A      0.947641    64A      0.977374
      65A      1.005337    66A      1.047055    67A      1.089635
      68A      1.118571    69A      1.127583    70A      1.144864
      71A      1.173029    72A      1.273542    73A      1.332819
      74A      1.371498    75A      1.402569    76A      1.418762
      77A      1.422130    78A      1.440238    79A      1.485542
      80A      1.494000    81A      1.507977    82A      1.576181
      83A      1.625878    84A      1.657887    85A      1.667806
      86A      1.684018    87A      1.724694    88A      1.796698
      89A      1.835281    90A      1.848586    91A      1.860610
      92A      1.878292    93A      1.897076    94A      1.914018
      95A      1.929521    96A      1.936654    97A      1.946826
      98A      1.954126    99A      1.961122   100A      1.983571
     101A      2.016739   102A      2.052888   103A      2.061936
     104A      2.091094   105A      2.114117   106A      2.122009
     107A      2.132387   108A      2.224535   109A      2.294414
     110A      2.306117   111A      2.343337   112A      2.415352
     113A      2.433336   114A      2.455692   115A      2.460556
     116A      2.464253   117A      2.532945   118A      2.566161
     119A      2.577058   120A      2.582332   121A      2.635333
     122A      2.742731   123A      2.759674   124A      2.772187
     125A      2.786759   126A      2.794304   127A      2.835818
     128A      2.845000   129A      2.845275   130A      2.949613
     131A      2.957925   132A      2.979769   133A      3.095889
     134A      3.130850   135A      3.284051   136A      3.488597
     137A      3.523421   138A      3.855606   139A      3.898547

    Final Occupation by Irrep:
              A
    DOCC [    25 ]

  @RHF Final Energy:  -287.21813051749092

   => Energetics <=

    Nuclear Repulsion Energy =            232.3308862101056604
    One-Electron Energy =                -850.0652050781801563
    Two-Electron Energy =                 330.5161883505836045
    Total Energy =                       -287.2181305174909198

Computation Completed

Properties will be evaluated at   0.000000,   0.000000,   0.000000 [a0]

Properties computed using the SCF density matrix

  Nuclear Dipole Moment: [e a0]
     X:     0.6420      Y:    10.4697      Z:    -2.6976

  Electronic Dipole Moment: [e a0]
     X:     0.2584      Y:    -9.1253      Z:     3.2188

  Dipole Moment: [e a0]
     X:     0.9004      Y:     1.3445      Z:     0.5212     Total:     1.7000

  Dipole Moment: [D]
     X:     2.2887      Y:     3.4174      Z:     1.3247     Total:     4.3210

*** tstop() called on ds3 at Mon Apr 27 23:30:24 2020
Module time:
	user time   =      17.89 seconds =       0.30 minutes
	system time =      10.85 seconds =       0.18 minutes
	total time  =         28 seconds =       0.47 minutes
Total time:
	user time   =      17.89 seconds =       0.30 minutes
	system time =      10.85 seconds =       0.18 minutes
	total time  =         28 seconds =       0.47 minutes
                                     G D M A

                                 by Anthony Stone

                           version 2.2.06, 22 June 2011

               Distributed Multipoles from Gaussian wavefunctions

Starting at 23:30:24 on 27 Apr 2020

Using SCF density matrix from file ./SSI/SSI-017GLN-093VAL-1-dimer.test.3024.fchk

                         Distributed Multipole Analysis

Standard DMA

Positions and radii in angstrom
Multipole moments in atomic units, ea_0^k for rank k

C          x =  1.955170  y = -1.619754  z =  0.349143 angstrom
           Maximum rank =  0   Radius =  0.650 angstrom
                   Q00  =  -0.263739

C          x =  0.461170  y = -1.381754  z =  0.524143 angstrom
           Maximum rank =  0   Radius =  0.650 angstrom
                   Q00  =   0.810016

O          x = -0.378830  y = -2.223754  z =  0.169143 angstrom
           Maximum rank =  0   Radius =  0.650 angstrom
                   Q00  =  -0.809354

N          x =  0.110170  y = -0.239754  z =  1.068143 angstrom
           Maximum rank =  0   Radius =  0.650 angstrom
                   Q00  =  -0.508771

H          x = -0.863830  y = -0.059754  z =  1.276143 angstrom
           Maximum rank =  0   Radius =  0.325 angstrom
                   Q00  =   0.231545

H          x =  0.829170  y =  0.471246  z =  1.234143 angstrom
           Maximum rank =  0   Radius =  0.325 angstrom
                   Q00  =   0.208365

H          x =  2.173170  y = -2.613754  z =  0.738143 angstrom
           Maximum rank =  0   Radius =  0.325 angstrom
                   Q00  =   0.134118

H          x =  2.527170  y = -0.897754  z =  0.932143 angstrom
           Maximum rank =  0   Radius =  0.325 angstrom
                   Q00  =   0.074578

H          x =  2.251470  y = -1.557334  z = -0.708359 angstrom
           Maximum rank =  0   Radius =  0.325 angstrom
                   Q00  =   0.132151

C          x = -0.909830  y =  2.182246  z = -0.489857 angstrom
           Maximum rank =  0   Radius =  0.650 angstrom
                   Q00  =  -0.229924

C          x = -1.187830  y =  3.124246  z = -1.613857 angstrom
           Maximum rank =  0   Radius =  0.650 angstrom
                   Q00  =  -0.226995

H          x = -1.613830  y =  2.335246  z =  0.329143 angstrom
           Maximum rank =  0   Radius =  0.325 angstrom
                   Q00  =   0.072372

H          x = -1.005830  y =  1.160246  z = -0.858857 angstrom
           Maximum rank =  0   Radius =  0.325 angstrom
                   Q00  =   0.084561

H          x =  0.111170  y =  2.310246  z = -0.140857 angstrom
           Maximum rank =  0   Radius =  0.325 angstrom
                   Q00  =   0.058750

H          x = -0.381830  y =  3.023246  z = -2.340857 angstrom
           Maximum rank =  0   Radius =  0.325 angstrom
                   Q00  =   0.075869

H          x = -1.207320  y =  4.154076  z = -1.227761 angstrom
           Maximum rank =  0   Radius =  0.325 angstrom
                   Q00  =   0.074716

H          x = -2.132390  y =  2.853036  z = -2.108078 angstrom
           Maximum rank =  0   Radius =  0.325 angstrom
                   Q00  =   0.081741

Total multipoles referred to origin at
           x =   0.000000,  y =    0.000000,  z =    0.000000 angstrom
                   Q00  =  -0.000000

Finished at 23:30:24 on 27 Apr 2020

  DMA results are available in the Python driver through the
	  variable('DMA DISTRIBUTED MULTIPOLES')
  and
	  variable('DMA TOTAL MULTIPOLES')
  commands.

    Psi4 stopped on: Monday, 27 April 2020 11:30PM
    Psi4 wall time for execution: 0:00:28.10

*** Psi4 exiting successfully. Buy a developer a beer!
