                               Psi4 1.3.2 release

  ==> Input File <==

--------------------------------------------------------------------------
import numpy as np
set {scf_type pk
basis cc-pvdz
d_convergence 10
gdma_switch   0
gdma_limit    0
gdma_origin   [ 0.0,  0.0,  0.0 ]
}
molecule test {
    units Angstrom
    -1 1
    --
    -1 1
    C                2.239789282241688     0.902241402826621    -1.532405853060187
    C                1.697789282241688    -0.427758597173379    -2.006405853060186
    O                2.234789282241687    -1.037758597173379    -2.939405853060187
    N                0.587789282241688    -0.860758597173380    -1.412405853060186
    H                0.190789282241688    -1.734758597173379    -1.720405853060186
    H                0.149789282241688    -0.353758597173379    -0.652405853060187
    H                3.230789282241688     1.053241402826620    -1.942405853060186
    H                2.301789282241688     0.865241402826621    -0.446405853060186
    H                1.540074282241688     1.678711402826620    -1.875185853060187
    C               -2.565210717758312     1.523241402826620     1.942594146939813
    C               -1.601210717758312     0.312241402826621     1.971594146939813
    O               -1.564210717758312    -0.432758597173379     0.938594146939814
    O               -0.945210717758312     0.054241402826621     3.015594146939814
    H               -3.576210717758313     1.154241402826621     1.750594146939814
    H               -2.307210717758312     2.134241402826621     1.080594146939813
    H               -2.613355717758312     2.135481402826620     2.855204146939814

}
e, wfn = energy('scf', return_wfn=True)
gdma(wfn)
dmavals = variable('DMA DISTRIBUTED MULTIPOLES')
charges = np.array(dmavals)
print(charges)
np.save('SSI-130GLN-134GLU-1-dimer.npy', np.array(charges))--------------------------------------------------------------------------

*** tstart() called on ds3
*** at Mon Apr 27 01:43:36 2020

   => Loading Basis Set <=

    Name: CC-PVDZ
    Role: ORBITAL
    Keyword: BASIS
    atoms 1-2, 10-11 entry C          line   138 file /theoryfs2/ds/metcalf/miniconda2/envs/tf2gpu/share/psi4/basis/cc-pvdz.gbs
    atoms 3, 12-13   entry O          line   198 file /theoryfs2/ds/metcalf/miniconda2/envs/tf2gpu/share/psi4/basis/cc-pvdz.gbs
    atoms 4          entry N          line   168 file /theoryfs2/ds/metcalf/miniconda2/envs/tf2gpu/share/psi4/basis/cc-pvdz.gbs
    atoms 5-9, 14-16 entry H          line    22 file /theoryfs2/ds/metcalf/miniconda2/envs/tf2gpu/share/psi4/basis/cc-pvdz.gbs

         ---------------------------------------------------------
                                   SCF
               by Justin Turney, Rob Parrish, Andy Simmonett
                          and Daniel G. A. Smith
                              RHF Reference
                        1 Threads,    500 MiB Core
         ---------------------------------------------------------

  ==> Geometry <==

    Molecular point group: c1
    Full point group: C1

    Geometry (in Angstrom), charge = -1, multiplicity = 1:

       Center              X                  Y                   Z               Mass
    ------------   -----------------  -----------------  -----------------  -----------------
         C            2.239789282242     0.902241402827    -1.532405853060    12.000000000000
         C            1.697789282242    -0.427758597173    -2.006405853060    12.000000000000
         O            2.234789282242    -1.037758597173    -2.939405853060    15.994914619570
         N            0.587789282242    -0.860758597173    -1.412405853060    14.003074004430
         H            0.190789282242    -1.734758597173    -1.720405853060     1.007825032230
         H            0.149789282242    -0.353758597173    -0.652405853060     1.007825032230
         H            3.230789282242     1.053241402827    -1.942405853060     1.007825032230
         H            2.301789282242     0.865241402827    -0.446405853060     1.007825032230
         H            1.540074282242     1.678711402827    -1.875185853060     1.007825032230
         C           -2.565210717758     1.523241402827     1.942594146940    12.000000000000
         C           -1.601210717758     0.312241402827     1.971594146940    12.000000000000
         O           -1.564210717758    -0.432758597173     0.938594146940    15.994914619570
         O           -0.945210717758     0.054241402827     3.015594146940    15.994914619570
         H           -3.576210717758     1.154241402827     1.750594146940     1.007825032230
         H           -2.307210717758     2.134241402827     1.080594146940     1.007825032230
         H           -2.613355717758     2.135481402827     2.855204146940     1.007825032230

  Running in c1 symmetry.

  Rotational constants: A =      0.13877  B =      0.01829  C =      0.01786 [cm^-1]
  Rotational constants: A =   4160.24171  B =    548.28893  C =    535.28866 [MHz]
  Nuclear repulsion =  335.103538484318506

  Charge       = -1
  Multiplicity = 1
  Electrons    = 64
  Nalpha       = 32
  Nbeta        = 32

  ==> Algorithm <==

  SCF Algorithm Type is PK.
  DIIS enabled.
  MOM disabled.
  Fractional occupation disabled.
  Guess Type is SAD.
  Energy threshold   = 1.00e-06
  Density threshold  = 1.00e-10
  Integral threshold = 0.00e+00

  ==> Primary Basis <==

  Basis Set: CC-PVDZ
    Blend: CC-PVDZ
    Number of shells: 72
    Number of basis function: 152
    Number of Cartesian functions: 160
    Spherical Harmonics?: true
    Max angular momentum: 2

  ==> Pre-Iterations <==

   -------------------------------------------------------
    Irrep   Nso     Nmo     Nalpha   Nbeta   Ndocc  Nsocc
   -------------------------------------------------------
     A        152     152       0       0       0       0
   -------------------------------------------------------
    Total     152     152      32      32      32       0
   -------------------------------------------------------

  ==> Integral Setup <==

  Using integral reordering PK algorithm.
  Sizing the integral batches needed.
  Building batch lookup table.
   Calculation information:
      Number of atoms:                  16
      Number of AO shells:              72
      Number of primitives:            216
      Number of atomic orbitals:       160
      Number of basis functions:       152

      Integral cutoff                 1.00e-12
      Number of threads:                 1

	Batch   1 pq = [       0,    9405] index = [             0,44231715] size =     44231715
	Batch   2 pq = [    9405,   11628] index = [      44231715,67611006] size =     23379291
  Task number: 7
  Buffer size: 11059200
  Buffer per thread: 2
  We computed 2368165 shell quartets total.
  Whereas there are 3454506 unique shell quartets.

  ==> DiskJK: Disk-Based J/K Matrices <==

    J tasked:                  Yes
    K tasked:                  Yes
    wK tasked:                  No
    Memory [MiB]:              375
    Schwarz Cutoff:          1E-12

    OpenMP threads:              1

  Minimum eigenvalue in the overlap matrix is 4.6842113043E-03.
  Using Symmetric Orthogonalization.

  SCF Guess: Superposition of Atomic Densities via on-the-fly atomic UHF.

  ==> Iterations <==

                        Total Energy        Delta E     RMS |[F,P]|

   @RHF iter SAD:  -433.29935159247339   -4.33299e+02   0.00000e+00
   @RHF iter   1:  -434.93443442683758   -1.63508e+00   5.48694e-03 DIIS
   @RHF iter   2:  -435.16364433201028   -2.29210e-01   3.31482e-03 DIIS
   @RHF iter   3:  -435.25223593941746   -8.85916e-02   4.87789e-04 DIIS
   @RHF iter   4:  -435.25563164018405   -3.39570e-03   1.85429e-04 DIIS
   @RHF iter   5:  -435.25620042566101   -5.68785e-04   3.89689e-05 DIIS
   @RHF iter   6:  -435.25622883208126   -2.84064e-05   2.02492e-05 DIIS
   @RHF iter   7:  -435.25623562300285   -6.79092e-06   5.42101e-06 DIIS
   @RHF iter   8:  -435.25623665874849   -1.03575e-06   2.42490e-06 DIIS
   @RHF iter   9:  -435.25623682755327   -1.68805e-07   9.29430e-07 DIIS
   @RHF iter  10:  -435.25623685420197   -2.66487e-08   2.38664e-07 DIIS
   @RHF iter  11:  -435.25623685559407   -1.39210e-09   1.00608e-07 DIIS
   @RHF iter  12:  -435.25623685573117   -1.37106e-10   2.69889e-08 DIIS
   @RHF iter  13:  -435.25623685574845   -1.72804e-11   7.35056e-09 DIIS
   @RHF iter  14:  -435.25623685575010   -1.64846e-12   2.69189e-09 DIIS
   @RHF iter  15:  -435.25623685575141   -1.30740e-12   9.47909e-10 DIIS
   @RHF iter  16:  -435.25623685575016    1.25056e-12   4.18225e-10 DIIS
   @RHF iter  17:  -435.25623685575033   -1.70530e-13   1.84315e-10 DIIS
   @RHF iter  18:  -435.25623685575113   -7.95808e-13   4.94609e-11 DIIS
  Energy and wave function converged.

  ==> Post-Iterations <==

    Orbital Energies [Eh]
    ---------------------

    Doubly Occupied:

       1A    -20.388348     2A    -20.281297     3A    -20.280365
       4A    -15.452134     5A    -11.230658     6A    -11.142003
       7A    -11.133001     8A    -11.069000     9A     -1.246191
      10A     -1.157632    11A     -1.083507    12A     -1.047194
      13A     -0.890650    14A     -0.809014    15A     -0.669758
      16A     -0.590283    17A     -0.537346    18A     -0.518826
      19A     -0.504916    20A     -0.451859    21A     -0.448969
      22A     -0.424963    23A     -0.417512    24A     -0.416040
      25A     -0.405009    26A     -0.358636    27A     -0.316920
      28A     -0.295494    29A     -0.278396    30A     -0.202181
      31A     -0.190437    32A     -0.179145

    Virtual:

      33A      0.290828    34A      0.314026    35A      0.338447
      36A      0.340019    37A      0.358803    38A      0.379103
      39A      0.385219    40A      0.400107    41A      0.436314
      42A      0.460982    43A      0.498888    44A      0.554039
      45A      0.571368    46A      0.664960    47A      0.678793
      48A      0.698399    49A      0.749847    50A      0.759115
      51A      0.796418    52A      0.822937    53A      0.843618
      54A      0.852858    55A      0.876363    56A      0.885393
      57A      0.928773    58A      0.939112    59A      0.962409
      60A      0.976643    61A      1.002139    62A      1.017397
      63A      1.019745    64A      1.024071    65A      1.027861
      66A      1.060782    67A      1.063168    68A      1.098871
      69A      1.140236    70A      1.149153    71A      1.195054
      72A      1.218284    73A      1.239372    74A      1.262425
      75A      1.323837    76A      1.334311    77A      1.402566
      78A      1.457273    79A      1.466161    80A      1.479671
      81A      1.503222    82A      1.527302    83A      1.533910
      84A      1.553724    85A      1.571301    86A      1.576919
      87A      1.585756    88A      1.613868    89A      1.651478
      90A      1.694241    91A      1.711835    92A      1.757609
      93A      1.782804    94A      1.831274    95A      1.835939
      96A      1.845164    97A      1.954608    98A      1.962830
      99A      1.989844   100A      1.999170   101A      2.023409
     102A      2.043765   103A      2.060861   104A      2.077525
     105A      2.094134   106A      2.106352   107A      2.122066
     108A      2.176612   109A      2.197552   110A      2.220789
     111A      2.240410   112A      2.262937   113A      2.272834
     114A      2.327449   115A      2.362484   116A      2.404739
     117A      2.411695   118A      2.524071   119A      2.568866
     120A      2.573647   121A      2.607172   122A      2.621020
     123A      2.696273   124A      2.701681   125A      2.712661
     126A      2.740277   127A      2.741854   128A      2.842421
     129A      2.864338   130A      2.895118   131A      2.897091
     132A      2.954178   133A      2.972366   134A      2.977218
     135A      3.132636   136A      3.206219   137A      3.224212
     138A      3.247247   139A      3.256930   140A      3.269277
     141A      3.333246   142A      3.417882   143A      3.599913
     144A      3.607999   145A      3.662104   146A      3.730915
     147A      3.789485   148A      3.961883   149A      4.003937
     150A      4.019372   151A      4.046042   152A      4.145599

    Final Occupation by Irrep:
              A
    DOCC [    32 ]

  @RHF Final Energy:  -435.25623685575113

   => Energetics <=

    Nuclear Repulsion Energy =            335.1035384843185057
    One-Electron Energy =               -1271.8841810351359527
    Two-Electron Energy =                 501.5244056950663207
    Total Energy =                       -435.2562368557511263

Computation Completed

Properties will be evaluated at   0.000000,   0.000000,   0.000000 [a0]

Properties computed using the SCF density matrix

  Nuclear Dipole Moment: [e a0]
     X:    -1.0188      Y:     6.4948      Z:    -0.8820

  Electronic Dipole Moment: [e a0]
     X:     1.8289      Y:    -5.2844      Z:    -1.0076

  Dipole Moment: [e a0]
     X:     0.8101      Y:     1.2105      Z:    -1.8896     Total:     2.3858

  Dipole Moment: [D]
     X:     2.0591      Y:     3.0767      Z:    -4.8029     Total:     6.0641

*** tstop() called on ds3 at Mon Apr 27 01:44:04 2020
Module time:
	user time   =      18.25 seconds =       0.30 minutes
	system time =      10.49 seconds =       0.17 minutes
	total time  =         28 seconds =       0.47 minutes
Total time:
	user time   =      18.25 seconds =       0.30 minutes
	system time =      10.49 seconds =       0.17 minutes
	total time  =         28 seconds =       0.47 minutes
                                     G D M A

                                 by Anthony Stone

                           version 2.2.06, 22 June 2011

               Distributed Multipoles from Gaussian wavefunctions

Starting at 1:44:4 on 27 Apr 2020

Using SCF density matrix from file ./SSI/SSI-130GLN-134GLU-1-dimer.test.13529.fchk

                         Distributed Multipole Analysis

Standard DMA

Positions and radii in angstrom
Multipole moments in atomic units, ea_0^k for rank k

C          x =  2.239789  y =  0.902241  z = -1.532406 angstrom
           Maximum rank =  0   Radius =  0.650 angstrom
                   Q00  =  -0.258267

C          x =  1.697789  y = -0.427759  z = -2.006406 angstrom
           Maximum rank =  0   Radius =  0.650 angstrom
                   Q00  =   0.843750

O          x =  2.234789  y = -1.037759  z = -2.939406 angstrom
           Maximum rank =  0   Radius =  0.650 angstrom
                   Q00  =  -0.841096

N          x =  0.587789  y = -0.860759  z = -1.412406 angstrom
           Maximum rank =  0   Radius =  0.650 angstrom
                   Q00  =  -0.548611

H          x =  0.190789  y = -1.734759  z = -1.720406 angstrom
           Maximum rank =  0   Radius =  0.325 angstrom
                   Q00  =   0.208720

H          x =  0.149789  y = -0.353759  z = -0.652406 angstrom
           Maximum rank =  0   Radius =  0.325 angstrom
                   Q00  =   0.253608

H          x =  3.230789  y =  1.053241  z = -1.942406 angstrom
           Maximum rank =  0   Radius =  0.325 angstrom
                   Q00  =   0.101859

H          x =  2.301789  y =  0.865241  z = -0.446406 angstrom
           Maximum rank =  0   Radius =  0.325 angstrom
                   Q00  =   0.112946

H          x =  1.540074  y =  1.678711  z = -1.875186 angstrom
           Maximum rank =  0   Radius =  0.325 angstrom
                   Q00  =   0.111867

C          x = -2.565211  y =  1.523241  z =  1.942594 angstrom
           Maximum rank =  0   Radius =  0.650 angstrom
                   Q00  =  -0.283479

C          x = -1.601211  y =  0.312241  z =  1.971594 angstrom
           Maximum rank =  0   Radius =  0.650 angstrom
                   Q00  =   0.946688

O          x = -1.564211  y = -0.432759  z =  0.938594 angstrom
           Maximum rank =  0   Radius =  0.650 angstrom
                   Q00  =  -0.953517

O          x = -0.945211  y =  0.054241  z =  3.015594 angstrom
           Maximum rank =  0   Radius =  0.650 angstrom
                   Q00  =  -0.894358

H          x = -3.576211  y =  1.154241  z =  1.750594 angstrom
           Maximum rank =  0   Radius =  0.325 angstrom
                   Q00  =   0.074858

H          x = -2.307211  y =  2.134241  z =  1.080594 angstrom
           Maximum rank =  0   Radius =  0.325 angstrom
                   Q00  =   0.067632

H          x = -2.613356  y =  2.135481  z =  2.855204 angstrom
           Maximum rank =  0   Radius =  0.325 angstrom
                   Q00  =   0.057403

Total multipoles referred to origin at
           x =   0.000000,  y =    0.000000,  z =    0.000000 angstrom
                   Q00  =  -1.000000

Finished at 1:44:4 on 27 Apr 2020

  DMA results are available in the Python driver through the
	  variable('DMA DISTRIBUTED MULTIPOLES')
  and
	  variable('DMA TOTAL MULTIPOLES')
  commands.

    Psi4 stopped on: Monday, 27 April 2020 01:44AM
    Psi4 wall time for execution: 0:00:28.46

*** Psi4 exiting successfully. Buy a developer a beer!
