                               Psi4 1.3.2 release

  ==> Input File <==

--------------------------------------------------------------------------
import numpy as np
set {scf_type pk
basis cc-pvdz
d_convergence 10
gdma_switch   0
gdma_limit    0
gdma_origin   [ 0.0,  0.0,  0.0 ]
}
molecule test {
    units Angstrom
    0 1
    --
    0 1
    C                2.216839542714116    -1.343901355219473    -1.234759300850969
    C               -1.291160457285884    -1.046901355219472     0.175240699149031
    C               -1.062160457285884    -0.688901355219473     1.497240699149031
    C               -0.227160457285884    -1.247901355219472    -0.691759300850969
    C                1.087839542714116    -1.127901355219473    -0.247759300850969
    C                0.243839542714116    -0.524901355219473     1.950240699149031
    C                1.316839542714116    -0.725901355219473     1.075240699149031
    H               -2.303160457285884    -1.144901355219472    -0.189759300850969
    H               -1.891160457285884    -0.544901355219473     2.172240699149032
    H               -0.429160457285884    -1.506901355219473    -1.719759300850969
    H                0.417839542714116    -0.228901355219473     2.972240699149031
    H                2.473839542714116    -0.375901355219473    -1.665759300850969
    H                1.851839542714116    -1.977901355219472    -2.043759300850969
    H                2.318839542714116    -0.566901355219473     1.435240699149031
    H                3.124709542714116    -1.806809355219472    -0.820659300850969
    C               -0.969160457285884     2.286098644780528    -0.667759300850969
    C               -1.225160457285884     3.621098644780527    -1.360759300850969
    H               -0.082160457285884     2.314098644780528    -0.038759300850969
    H               -1.821160457285884     2.053098644780528    -0.029759300850969
    H               -0.869160457285884     1.496098644780528    -1.411759300850969
    H               -1.223160457285884     4.396098644780527    -0.594759300850969
    H               -2.198160457285884     3.603098644780528    -1.843759300850969
    H               -0.448017457285884     3.805517644780528    -2.117089300850969

}
e, wfn = energy('scf', return_wfn=True)
gdma(wfn)
dmavals = variable('DMA DISTRIBUTED MULTIPOLES')
charges = np.array(dmavals)
print(charges)
np.save('SSI-021PHE-079ILE-1-dimer.npy', np.array(charges))--------------------------------------------------------------------------

*** tstart() called on ds3
*** at Mon Apr 27 07:04:13 2020

   => Loading Basis Set <=

    Name: CC-PVDZ
    Role: ORBITAL
    Keyword: BASIS
    atoms 1-7, 16-17  entry C          line   138 file /theoryfs2/ds/metcalf/miniconda2/envs/tf2gpu/share/psi4/basis/cc-pvdz.gbs
    atoms 8-15, 18-23 entry H          line    22 file /theoryfs2/ds/metcalf/miniconda2/envs/tf2gpu/share/psi4/basis/cc-pvdz.gbs

         ---------------------------------------------------------
                                   SCF
               by Justin Turney, Rob Parrish, Andy Simmonett
                          and Daniel G. A. Smith
                              RHF Reference
                        1 Threads,    500 MiB Core
         ---------------------------------------------------------

  ==> Geometry <==

    Molecular point group: c1
    Full point group: C1

    Geometry (in Angstrom), charge = 0, multiplicity = 1:

       Center              X                  Y                   Z               Mass
    ------------   -----------------  -----------------  -----------------  -----------------
         C            2.216839542714    -1.343901355219    -1.234759300851    12.000000000000
         C           -1.291160457286    -1.046901355219     0.175240699149    12.000000000000
         C           -1.062160457286    -0.688901355219     1.497240699149    12.000000000000
         C           -0.227160457286    -1.247901355219    -0.691759300851    12.000000000000
         C            1.087839542714    -1.127901355219    -0.247759300851    12.000000000000
         C            0.243839542714    -0.524901355219     1.950240699149    12.000000000000
         C            1.316839542714    -0.725901355219     1.075240699149    12.000000000000
         H           -2.303160457286    -1.144901355219    -0.189759300851     1.007825032230
         H           -1.891160457286    -0.544901355219     2.172240699149     1.007825032230
         H           -0.429160457286    -1.506901355219    -1.719759300851     1.007825032230
         H            0.417839542714    -0.228901355219     2.972240699149     1.007825032230
         H            2.473839542714    -0.375901355219    -1.665759300851     1.007825032230
         H            1.851839542714    -1.977901355219    -2.043759300851     1.007825032230
         H            2.318839542714    -0.566901355219     1.435240699149     1.007825032230
         H            3.124709542714    -1.806809355219    -0.820659300851     1.007825032230
         C           -0.969160457286     2.286098644781    -0.667759300851    12.000000000000
         C           -1.225160457286     3.621098644781    -1.360759300851    12.000000000000
         H           -0.082160457286     2.314098644781    -0.038759300851     1.007825032230
         H           -1.821160457286     2.053098644781    -0.029759300851     1.007825032230
         H           -0.869160457286     1.496098644781    -1.411759300851     1.007825032230
         H           -1.223160457286     4.396098644781    -0.594759300851     1.007825032230
         H           -2.198160457286     3.603098644781    -1.843759300851     1.007825032230
         H           -0.448017457286     3.805517644781    -2.117089300851     1.007825032230

  Running in c1 symmetry.

  Rotational constants: A =      0.06072  B =      0.03002  C =      0.02522 [cm^-1]
  Rotational constants: A =   1820.43612  B =    899.94619  C =    756.10697 [MHz]
  Nuclear repulsion =  415.352261243719283

  Charge       = 0
  Multiplicity = 1
  Electrons    = 68
  Nalpha       = 34
  Nbeta        = 34

  ==> Algorithm <==

  SCF Algorithm Type is PK.
  DIIS enabled.
  MOM disabled.
  Fractional occupation disabled.
  Guess Type is SAD.
  Energy threshold   = 1.00e-06
  Density threshold  = 1.00e-10
  Integral threshold = 0.00e+00

  ==> Primary Basis <==

  Basis Set: CC-PVDZ
    Blend: CC-PVDZ
    Number of shells: 96
    Number of basis function: 196
    Number of Cartesian functions: 205
    Spherical Harmonics?: true
    Max angular momentum: 2

  ==> Pre-Iterations <==

   -------------------------------------------------------
    Irrep   Nso     Nmo     Nalpha   Nbeta   Ndocc  Nsocc
   -------------------------------------------------------
     A        196     196       0       0       0       0
   -------------------------------------------------------
    Total     196     196      34      34      34       0
   -------------------------------------------------------

  ==> Integral Setup <==

  Using integral reordering PK algorithm.
  Sizing the integral batches needed.
  Building batch lookup table.
   Calculation information:
      Number of atoms:                  23
      Number of AO shells:              96
      Number of primitives:            268
      Number of atomic orbitals:       205
      Number of basis functions:       196

      Integral cutoff                 1.00e-12
      Number of threads:                 1

	Batch   1 pq = [       0,    9405] index = [             0,44231715] size =     44231715
	Batch   2 pq = [    9405,   13301] index = [      44231715,88464951] size =     44233236
	Batch   3 pq = [   13301,   16290] index = [      88464951,132690195] size =     44225244
	Batch   4 pq = [   16290,   18810] index = [     132690195,176917455] size =     44227260
	Batch   5 pq = [   18810,   19306] index = [     176917455,186370471] size =      9453016
  Task number: 17
  Buffer size: 11059200
  Buffer per thread: 2
  We computed 10128613 shell quartets total.
  Whereas there are 10841496 unique shell quartets.

  ==> DiskJK: Disk-Based J/K Matrices <==

    J tasked:                  Yes
    K tasked:                  Yes
    wK tasked:                  No
    Memory [MiB]:              375
    Schwarz Cutoff:          1E-12

    OpenMP threads:              1

  Minimum eigenvalue in the overlap matrix is 3.1733513890E-04.
  Using Symmetric Orthogonalization.

  SCF Guess: Superposition of Atomic Densities via on-the-fly atomic UHF.

  ==> Iterations <==

                        Total Energy        Delta E     RMS |[F,P]|

   @RHF iter SAD:  -347.86560035192718   -3.47866e+02   0.00000e+00
   @RHF iter   1:  -348.76478476858648   -8.99184e-01   2.89903e-03 DIIS
   @RHF iter   2:  -348.95773593531555   -1.92951e-01   1.19405e-03 DIIS
   @RHF iter   3:  -348.98754803336237   -2.98121e-02   2.56109e-04 DIIS
   @RHF iter   4:  -348.98999276375906   -2.44473e-03   5.03131e-05 DIIS
   @RHF iter   5:  -348.99006111237986   -6.83486e-05   1.67780e-05 DIIS
   @RHF iter   6:  -348.99006811945475   -7.00707e-06   4.54485e-06 DIIS
   @RHF iter   7:  -348.99006869740384   -5.77949e-07   1.27801e-06 DIIS
   @RHF iter   8:  -348.99006874541601   -4.80122e-08   2.77308e-07 DIIS
   @RHF iter   9:  -348.99006874942000   -4.00399e-09   1.11000e-07 DIIS
   @RHF iter  10:  -348.99006875004306   -6.23061e-10   4.56779e-08 DIIS
   @RHF iter  11:  -348.99006875022587   -1.82808e-10   1.99568e-08 DIIS
   @RHF iter  12:  -348.99006875026640   -4.05294e-11   1.07656e-08 DIIS
   @RHF iter  13:  -348.99006875027743   -1.10276e-11   4.01231e-09 DIIS
   @RHF iter  14:  -348.99006875027823   -7.95808e-13   1.10368e-09 DIIS
   @RHF iter  15:  -348.99006875027987   -1.64846e-12   3.84264e-10 DIIS
   @RHF iter  16:  -348.99006875027868    1.19371e-12   1.18093e-10 DIIS
   @RHF iter  17:  -348.99006875027823    4.54747e-13   4.73914e-11 DIIS
  Energy and wave function converged.

  ==> Post-Iterations <==

    Orbital Energies [Eh]
    ---------------------

    Doubly Occupied:

       1A    -11.242643     2A    -11.235621     3A    -11.233131
       4A    -11.231560     5A    -11.230638     6A    -11.229375
       7A    -11.228336     8A    -11.210229     9A    -11.203783
      10A     -1.151206    11A     -1.042601    12A     -1.011830
      13A     -1.009735    14A     -0.931078    15A     -0.827552
      16A     -0.823637    17A     -0.795559    18A     -0.690901
      19A     -0.630890    20A     -0.628847    21A     -0.593041
      22A     -0.588979    23A     -0.581858    24A     -0.575955
      25A     -0.562614    26A     -0.535157    27A     -0.499391
      28A     -0.484368    29A     -0.483458    30A     -0.480177
      31A     -0.476032    32A     -0.472767    33A     -0.330463
      34A     -0.320699

    Virtual:

      35A      0.136514    36A      0.140387    37A      0.175824
      38A      0.199223    39A      0.200729    40A      0.215988
      41A      0.238799    42A      0.248139    43A      0.252747
      44A      0.262294    45A      0.269620    46A      0.276011
      47A      0.280215    48A      0.288919    49A      0.301578
      50A      0.319286    51A      0.366689    52A      0.374697
      53A      0.399748    54A      0.452864    55A      0.464060
      56A      0.477546    57A      0.491417    58A      0.558898
      59A      0.566414    60A      0.601191    61A      0.606821
      62A      0.613534    63A      0.632814    64A      0.660981
      65A      0.666444    66A      0.683008    67A      0.698107
      68A      0.704108    69A      0.738780    70A      0.741259
      71A      0.753194    72A      0.761911    73A      0.770176
      74A      0.786901    75A      0.795868    76A      0.816658
      77A      0.845154    78A      0.855342    79A      0.862620
      80A      0.874754    81A      0.881077    82A      0.896020
      83A      0.897116    84A      0.901100    85A      0.903047
      86A      0.917690    87A      0.924425    88A      0.928533
      89A      0.940617    90A      0.943777    91A      0.954814
      92A      0.968469    93A      0.988199    94A      1.004276
      95A      1.037024    96A      1.062659    97A      1.122660
      98A      1.128922    99A      1.135973   100A      1.142023
     101A      1.153108   102A      1.164750   103A      1.196612
     104A      1.226849   105A      1.236011   106A      1.243603
     107A      1.259932   108A      1.271733   109A      1.308749
     110A      1.313809   111A      1.323995   112A      1.336777
     113A      1.410423   114A      1.482302   115A      1.489307
     116A      1.502274   117A      1.529330   118A      1.567763
     119A      1.594046   120A      1.601875   121A      1.665951
     122A      1.685932   123A      1.699475   124A      1.706332
     125A      1.738690   126A      1.747674   127A      1.763166
     128A      1.794369   129A      1.816941   130A      1.855674
     131A      1.861885   132A      1.881182   133A      1.890853
     134A      1.901205   135A      1.913204   136A      1.916124
     137A      1.927019   138A      1.936795   139A      1.939898
     140A      1.946110   141A      1.952532   142A      1.954979
     143A      1.960616   144A      1.970267   145A      1.982183
     146A      1.989282   147A      2.010012   148A      2.030249
     149A      2.061423   150A      2.074491   151A      2.084374
     152A      2.114268   153A      2.121152   154A      2.135538
     155A      2.149462   156A      2.162978   157A      2.170084
     158A      2.176677   159A      2.180178   160A      2.261512
     161A      2.270470   162A      2.292421   163A      2.298945
     164A      2.314463   165A      2.325275   166A      2.331672
     167A      2.356858   168A      2.448088   169A      2.463426
     170A      2.472351   171A      2.480827   172A      2.489641
     173A      2.546011   174A      2.575359   175A      2.596940
     176A      2.630718   177A      2.737931   178A      2.753586
     179A      2.766338   180A      2.782521   181A      2.785092
     182A      2.802168   183A      2.816151   184A      2.845810
     185A      2.859004   186A      2.861474   187A      2.873019
     188A      2.962568   189A      2.976611   190A      2.991387
     191A      3.023604   192A      3.033671   193A      3.160742
     194A      3.200989   195A      3.301949   196A      3.964680

    Final Occupation by Irrep:
              A
    DOCC [    34 ]

  @RHF Final Energy:  -348.99006875027823

   => Energetics <=

    Nuclear Repulsion Energy =            415.3522612437192834
    One-Electron Energy =               -1293.5364403782309637
    Two-Electron Energy =                 529.1941103842334542
    Total Energy =                       -348.9900687502781693

Computation Completed

Properties will be evaluated at   0.000000,   0.000000,   0.000000 [a0]

Properties computed using the SCF density matrix

  Nuclear Dipole Moment: [e a0]
     X:    -1.0108      Y:     8.9199      Z:    -5.5272

  Electronic Dipole Moment: [e a0]
     X:     1.1139      Y:    -8.9729      Z:     5.4704

  Dipole Moment: [e a0]
     X:     0.1031      Y:    -0.0529      Z:    -0.0568     Total:     0.1290

  Dipole Moment: [D]
     X:     0.2620      Y:    -0.1345      Z:    -0.1443     Total:     0.3280

*** tstop() called on ds3 at Mon Apr 27 07:06:43 2020
Module time:
	user time   =      71.90 seconds =       1.20 minutes
	system time =      26.42 seconds =       0.44 minutes
	total time  =        150 seconds =       2.50 minutes
Total time:
	user time   =      71.90 seconds =       1.20 minutes
	system time =      26.42 seconds =       0.44 minutes
	total time  =        150 seconds =       2.50 minutes
                                     G D M A

                                 by Anthony Stone

                           version 2.2.06, 22 June 2011

               Distributed Multipoles from Gaussian wavefunctions

Starting at 7:6:43 on 27 Apr 2020

Using SCF density matrix from file ./SSI/SSI-021PHE-079ILE-1-dimer.test.19960.fchk

                         Distributed Multipole Analysis

Standard DMA

Positions and radii in angstrom
Multipole moments in atomic units, ea_0^k for rank k

C          x =  2.216840  y = -1.343901  z = -1.234759 angstrom
           Maximum rank =  0   Radius =  0.650 angstrom
                   Q00  =  -0.214154

C          x = -1.291160  y = -1.046901  z =  0.175241 angstrom
           Maximum rank =  0   Radius =  0.650 angstrom
                   Q00  =  -0.038256

C          x = -1.062160  y = -0.688901  z =  1.497241 angstrom
           Maximum rank =  0   Radius =  0.650 angstrom
                   Q00  =  -0.078064

C          x = -0.227160  y = -1.247901  z = -0.691759 angstrom
           Maximum rank =  0   Radius =  0.650 angstrom
                   Q00  =  -0.006409

C          x =  1.087840  y = -1.127901  z = -0.247759 angstrom
           Maximum rank =  0   Radius =  0.650 angstrom
                   Q00  =  -0.095308

C          x =  0.243840  y = -0.524901  z =  1.950241 angstrom
           Maximum rank =  0   Radius =  0.650 angstrom
                   Q00  =  -0.078785

C          x =  1.316840  y = -0.725901  z =  1.075241 angstrom
           Maximum rank =  0   Radius =  0.650 angstrom
                   Q00  =  -0.092728

H          x = -2.303160  y = -1.144901  z = -0.189759 angstrom
           Maximum rank =  0   Radius =  0.325 angstrom
                   Q00  =   0.062699

H          x = -1.891160  y = -0.544901  z =  2.172241 angstrom
           Maximum rank =  0   Radius =  0.325 angstrom
                   Q00  =   0.060318

H          x = -0.429160  y = -1.506901  z = -1.719759 angstrom
           Maximum rank =  0   Radius =  0.325 angstrom
                   Q00  =   0.054710

H          x =  0.417840  y = -0.228901  z =  2.972241 angstrom
           Maximum rank =  0   Radius =  0.325 angstrom
                   Q00  =   0.064997

H          x =  2.473840  y = -0.375901  z = -1.665759 angstrom
           Maximum rank =  0   Radius =  0.325 angstrom
                   Q00  =   0.103914

H          x =  1.851840  y = -1.977901  z = -2.043759 angstrom
           Maximum rank =  0   Radius =  0.325 angstrom
                   Q00  =   0.097368

H          x =  2.318840  y = -0.566901  z =  1.435241 angstrom
           Maximum rank =  0   Radius =  0.325 angstrom
                   Q00  =   0.056999

H          x =  3.124710  y = -1.806809  z = -0.820659 angstrom
           Maximum rank =  0   Radius =  0.325 angstrom
                   Q00  =   0.102877

C          x = -0.969160  y =  2.286099  z = -0.667759 angstrom
           Maximum rank =  0   Radius =  0.650 angstrom
                   Q00  =  -0.226353

C          x = -1.225160  y =  3.621099  z = -1.360759 angstrom
           Maximum rank =  0   Radius =  0.650 angstrom
                   Q00  =  -0.231202

H          x = -0.082160  y =  2.314099  z = -0.038759 angstrom
           Maximum rank =  0   Radius =  0.325 angstrom
                   Q00  =   0.083183

H          x = -1.821160  y =  2.053099  z = -0.029759 angstrom
           Maximum rank =  0   Radius =  0.325 angstrom
                   Q00  =   0.071455

H          x = -0.869160  y =  1.496099  z = -1.411759 angstrom
           Maximum rank =  0   Radius =  0.325 angstrom
                   Q00  =   0.076296

H          x = -1.223160  y =  4.396099  z = -0.594759 angstrom
           Maximum rank =  0   Radius =  0.325 angstrom
                   Q00  =   0.075337

H          x = -2.198160  y =  3.603099  z = -1.843759 angstrom
           Maximum rank =  0   Radius =  0.325 angstrom
                   Q00  =   0.076694

H          x = -0.448017  y =  3.805518  z = -2.117089 angstrom
           Maximum rank =  0   Radius =  0.325 angstrom
                   Q00  =   0.074413

Total multipoles referred to origin at
           x =   0.000000,  y =    0.000000,  z =    0.000000 angstrom
                   Q00  =  -0.000000

Finished at 7:6:43 on 27 Apr 2020

  DMA results are available in the Python driver through the
	  variable('DMA DISTRIBUTED MULTIPOLES')
  and
	  variable('DMA TOTAL MULTIPOLES')
  commands.

    Psi4 stopped on: Monday, 27 April 2020 07:06AM
    Psi4 wall time for execution: 0:02:30.08

*** Psi4 exiting successfully. Buy a developer a beer!
