                               Psi4 1.3.2 release

  ==> Input File <==

--------------------------------------------------------------------------
import numpy as np
set {scf_type pk
basis cc-pvdz
d_convergence 10
gdma_switch   0
gdma_limit    0
gdma_origin   [ 0.0,  0.0,  0.0 ]
}
molecule test {
    units Angstrom
    1 1
    --
    1 1
    C                2.181602728668838    -1.964829897648541     0.075787853319469
    C                0.070602728668838    -1.605829897648541     1.325787853319469
    N               -0.941397271331162    -0.808829897648541     1.604787853319469
    N                1.005602728668838    -1.193829897648541     0.480787853319469
    N                0.131602728668838    -2.799829897648541     1.884787853319469
    H               -1.011397271331162     0.071170102351459     1.107787853319469
    H               -1.647397271331162    -1.079829897648541     2.271787853319469
    H                0.863602728668838    -0.281829897648541     0.057787853319469
    H                0.921602728668838    -3.395829897648541     1.706787853319469
    H               -0.568397271331162    -3.089829897648541     2.548787853319469
    H                2.332602728668838    -2.840829897648541     0.707787853319469
    H                3.074602728668838    -1.345829897648541     0.181787853319469
    H                2.088542728668838    -2.298539897648541    -0.968232146680531
    C               -0.935397271331162     2.228170102351459    -2.769212146680531
    C               -0.606397271331162     2.051170102351459    -1.302212146680531
    O               -0.653397271331162     0.946170102351459    -0.764212146680531
    N               -0.258397271331162     3.137170102351459    -0.632212146680531
    H               -0.160397271331162     2.839170102351459    -3.229212146680531
    H               -1.881397271331162     2.761170102351459    -2.833212146680531
    H               -0.061397271331162     3.039170102351460     0.351787853319469
    H               -0.154397271331162     4.041170102351460    -1.073212146680531
    H               -1.015390271331162     1.264660102351459    -3.293848146680531

}
e, wfn = energy('scf', return_wfn=True)
gdma(wfn)
dmavals = variable('DMA DISTRIBUTED MULTIPOLES')
charges = np.array(dmavals)
print(charges)
np.save('SSI-059ARG-067GLN-2-dimer.npy', np.array(charges))--------------------------------------------------------------------------

*** tstart() called on ds3
*** at Mon Apr 27 22:05:26 2020

   => Loading Basis Set <=

    Name: CC-PVDZ
    Role: ORBITAL
    Keyword: BASIS
    atoms 1-2, 14-15  entry C          line   138 file /theoryfs2/ds/metcalf/miniconda2/envs/tf2gpu/share/psi4/basis/cc-pvdz.gbs
    atoms 3-5, 17     entry N          line   168 file /theoryfs2/ds/metcalf/miniconda2/envs/tf2gpu/share/psi4/basis/cc-pvdz.gbs
    atoms 6-13, 18-22 entry H          line    22 file /theoryfs2/ds/metcalf/miniconda2/envs/tf2gpu/share/psi4/basis/cc-pvdz.gbs
    atoms 16          entry O          line   198 file /theoryfs2/ds/metcalf/miniconda2/envs/tf2gpu/share/psi4/basis/cc-pvdz.gbs

         ---------------------------------------------------------
                                   SCF
               by Justin Turney, Rob Parrish, Andy Simmonett
                          and Daniel G. A. Smith
                              RHF Reference
                        1 Threads,    500 MiB Core
         ---------------------------------------------------------

  ==> Geometry <==

    Molecular point group: c1
    Full point group: C1

    Geometry (in Angstrom), charge = 1, multiplicity = 1:

       Center              X                  Y                   Z               Mass
    ------------   -----------------  -----------------  -----------------  -----------------
         C            2.181602728669    -1.964829897649     0.075787853319    12.000000000000
         C            0.070602728669    -1.605829897649     1.325787853319    12.000000000000
         N           -0.941397271331    -0.808829897649     1.604787853319    14.003074004430
         N            1.005602728669    -1.193829897649     0.480787853319    14.003074004430
         N            0.131602728669    -2.799829897649     1.884787853319    14.003074004430
         H           -1.011397271331     0.071170102351     1.107787853319     1.007825032230
         H           -1.647397271331    -1.079829897649     2.271787853319     1.007825032230
         H            0.863602728669    -0.281829897649     0.057787853319     1.007825032230
         H            0.921602728669    -3.395829897649     1.706787853319     1.007825032230
         H           -0.568397271331    -3.089829897649     2.548787853319     1.007825032230
         H            2.332602728669    -2.840829897649     0.707787853319     1.007825032230
         H            3.074602728669    -1.345829897649     0.181787853319     1.007825032230
         H            2.088542728669    -2.298539897649    -0.968232146681     1.007825032230
         C           -0.935397271331     2.228170102351    -2.769212146681    12.000000000000
         C           -0.606397271331     2.051170102351    -1.302212146681    12.000000000000
         O           -0.653397271331     0.946170102351    -0.764212146681    15.994914619570
         N           -0.258397271331     3.137170102351    -0.632212146681    14.003074004430
         H           -0.160397271331     2.839170102351    -3.229212146681     1.007825032230
         H           -1.881397271331     2.761170102351    -2.833212146681     1.007825032230
         H           -0.061397271331     3.039170102351     0.351787853319     1.007825032230
         H           -0.154397271331     4.041170102351    -1.073212146681     1.007825032230
         H           -1.015390271331     1.264660102351    -3.293848146681     1.007825032230

  Running in c1 symmetry.

  Rotational constants: A =      0.09244  B =      0.01987  C =      0.01808 [cm^-1]
  Rotational constants: A =   2771.23944  B =    595.61506  C =    542.16795 [MHz]
  Nuclear repulsion =  464.626682071719813

  Charge       = 1
  Multiplicity = 1
  Electrons    = 72
  Nalpha       = 36
  Nbeta        = 36

  ==> Algorithm <==

  SCF Algorithm Type is PK.
  DIIS enabled.
  MOM disabled.
  Fractional occupation disabled.
  Guess Type is SAD.
  Energy threshold   = 1.00e-06
  Density threshold  = 1.00e-10
  Integral threshold = 0.00e+00

  ==> Primary Basis <==

  Basis Set: CC-PVDZ
    Blend: CC-PVDZ
    Number of shells: 93
    Number of basis function: 191
    Number of Cartesian functions: 200
    Spherical Harmonics?: true
    Max angular momentum: 2

  ==> Pre-Iterations <==

   -------------------------------------------------------
    Irrep   Nso     Nmo     Nalpha   Nbeta   Ndocc  Nsocc
   -------------------------------------------------------
     A        191     191       0       0       0       0
   -------------------------------------------------------
    Total     191     191      36      36      36       0
   -------------------------------------------------------

  ==> Integral Setup <==

  Using integral reordering PK algorithm.
  Sizing the integral batches needed.
  Building batch lookup table.
   Calculation information:
      Number of atoms:                  22
      Number of AO shells:              93
      Number of primitives:            263
      Number of atomic orbitals:       200
      Number of basis functions:       191

      Integral cutoff                 1.00e-12
      Number of threads:                 1

	Batch   1 pq = [       0,    9405] index = [             0,44231715] size =     44231715
	Batch   2 pq = [    9405,   13301] index = [      44231715,88464951] size =     44233236
	Batch   3 pq = [   13301,   16290] index = [      88464951,132690195] size =     44225244
	Batch   4 pq = [   16290,   18336] index = [     132690195,168113616] size =     35423421
  Task number: 16
  Buffer size: 11059200
  Buffer per thread: 2
  We computed 7507089 shell quartets total.
  Whereas there are 9555006 unique shell quartets.

  ==> DiskJK: Disk-Based J/K Matrices <==

    J tasked:                  Yes
    K tasked:                  Yes
    wK tasked:                  No
    Memory [MiB]:              375
    Schwarz Cutoff:          1E-12

    OpenMP threads:              1

  Minimum eigenvalue in the overlap matrix is 3.9014281358E-03.
  Using Symmetric Orthogonalization.

  SCF Guess: Superposition of Atomic Densities via on-the-fly atomic UHF.

  ==> Iterations <==

                        Total Energy        Delta E     RMS |[F,P]|

   @RHF iter SAD:  -450.77442798733290   -4.50774e+02   0.00000e+00
   @RHF iter   1:  -451.36386645140919   -5.89438e-01   3.58514e-03 DIIS
   @RHF iter   2:  -451.56604242856969   -2.02176e-01   1.70722e-03 DIIS
   @RHF iter   3:  -451.60712768861322   -4.10853e-02   4.23238e-04 DIIS
   @RHF iter   4:  -451.61077608496987   -3.64840e-03   1.59102e-04 DIIS
   @RHF iter   5:  -451.61127556150410   -4.99477e-04   2.67792e-05 DIIS
   @RHF iter   6:  -451.61130407656577   -2.85151e-05   1.08466e-05 DIIS
   @RHF iter   7:  -451.61130765020800   -3.57364e-06   3.15961e-06 DIIS
   @RHF iter   8:  -451.61130819038732   -5.40179e-07   9.87020e-07 DIIS
   @RHF iter   9:  -451.61130824040015   -5.00128e-08   3.44539e-07 DIIS
   @RHF iter  10:  -451.61130824656362   -6.16348e-09   1.35772e-07 DIIS
   @RHF iter  11:  -451.61130824738666   -8.23036e-10   2.90582e-08 DIIS
   @RHF iter  12:  -451.61130824742014   -3.34808e-11   8.21497e-09 DIIS
   @RHF iter  13:  -451.61130824742708   -6.93490e-12   2.50447e-09 DIIS
   @RHF iter  14:  -451.61130824742327    3.80851e-12   6.89152e-10 DIIS
   @RHF iter  15:  -451.61130824742179    1.47793e-12   2.13633e-10 DIIS
   @RHF iter  16:  -451.61130824742247   -6.82121e-13   9.40870e-11 DIIS
  Energy and wave function converged.

  ==> Post-Iterations <==

    Orbital Energies [Eh]
    ---------------------

    Doubly Occupied:

       1A    -20.647783     2A    -15.760476     3A    -15.748589
       4A    -15.746313     5A    -15.713412     6A    -11.556011
       7A    -11.482815     8A    -11.419506     9A    -11.350112
      10A     -1.514007    11A     -1.509486    12A     -1.369167
      13A     -1.358296    14A     -1.344789    15A     -1.115307
      16A     -1.114500    17A     -1.007020    18A     -0.945863
      19A     -0.926176    20A     -0.909044    21A     -0.848854
      22A     -0.834051    23A     -0.826011    24A     -0.792106
      25A     -0.785601    26A     -0.763486    27A     -0.734741
      28A     -0.718715    29A     -0.705367    30A     -0.696051
      31A     -0.668622    32A     -0.644503    33A     -0.586322
      34A     -0.552467    35A     -0.549953    36A     -0.541534

    Virtual:

      37A      0.022328    38A      0.051802    39A      0.053580
      40A      0.061892    41A      0.068115    42A      0.090422
      43A      0.098350    44A      0.105170    45A      0.126272
      46A      0.137099    47A      0.150336    48A      0.158541
      49A      0.168985    50A      0.174754    51A      0.191925
      52A      0.236014    53A      0.272822    54A      0.300451
      55A      0.358335    56A      0.369329    57A      0.391002
      58A      0.428761    59A      0.450764    60A      0.459037
      61A      0.523224    62A      0.531639    63A      0.540733
      64A      0.548627    65A      0.561211    66A      0.577965
      67A      0.584833    68A      0.592946    69A      0.596064
      70A      0.612543    71A      0.627746    72A      0.629633
      73A      0.678592    74A      0.705140    75A      0.719191
      76A      0.724180    77A      0.735012    78A      0.754587
      79A      0.765439    80A      0.776728    81A      0.789625
      82A      0.802925    83A      0.813779    84A      0.838157
      85A      0.843461    86A      0.854103    87A      0.885516
      88A      0.895201    89A      0.912206    90A      0.930147
      91A      0.951549    92A      0.959167    93A      0.982165
      94A      1.002226    95A      1.033206    96A      1.085609
      97A      1.133365    98A      1.144782    99A      1.168588
     100A      1.177971   101A      1.211631   102A      1.215270
     103A      1.226593   104A      1.239907   105A      1.258012
     106A      1.275462   107A      1.306763   108A      1.332662
     109A      1.343169   110A      1.374557   111A      1.420174
     112A      1.423924   113A      1.486180   114A      1.522468
     115A      1.539389   116A      1.549515   117A      1.553425
     118A      1.573301   119A      1.575728   120A      1.599413
     121A      1.650921   122A      1.685185   123A      1.693601
     124A      1.727253   125A      1.735834   126A      1.752972
     127A      1.761695   128A      1.769697   129A      1.775778
     130A      1.781457   131A      1.798703   132A      1.816397
     133A      1.820769   134A      1.834744   135A      1.845826
     136A      1.854847   137A      1.871261   138A      1.918319
     139A      1.920105   140A      1.926969   141A      1.970639
     142A      2.023016   143A      2.029616   144A      2.042042
     145A      2.066567   146A      2.104133   147A      2.140628
     148A      2.149424   149A      2.179750   150A      2.200225
     151A      2.273866   152A      2.292733   153A      2.308964
     154A      2.333187   155A      2.338715   156A      2.369209
     157A      2.377552   158A      2.379817   159A      2.446288
     160A      2.447480   161A      2.463918   162A      2.467653
     163A      2.484625   164A      2.490765   165A      2.580819
     166A      2.591404   167A      2.602431   168A      2.610887
     169A      2.641721   170A      2.661865   171A      2.686665
     172A      2.762394   173A      2.769133   174A      2.776584
     175A      2.810612   176A      2.853756   177A      2.872000
     178A      2.882174   179A      2.944607   180A      2.952517
     181A      2.998307   182A      3.099610   183A      3.135611
     184A      3.143180   185A      3.170616   186A      3.365501
     187A      3.410443   188A      3.614745   189A      3.680516
     190A      3.727712   191A      3.838459

    Final Occupation by Irrep:
              A
    DOCC [    36 ]

  @RHF Final Energy:  -451.61130824742247

   => Energetics <=

    Nuclear Repulsion Energy =            464.6266820717198129
    One-Electron Energy =               -1524.9018679905693716
    Two-Electron Energy =                 608.6638776714270307
    Total Energy =                       -451.6113082474224711

Computation Completed

Properties will be evaluated at   0.000000,   0.000000,   0.000000 [a0]

Properties computed using the SCF density matrix

  Nuclear Dipole Moment: [e a0]
     X:     2.6039      Y:    -0.2869      Z:    -2.3227

  Electronic Dipole Moment: [e a0]
     X:    -2.1854      Y:    -0.3519      Z:     3.6527

  Dipole Moment: [e a0]
     X:     0.4186      Y:    -0.6387      Z:     1.3300     Total:     1.5336

  Dipole Moment: [D]
     X:     1.0639      Y:    -1.6235      Z:     3.3804     Total:     3.8981

*** tstop() called on ds3 at Mon Apr 27 22:06:44 2020
Module time:
	user time   =      52.96 seconds =       0.88 minutes
	system time =      27.70 seconds =       0.46 minutes
	total time  =         78 seconds =       1.30 minutes
Total time:
	user time   =      52.96 seconds =       0.88 minutes
	system time =      27.70 seconds =       0.46 minutes
	total time  =         78 seconds =       1.30 minutes
                                     G D M A

                                 by Anthony Stone

                           version 2.2.06, 22 June 2011

               Distributed Multipoles from Gaussian wavefunctions

Starting at 22:6:45 on 27 Apr 2020

Using SCF density matrix from file ./SSI/SSI-059ARG-067GLN-2-dimer.test.31026.fchk

                         Distributed Multipole Analysis

Standard DMA

Positions and radii in angstrom
Multipole moments in atomic units, ea_0^k for rank k

C          x =  2.181603  y = -1.964830  z =  0.075788 angstrom
           Maximum rank =  0   Radius =  0.650 angstrom
                   Q00  =  -0.113733

C          x =  0.070603  y = -1.605830  z =  1.325788 angstrom
           Maximum rank =  0   Radius =  0.650 angstrom
                   Q00  =   1.077120

N          x = -0.941397  y = -0.808830  z =  1.604788 angstrom
           Maximum rank =  0   Radius =  0.650 angstrom
                   Q00  =  -0.594365

N          x =  1.005603  y = -1.193830  z =  0.480788 angstrom
           Maximum rank =  0   Radius =  0.650 angstrom
                   Q00  =  -0.503407

N          x =  0.131603  y = -2.799830  z =  1.884788 angstrom
           Maximum rank =  0   Radius =  0.650 angstrom
                   Q00  =  -0.588461

H          x = -1.011397  y =  0.071170  z =  1.107788 angstrom
           Maximum rank =  0   Radius =  0.325 angstrom
                   Q00  =   0.284116

H          x = -1.647397  y = -1.079830  z =  2.271788 angstrom
           Maximum rank =  0   Radius =  0.325 angstrom
                   Q00  =   0.252860

H          x =  0.863603  y = -0.281830  z =  0.057788 angstrom
           Maximum rank =  0   Radius =  0.325 angstrom
                   Q00  =   0.260672

H          x =  0.921603  y = -3.395830  z =  1.706788 angstrom
           Maximum rank =  0   Radius =  0.325 angstrom
                   Q00  =   0.259154

H          x = -0.568397  y = -3.089830  z =  2.548788 angstrom
           Maximum rank =  0   Radius =  0.325 angstrom
                   Q00  =   0.260015

H          x =  2.332603  y = -2.840830  z =  0.707788 angstrom
           Maximum rank =  0   Radius =  0.325 angstrom
                   Q00  =   0.101501

H          x =  3.074603  y = -1.345830  z =  0.181788 angstrom
           Maximum rank =  0   Radius =  0.325 angstrom
                   Q00  =   0.138753

H          x =  2.088543  y = -2.298540  z = -0.968232 angstrom
           Maximum rank =  0   Radius =  0.325 angstrom
                   Q00  =   0.132283

C          x = -0.935397  y =  2.228170  z = -2.769212 angstrom
           Maximum rank =  0   Radius =  0.650 angstrom
                   Q00  =  -0.253709

C          x = -0.606397  y =  2.051170  z = -1.302212 angstrom
           Maximum rank =  0   Radius =  0.650 angstrom
                   Q00  =   0.826547

O          x = -0.653397  y =  0.946170  z = -0.764212 angstrom
           Maximum rank =  0   Radius =  0.650 angstrom
                   Q00  =  -0.852583

N          x = -0.258397  y =  3.137170  z = -0.632212 angstrom
           Maximum rank =  0   Radius =  0.650 angstrom
                   Q00  =  -0.536787

H          x = -0.160397  y =  2.839170  z = -3.229212 angstrom
           Maximum rank =  0   Radius =  0.325 angstrom
                   Q00  =   0.113511

H          x = -1.881397  y =  2.761170  z = -2.833212 angstrom
           Maximum rank =  0   Radius =  0.325 angstrom
                   Q00  =   0.138276

H          x = -0.061397  y =  3.039170  z =  0.351788 angstrom
           Maximum rank =  0   Radius =  0.325 angstrom
                   Q00  =   0.219821

H          x = -0.154397  y =  4.041170  z = -1.073212 angstrom
           Maximum rank =  0   Radius =  0.325 angstrom
                   Q00  =   0.239746

H          x = -1.015390  y =  1.264660  z = -3.293848 angstrom
           Maximum rank =  0   Radius =  0.325 angstrom
                   Q00  =   0.138672

Total multipoles referred to origin at
           x =   0.000000,  y =    0.000000,  z =    0.000000 angstrom
                   Q00  =   1.000000

Finished at 22:6:45 on 27 Apr 2020

  DMA results are available in the Python driver through the
	  variable('DMA DISTRIBUTED MULTIPOLES')
  and
	  variable('DMA TOTAL MULTIPOLES')
  commands.

    Psi4 stopped on: Monday, 27 April 2020 10:06PM
    Psi4 wall time for execution: 0:01:18.26

*** Psi4 exiting successfully. Buy a developer a beer!
