                               Psi4 1.3.2 release

  ==> Input File <==

--------------------------------------------------------------------------
import numpy as np
set {scf_type pk
basis cc-pvdz
d_convergence 10
gdma_switch   0
gdma_limit    0
gdma_origin   [ 0.0,  0.0,  0.0 ]
}
molecule test {
    units Angstrom
    0 1
    --
    0 1
    C                1.291834684489910     2.911317764704569     0.996055653951980
    C                0.509834684489910     0.516317764704569     0.929055653951980
    C                1.447834684489910     1.455317764704569     1.350055653951980
    C                0.648834684489910    -0.824682235295431     1.268055653951980
    C                2.535834684489910     1.029317764704569     2.103055653951980
    C                1.743834684489910    -1.238682235295431     2.029055653951980
    C                2.684834684489910    -0.311682235295431     2.446055653951980
    O                1.891834684489910    -2.552682235295431     2.373055653951980
    H               -0.340165315510090     0.831317764704569     0.338055653951980
    H               -0.064165315510090    -1.546682235295431     0.898055653951980
    H                0.424834684489910     3.031317764704569     0.345055653951980
    H                2.172834684489910     3.222317764704568     0.433055653951980
    H                3.276834684489910     1.746317764704569     2.432055653951980
    H                3.529834684489910    -0.636682235295431     3.036055653951980
    H                1.205834684489910    -3.112682235295431     1.977055653951980
    H                1.175004684489910     3.563567764704569     1.874075653951980
    C               -0.592165315510090     1.805317764704569    -2.828944346048020
    C               -2.442165315510090     0.838317764704569    -1.438944346048020
    C               -1.388165315510090     0.640317764704569    -2.324944346048020
    C               -3.165165315510090    -0.246682235295431    -0.941944346048020
    C               -2.832165315510090    -1.541682235295431    -1.334944346048020
    C               -1.055165315510090    -0.655682235295431    -2.710944346048020
    C               -1.778165315510090    -1.747682235295431    -2.218944346048020
    H               -2.707165315510090     1.841317764704569    -1.138944346048020
    H               -3.991165315510091    -0.081682235295431    -0.264944346048020
    H                0.373834684489910     1.448317764704569    -3.183944346048020
    H               -0.386165315510090     2.471317764704569    -1.989944346048020
    H               -3.395165315510090    -2.383682235295431    -0.960944346048020
    H               -0.242165315510090    -0.825682235295431    -3.402944346048020
    H               -1.521165315510090    -2.749682235295431    -2.535944346048020
    H               -1.075415315510090     2.385507764704569    -3.628853346048020

}
e, wfn = energy('scf', return_wfn=True)
gdma(wfn)
dmavals = variable('DMA DISTRIBUTED MULTIPOLES')
charges = np.array(dmavals)
print(charges)
np.save('SSI-078TYR-082PHE-1-dimer.npy', np.array(charges))--------------------------------------------------------------------------

*** tstart() called on ds3
*** at Mon Apr 27 23:53:48 2020

   => Loading Basis Set <=

    Name: CC-PVDZ
    Role: ORBITAL
    Keyword: BASIS
    atoms 1-7, 17-23  entry C          line   138 file /theoryfs2/ds/metcalf/miniconda2/envs/tf2gpu/share/psi4/basis/cc-pvdz.gbs
    atoms 8           entry O          line   198 file /theoryfs2/ds/metcalf/miniconda2/envs/tf2gpu/share/psi4/basis/cc-pvdz.gbs
    atoms 9-16, 24-31 entry H          line    22 file /theoryfs2/ds/metcalf/miniconda2/envs/tf2gpu/share/psi4/basis/cc-pvdz.gbs

         ---------------------------------------------------------
                                   SCF
               by Justin Turney, Rob Parrish, Andy Simmonett
                          and Daniel G. A. Smith
                              RHF Reference
                        1 Threads,    500 MiB Core
         ---------------------------------------------------------

  ==> Geometry <==

    Molecular point group: c1
    Full point group: C1

    Geometry (in Angstrom), charge = 0, multiplicity = 1:

       Center              X                  Y                   Z               Mass
    ------------   -----------------  -----------------  -----------------  -----------------
         C            1.291834684490     2.911317764705     0.996055653952    12.000000000000
         C            0.509834684490     0.516317764705     0.929055653952    12.000000000000
         C            1.447834684490     1.455317764705     1.350055653952    12.000000000000
         C            0.648834684490    -0.824682235295     1.268055653952    12.000000000000
         C            2.535834684490     1.029317764705     2.103055653952    12.000000000000
         C            1.743834684490    -1.238682235295     2.029055653952    12.000000000000
         C            2.684834684490    -0.311682235295     2.446055653952    12.000000000000
         O            1.891834684490    -2.552682235295     2.373055653952    15.994914619570
         H           -0.340165315510     0.831317764705     0.338055653952     1.007825032230
         H           -0.064165315510    -1.546682235295     0.898055653952     1.007825032230
         H            0.424834684490     3.031317764705     0.345055653952     1.007825032230
         H            2.172834684490     3.222317764705     0.433055653952     1.007825032230
         H            3.276834684490     1.746317764705     2.432055653952     1.007825032230
         H            3.529834684490    -0.636682235295     3.036055653952     1.007825032230
         H            1.205834684490    -3.112682235295     1.977055653952     1.007825032230
         H            1.175004684490     3.563567764705     1.874075653952     1.007825032230
         C           -0.592165315510     1.805317764705    -2.828944346048    12.000000000000
         C           -2.442165315510     0.838317764705    -1.438944346048    12.000000000000
         C           -1.388165315510     0.640317764705    -2.324944346048    12.000000000000
         C           -3.165165315510    -0.246682235295    -0.941944346048    12.000000000000
         C           -2.832165315510    -1.541682235295    -1.334944346048    12.000000000000
         C           -1.055165315510    -0.655682235295    -2.710944346048    12.000000000000
         C           -1.778165315510    -1.747682235295    -2.218944346048    12.000000000000
         H           -2.707165315510     1.841317764705    -1.138944346048     1.007825032230
         H           -3.991165315510    -0.081682235295    -0.264944346048     1.007825032230
         H            0.373834684490     1.448317764705    -3.183944346048     1.007825032230
         H           -0.386165315510     2.471317764705    -1.989944346048     1.007825032230
         H           -3.395165315510    -2.383682235295    -0.960944346048     1.007825032230
         H           -0.242165315510    -0.825682235295    -3.402944346048     1.007825032230
         H           -1.521165315510    -2.749682235295    -2.535944346048     1.007825032230
         H           -1.075415315510     2.385507764705    -3.628853346048     1.007825032230

  Running in c1 symmetry.

  Rotational constants: A =      0.02721  B =      0.01130  C =      0.00901 [cm^-1]
  Rotational constants: A =    815.66981  B =    338.84520  C =    270.04976 [MHz]
  Nuclear repulsion =  895.659729608215457

  Charge       = 0
  Multiplicity = 1
  Electrons    = 108
  Nalpha       = 54
  Nbeta        = 54

  ==> Algorithm <==

  SCF Algorithm Type is PK.
  DIIS enabled.
  MOM disabled.
  Fractional occupation disabled.
  Guess Type is SAD.
  Energy threshold   = 1.00e-06
  Density threshold  = 1.00e-10
  Integral threshold = 0.00e+00

  ==> Primary Basis <==

  Basis Set: CC-PVDZ
    Blend: CC-PVDZ
    Number of shells: 138
    Number of basis function: 290
    Number of Cartesian functions: 305
    Spherical Harmonics?: true
    Max angular momentum: 2

  ==> Pre-Iterations <==

   -------------------------------------------------------
    Irrep   Nso     Nmo     Nalpha   Nbeta   Ndocc  Nsocc
   -------------------------------------------------------
     A        290     290       0       0       0       0
   -------------------------------------------------------
    Total     290     290      54      54      54       0
   -------------------------------------------------------

  ==> Integral Setup <==

  Using integral reordering PK algorithm.
  Sizing the integral batches needed.
  Building batch lookup table.
   Calculation information:
      Number of atoms:                  31
      Number of AO shells:             138
      Number of primitives:            410
      Number of atomic orbitals:       305
      Number of basis functions:       290

      Integral cutoff                 1.00e-12
      Number of threads:                 1

	Batch   1 pq = [       0,    9405] index = [             0,44231715] size =     44231715
	Batch   2 pq = [    9405,   13301] index = [      44231715,88464951] size =     44233236
	Batch   3 pq = [   13301,   16290] index = [      88464951,132690195] size =     44225244
	Batch   4 pq = [   16290,   18810] index = [     132690195,176917455] size =     44227260
	Batch   5 pq = [   18810,   21030] index = [     176917455,221140965] size =     44223510
	Batch   6 pq = [   21030,   23037] index = [     221140965,265363203] size =     44222238
	Batch   7 pq = [   23037,   24883] index = [     265363203,309594286] size =     44231083
	Batch   8 pq = [   24883,   26601] index = [     309594286,353819901] size =     44225615
	Batch   9 pq = [   26601,   28214] index = [     353819901,398029005] size =     44209104
	Batch  10 pq = [   28214,   29740] index = [     398029005,442248670] size =     44219665
	Batch  11 pq = [   29740,   31191] index = [     442248670,486454836] size =     44206166
	Batch  12 pq = [   31191,   32578] index = [     486454836,530679331] size =     44224495
	Batch  13 pq = [   32578,   33908] index = [     530679331,574893186] size =     44213855
	Batch  14 pq = [   33908,   35188] index = [     574893186,619115266] size =     44222080
	Batch  15 pq = [   35188,   36423] index = [     619115266,663335676] size =     44220410
	Batch  16 pq = [   36423,   37617] index = [     663335676,707538153] size =     44202477
	Batch  17 pq = [   37617,   38775] index = [     707538153,751769700] size =     44231547
	Batch  18 pq = [   38775,   39899] index = [     751769700,795985050] size =     44215350
	Batch  19 pq = [   39899,   40992] index = [     795985050,840192528] size =     44207478
	Batch  20 pq = [   40992,   42057] index = [     840192528,884416653] size =     44224125
	Batch  21 pq = [   42057,   42195] index = [     884416653,890230110] size =      5813457
  Task number: 81
  Buffer size: 11059200
  Buffer per thread: 2
  We computed 46957465 shell quartets total.
  Whereas there are 45998436 unique shell quartets.
     2.08 percent of shell quartets recomputed by reordering.

  ==> DiskJK: Disk-Based J/K Matrices <==

    J tasked:                  Yes
    K tasked:                  Yes
    wK tasked:                  No
    Memory [MiB]:              375
    Schwarz Cutoff:          1E-12

    OpenMP threads:              1

  Minimum eigenvalue in the overlap matrix is 2.9896245720E-04.
  Using Symmetric Orthogonalization.

  SCF Guess: Superposition of Atomic Densities via on-the-fly atomic UHF.

  ==> Iterations <==

                        Total Energy        Delta E     RMS |[F,P]|

   @RHF iter SAD:  -613.22267185367286   -6.13223e+02   0.00000e+00
   @RHF iter   1:  -614.06216168714559   -8.39490e-01   2.37390e-03 DIIS
   @RHF iter   2:  -614.33788963039888   -2.75728e-01   9.83536e-04 DIIS
   @RHF iter   3:  -614.37936720653420   -4.14776e-02   2.33940e-04 DIIS
   @RHF iter   4:  -614.38293202093416   -3.56481e-03   9.19846e-05 DIIS
   @RHF iter   5:  -614.38334742233280   -4.15401e-04   1.77960e-05 DIIS
   @RHF iter   6:  -614.38336941544094   -2.19931e-05   5.69526e-06 DIIS
   @RHF iter   7:  -614.38337185818216   -2.44274e-06   1.73735e-06 DIIS
   @RHF iter   8:  -614.38337217992853   -3.21746e-07   6.31720e-07 DIIS
   @RHF iter   9:  -614.38337223120357   -5.12750e-08   2.83324e-07 DIIS
   @RHF iter  10:  -614.38337224222767   -1.10241e-08   1.14726e-07 DIIS
   @RHF iter  11:  -614.38337224554846   -3.32079e-09   5.08502e-08 DIIS
   @RHF iter  12:  -614.38337224618772   -6.39261e-10   2.47671e-08 DIIS
   @RHF iter  13:  -614.38337224629322   -1.05501e-10   6.68467e-09 DIIS
   @RHF iter  14:  -614.38337224629663   -3.41061e-12   2.08185e-09 DIIS
   @RHF iter  15:  -614.38337224629845   -1.81899e-12   7.23427e-10 DIIS
   @RHF iter  16:  -614.38337224630163   -3.18323e-12   3.31012e-10 DIIS
   @RHF iter  17:  -614.38337224630254   -9.09495e-13   1.64892e-10 DIIS
   @RHF iter  18:  -614.38337224630322   -6.82121e-13   7.20369e-11 DIIS
  Energy and wave function converged.

  ==> Post-Iterations <==

    Orbital Energies [Eh]
    ---------------------

    Doubly Occupied:

       1A    -20.577685     2A    -11.292374     3A    -11.245211
       4A    -11.242700     5A    -11.242444     6A    -11.237957
       7A    -11.236486     8A    -11.236194     9A    -11.232054
      10A    -11.231398    11A    -11.228905    12A    -11.225975
      13A    -11.225025    14A    -11.224646    15A    -11.223742
      16A     -1.390731    17A     -1.158626    18A     -1.145348
      19A     -1.051061    20A     -1.032470    21A     -1.016573
      22A     -1.011016    23A     -0.936194    24A     -0.921473
      25A     -0.837197    26A     -0.831527    27A     -0.800586
      28A     -0.795596    29A     -0.724120    30A     -0.696701
      31A     -0.661510    32A     -0.637046    33A     -0.636516
      34A     -0.634655    35A     -0.599771    36A     -0.588024
      37A     -0.585601    38A     -0.580321    39A     -0.576165
      40A     -0.569259    41A     -0.566774    42A     -0.562598
      43A     -0.538055    44A     -0.521939    45A     -0.493149
      46A     -0.490778    47A     -0.490228    48A     -0.487634
      49A     -0.477819    50A     -0.461475    51A     -0.338354
      52A     -0.332098    53A     -0.327191    54A     -0.296095

    Virtual:

      55A      0.126488    56A      0.132957    57A      0.139110
      58A      0.163260    59A      0.171034    60A      0.181835
      61A      0.194432    62A      0.207610    63A      0.212001
      64A      0.225650    65A      0.238283    66A      0.241940
      67A      0.255246    68A      0.257213    69A      0.269672
      70A      0.272215    71A      0.275438    72A      0.289765
      73A      0.316884    74A      0.352538    75A      0.369101
      76A      0.372847    77A      0.376683    78A      0.384249
      79A      0.433307    80A      0.445390    81A      0.456472
      82A      0.461525    83A      0.473632    84A      0.480071
      85A      0.491056    86A      0.509494    87A      0.523232
      88A      0.561985    89A      0.589437    90A      0.610315
      91A      0.621392    92A      0.651884    93A      0.657534
      94A      0.671363    95A      0.672562    96A      0.688140
      97A      0.692418    98A      0.697300    99A      0.705027
     100A      0.712328   101A      0.717998   102A      0.727734
     103A      0.733107   104A      0.736010   105A      0.740992
     106A      0.745516   107A      0.759889   108A      0.763476
     109A      0.766769   110A      0.778397   111A      0.782542
     112A      0.792268   113A      0.797932   114A      0.805334
     115A      0.815836   116A      0.828029   117A      0.846432
     118A      0.850382   119A      0.859159   120A      0.861325
     121A      0.863573   122A      0.873515   123A      0.883938
     124A      0.889439   125A      0.895038   126A      0.898153
     127A      0.900583   128A      0.911896   129A      0.918802
     130A      0.925554   131A      0.934309   132A      0.942393
     133A      0.962486   134A      0.973545   135A      0.986596
     136A      0.992682   137A      1.005229   138A      1.027679
     139A      1.040569   140A      1.042923   141A      1.066901
     142A      1.101867   143A      1.115413   144A      1.129019
     145A      1.143142   146A      1.143489   147A      1.153114
     148A      1.156223   149A      1.181144   150A      1.195858
     151A      1.212214   152A      1.214642   153A      1.228129
     154A      1.238425   155A      1.246448   156A      1.249619
     157A      1.256359   158A      1.264803   159A      1.285876
     160A      1.290405   161A      1.299146   162A      1.302218
     163A      1.316928   164A      1.317969   165A      1.320648
     166A      1.331327   167A      1.365850   168A      1.367578
     169A      1.389255   170A      1.397983   171A      1.428454
     172A      1.485123   173A      1.501106   174A      1.513905
     175A      1.527022   176A      1.551089   177A      1.554672
     178A      1.571728   179A      1.599819   180A      1.621491
     181A      1.625268   182A      1.679993   183A      1.689342
     184A      1.696999   185A      1.701352   186A      1.726801
     187A      1.740224   188A      1.742826   189A      1.750705
     190A      1.758532   191A      1.779592   192A      1.803519
     193A      1.811542   194A      1.814526   195A      1.824412
     196A      1.854875   197A      1.872338   198A      1.881788
     199A      1.893240   200A      1.898580   201A      1.902899
     202A      1.913112   203A      1.914976   204A      1.925296
     205A      1.928075   206A      1.933375   207A      1.938456
     208A      1.944201   209A      1.949633   210A      1.954071
     211A      1.961323   212A      1.973902   213A      1.977789
     214A      1.982457   215A      1.995017   216A      2.012125
     217A      2.028223   218A      2.036713   219A      2.055986
     220A      2.063384   221A      2.072994   222A      2.074448
     223A      2.076944   224A      2.092473   225A      2.108585
     226A      2.133714   227A      2.143630   228A      2.150495
     229A      2.154866   230A      2.161497   231A      2.175369
     232A      2.181489   233A      2.197372   234A      2.199505
     235A      2.231469   236A      2.241754   237A      2.266100
     238A      2.269208   239A      2.283448   240A      2.290138
     241A      2.299720   242A      2.313995   243A      2.327748
     244A      2.333490   245A      2.367822   246A      2.393199
     247A      2.410441   248A      2.451850   249A      2.455383
     250A      2.478449   251A      2.499535   252A      2.503639
     253A      2.513687   254A      2.531743   255A      2.543154
     256A      2.548745   257A      2.618983   258A      2.626813
     259A      2.645494   260A      2.728870   261A      2.751716
     262A      2.759961   263A      2.771466   264A      2.780189
     265A      2.788616   266A      2.798939   267A      2.815590
     268A      2.839078   269A      2.853915   270A      2.862944
     271A      2.877316   272A      2.905721   273A      2.969862
     274A      2.980299   275A      2.997295   276A      3.015012
     277A      3.039098   278A      3.102919   279A      3.134050
     280A      3.153496   281A      3.194298   282A      3.251628
     283A      3.289984   284A      3.300888   285A      3.349354
     286A      3.580083   287A      3.679455   288A      3.960473
     289A      3.975208   290A      4.191382

    Final Occupation by Irrep:
              A
    DOCC [    54 ]

  @RHF Final Energy:  -614.38337224630322

   => Energetics <=

    Nuclear Repulsion Energy =            895.6597296082154571
    One-Electron Energy =               -2610.6760631018819367
    Two-Electron Energy =                1100.6329612473632551
    Total Energy =                       -614.3833722463032245

Computation Completed

Properties will be evaluated at   0.000000,   0.000000,   0.000000 [a0]

Properties computed using the SCF density matrix

  Nuclear Dipole Moment: [e a0]
     X:    -1.4569      Y:     8.6167      Z:    -5.4006

  Electronic Dipole Moment: [e a0]
     X:     0.9788      Y:    -8.5034      Z:     4.8817

  Dipole Moment: [e a0]
     X:    -0.4781      Y:     0.1132      Z:    -0.5189     Total:     0.7146

  Dipole Moment: [D]
     X:    -1.2152      Y:     0.2878      Z:    -1.3188     Total:     1.8162

*** tstop() called on ds3 at Tue Apr 28 00:10:38 2020
Module time:
	user time   =     404.44 seconds =       6.74 minutes
	system time =     152.04 seconds =       2.53 minutes
	total time  =       1010 seconds =      16.83 minutes
Total time:
	user time   =     404.44 seconds =       6.74 minutes
	system time =     152.04 seconds =       2.53 minutes
	total time  =       1010 seconds =      16.83 minutes
                                     G D M A

                                 by Anthony Stone

                           version 2.2.06, 22 June 2011

               Distributed Multipoles from Gaussian wavefunctions

Starting at 0:10:38 on 28 Apr 2020

Using SCF density matrix from file ./SSI/SSI-078TYR-082PHE-1-dimer.test.4436.fchk

                         Distributed Multipole Analysis

Standard DMA

Positions and radii in angstrom
Multipole moments in atomic units, ea_0^k for rank k

C          x =  1.291835  y =  2.911318  z =  0.996056 angstrom
           Maximum rank =  0   Radius =  0.650 angstrom
                   Q00  =  -0.196893

C          x =  0.509835  y =  0.516318  z =  0.929056 angstrom
           Maximum rank =  0   Radius =  0.650 angstrom
                   Q00  =  -0.010268

C          x =  1.447835  y =  1.455318  z =  1.350056 angstrom
           Maximum rank =  0   Radius =  0.650 angstrom
                   Q00  =  -0.144104

C          x =  0.648835  y = -0.824682  z =  1.268056 angstrom
           Maximum rank =  0   Radius =  0.650 angstrom
                   Q00  =  -0.194660

C          x =  2.535835  y =  1.029318  z =  2.103056 angstrom
           Maximum rank =  0   Radius =  0.650 angstrom
                   Q00  =   0.031733

C          x =  1.743835  y = -1.238682  z =  2.029056 angstrom
           Maximum rank =  0   Radius =  0.650 angstrom
                   Q00  =   0.319006

C          x =  2.684835  y = -0.311682  z =  2.446056 angstrom
           Maximum rank =  0   Radius =  0.650 angstrom
                   Q00  =  -0.112218

O          x =  1.891835  y = -2.552682  z =  2.373056 angstrom
           Maximum rank =  0   Radius =  0.650 angstrom
                   Q00  =  -0.679628

H          x = -0.340165  y =  0.831318  z =  0.338056 angstrom
           Maximum rank =  0   Radius =  0.325 angstrom
                   Q00  =   0.079890

H          x = -0.064165  y = -1.546682  z =  0.898056 angstrom
           Maximum rank =  0   Radius =  0.325 angstrom
                   Q00  =   0.075093

H          x =  0.424835  y =  3.031318  z =  0.345056 angstrom
           Maximum rank =  0   Radius =  0.325 angstrom
                   Q00  =   0.091680

H          x =  2.172835  y =  3.222318  z =  0.433056 angstrom
           Maximum rank =  0   Radius =  0.325 angstrom
                   Q00  =   0.096140

H          x =  3.276835  y =  1.746318  z =  2.432056 angstrom
           Maximum rank =  0   Radius =  0.325 angstrom
                   Q00  =   0.057466

H          x =  3.529835  y = -0.636682  z =  3.036056 angstrom
           Maximum rank =  0   Radius =  0.325 angstrom
                   Q00  =   0.077665

H          x =  1.205835  y = -3.112682  z =  1.977056 angstrom
           Maximum rank =  0   Radius =  0.325 angstrom
                   Q00  =   0.407844

H          x =  1.175005  y =  3.563568  z =  1.874076 angstrom
           Maximum rank =  0   Radius =  0.325 angstrom
                   Q00  =   0.099104

C          x = -0.592165  y =  1.805318  z = -2.828944 angstrom
           Maximum rank =  0   Radius =  0.650 angstrom
                   Q00  =  -0.197854

C          x = -2.442165  y =  0.838318  z = -1.438944 angstrom
           Maximum rank =  0   Radius =  0.650 angstrom
                   Q00  =  -0.030271

C          x = -1.388165  y =  0.640318  z = -2.324944 angstrom
           Maximum rank =  0   Radius =  0.650 angstrom
                   Q00  =  -0.095504

C          x = -3.165165  y = -0.246682  z = -0.941944 angstrom
           Maximum rank =  0   Radius =  0.650 angstrom
                   Q00  =  -0.077672

C          x = -2.832165  y = -1.541682  z = -1.334944 angstrom
           Maximum rank =  0   Radius =  0.650 angstrom
                   Q00  =  -0.092437

C          x = -1.055165  y = -0.655682  z = -2.710944 angstrom
           Maximum rank =  0   Radius =  0.650 angstrom
                   Q00  =  -0.052128

C          x = -1.778165  y = -1.747682  z = -2.218944 angstrom
           Maximum rank =  0   Radius =  0.650 angstrom
                   Q00  =  -0.072939

H          x = -2.707165  y =  1.841318  z = -1.138944 angstrom
           Maximum rank =  0   Radius =  0.325 angstrom
                   Q00  =   0.057132

H          x = -3.991165  y = -0.081682  z = -0.264944 angstrom
           Maximum rank =  0   Radius =  0.325 angstrom
                   Q00  =   0.068380

H          x =  0.373835  y =  1.448318  z = -3.183944 angstrom
           Maximum rank =  0   Radius =  0.325 angstrom
                   Q00  =   0.101093

H          x = -0.386165  y =  2.471318  z = -1.989944 angstrom
           Maximum rank =  0   Radius =  0.325 angstrom
                   Q00  =   0.096244

H          x = -3.395165  y = -2.383682  z = -0.960944 angstrom
           Maximum rank =  0   Radius =  0.325 angstrom
                   Q00  =   0.062310

H          x = -0.242165  y = -0.825682  z = -3.402944 angstrom
           Maximum rank =  0   Radius =  0.325 angstrom
                   Q00  =   0.063023

H          x = -1.521165  y = -2.749682  z = -2.535944 angstrom
           Maximum rank =  0   Radius =  0.325 angstrom
                   Q00  =   0.066553

H          x = -1.075415  y =  2.385508  z = -3.628853 angstrom
           Maximum rank =  0   Radius =  0.325 angstrom
                   Q00  =   0.106218

Total multipoles referred to origin at
           x =   0.000000,  y =    0.000000,  z =    0.000000 angstrom
                   Q00  =  -0.000000

Finished at 0:10:38 on 28 Apr 2020

  DMA results are available in the Python driver through the
	  variable('DMA DISTRIBUTED MULTIPOLES')
  and
	  variable('DMA TOTAL MULTIPOLES')
  commands.

    Psi4 stopped on: Tuesday, 28 April 2020 12:10AM
    Psi4 wall time for execution: 0:16:50.30

*** Psi4 exiting successfully. Buy a developer a beer!
