                               Psi4 1.3.2 release

  ==> Input File <==

--------------------------------------------------------------------------
import numpy as np
set {scf_type pk
basis cc-pvdz
d_convergence 10
gdma_switch   0
gdma_limit    0
gdma_origin   [ 0.0,  0.0,  0.0 ]
}
molecule test {
    units Angstrom
    0 1
    --
    0 1
    C                2.268992583292738     0.999344845311652     0.478804107486881
    C                3.381992583292738     1.701344845311652    -0.356195892513119
    H                2.204992583292739    -0.054655154688348     0.211804107486881
    H                2.513992583292739     1.068344845311652     1.539804107486881
    H                1.310992583292738     1.489344845311652     0.300804107486881
    H                4.315992583292738     1.170344845311652    -0.186195892513119
    H                3.150097583292739     1.724963845311652    -1.431214892513119
    H                3.521054983292739     2.739242845311653    -0.019403892513119
    C               -1.201007416707262    -0.580655154688348     0.176804107486881
    C               -2.200007416707261     0.577344845311652     0.034804107486881
    C               -1.805007416707262    -1.826655154688348     0.877804107486881
    C               -0.615007416707262    -0.952655154688348    -1.184195892513119
    H               -0.370007416707261    -0.239655154688348     0.790804107486881
    H               -3.113007416707261     0.177344845311652    -0.409195892513119
    H               -1.791007416707262     1.307344845311652    -0.665195892513119
    H               -2.592007416707261    -2.241655154688347     0.250804107486881
    H               -1.031007416707261    -2.579655154688348     1.016804107486881
    H               -2.212007416707261    -1.562655154688348     1.846804107486881
    H               -0.143007416707261    -0.080655154688348    -1.637195892513119
    H                0.129992583292738    -1.737655154688348    -1.064195892513119
    H               -1.410007416707262    -1.308655154688348    -1.841195892513119
    H               -2.460365416707261     1.103847845311652     0.964862107486881

}
e, wfn = energy('scf', return_wfn=True)
gdma(wfn)
dmavals = variable('DMA DISTRIBUTED MULTIPOLES')
charges = np.array(dmavals)
print(charges)
np.save('SSI-024LEU-031LEU-1-dimer.npy', np.array(charges))--------------------------------------------------------------------------

*** tstart() called on ds3
*** at Tue Apr 28 09:05:10 2020

   => Loading Basis Set <=

    Name: CC-PVDZ
    Role: ORBITAL
    Keyword: BASIS
    atoms 1-2, 9-12  entry C          line   138 file /theoryfs2/ds/metcalf/miniconda2/envs/tf2gpu/share/psi4/basis/cc-pvdz.gbs
    atoms 3-8, 13-22 entry H          line    22 file /theoryfs2/ds/metcalf/miniconda2/envs/tf2gpu/share/psi4/basis/cc-pvdz.gbs

         ---------------------------------------------------------
                                   SCF
               by Justin Turney, Rob Parrish, Andy Simmonett
                          and Daniel G. A. Smith
                              RHF Reference
                        1 Threads,    500 MiB Core
         ---------------------------------------------------------

  ==> Geometry <==

    Molecular point group: c1
    Full point group: C1

    Geometry (in Angstrom), charge = 0, multiplicity = 1:

       Center              X                  Y                   Z               Mass
    ------------   -----------------  -----------------  -----------------  -----------------
         C            2.268992583293     0.999344845312     0.478804107487    12.000000000000
         C            3.381992583293     1.701344845312    -0.356195892513    12.000000000000
         H            2.204992583293    -0.054655154688     0.211804107487     1.007825032230
         H            2.513992583293     1.068344845312     1.539804107487     1.007825032230
         H            1.310992583293     1.489344845312     0.300804107487     1.007825032230
         H            4.315992583293     1.170344845312    -0.186195892513     1.007825032230
         H            3.150097583293     1.724963845312    -1.431214892513     1.007825032230
         H            3.521054983293     2.739242845312    -0.019403892513     1.007825032230
         C           -1.201007416707    -0.580655154688     0.176804107487    12.000000000000
         C           -2.200007416707     0.577344845312     0.034804107487    12.000000000000
         C           -1.805007416707    -1.826655154688     0.877804107487    12.000000000000
         C           -0.615007416707    -0.952655154688    -1.184195892513    12.000000000000
         H           -0.370007416707    -0.239655154688     0.790804107487     1.007825032230
         H           -3.113007416707     0.177344845312    -0.409195892513     1.007825032230
         H           -1.791007416707     1.307344845312    -0.665195892513     1.007825032230
         H           -2.592007416707    -2.241655154688     0.250804107487     1.007825032230
         H           -1.031007416707    -2.579655154688     1.016804107487     1.007825032230
         H           -2.212007416707    -1.562655154688     1.846804107487     1.007825032230
         H           -0.143007416707    -0.080655154688    -1.637195892513     1.007825032230
         H            0.129992583293    -1.737655154688    -1.064195892513     1.007825032230
         H           -1.410007416707    -1.308655154688    -1.841195892513     1.007825032230
         H           -2.460365416707     1.103847845312     0.964862107487     1.007825032230

  Running in c1 symmetry.

  Rotational constants: A =      0.15490  B =      0.03133  C =      0.03061 [cm^-1]
  Rotational constants: A =   4643.91939  B =    939.13469  C =    917.78246 [MHz]
  Nuclear repulsion =  243.595421637172933

  Charge       = 0
  Multiplicity = 1
  Electrons    = 52
  Nalpha       = 26
  Nbeta        = 26

  ==> Algorithm <==

  SCF Algorithm Type is PK.
  DIIS enabled.
  MOM disabled.
  Fractional occupation disabled.
  Guess Type is SAD.
  Energy threshold   = 1.00e-06
  Density threshold  = 1.00e-10
  Integral threshold = 0.00e+00

  ==> Primary Basis <==

  Basis Set: CC-PVDZ
    Blend: CC-PVDZ
    Number of shells: 84
    Number of basis function: 164
    Number of Cartesian functions: 170
    Spherical Harmonics?: true
    Max angular momentum: 2

  ==> Pre-Iterations <==

   -------------------------------------------------------
    Irrep   Nso     Nmo     Nalpha   Nbeta   Ndocc  Nsocc
   -------------------------------------------------------
     A        164     164       0       0       0       0
   -------------------------------------------------------
    Total     164     164      26      26      26       0
   -------------------------------------------------------

  ==> Integral Setup <==

  Using integral reordering PK algorithm.
  Sizing the integral batches needed.
  Building batch lookup table.
   Calculation information:
      Number of atoms:                  22
      Number of AO shells:              84
      Number of primitives:            212
      Number of atomic orbitals:       170
      Number of basis functions:       164

      Integral cutoff                 1.00e-12
      Number of threads:                 1

	Batch   1 pq = [       0,    9405] index = [             0,44231715] size =     44231715
	Batch   2 pq = [    9405,   13530] index = [      44231715,91537215] size =     47305500
  Task number: 9
  Buffer size: 11059200
  Buffer per thread: 2
  We computed 5694196 shell quartets total.
  Whereas there are 6374235 unique shell quartets.

  ==> DiskJK: Disk-Based J/K Matrices <==

    J tasked:                  Yes
    K tasked:                  Yes
    wK tasked:                  No
    Memory [MiB]:              375
    Schwarz Cutoff:          1E-12

    OpenMP threads:              1

  Minimum eigenvalue in the overlap matrix is 4.6978612060E-03.
  Using Symmetric Orthogonalization.

  SCF Guess: Superposition of Atomic Densities via on-the-fly atomic UHF.

  ==> Iterations <==

                        Total Energy        Delta E     RMS |[F,P]|

   @RHF iter SAD:  -235.32705523646553   -2.35327e+02   0.00000e+00
   @RHF iter   1:  -236.31790426259309   -9.90849e-01   3.48012e-03 DIIS
   @RHF iter   2:  -236.50502039756921   -1.87116e-01   1.48589e-03 DIIS
   @RHF iter   3:  -236.53705790851637   -3.20375e-02   3.09914e-04 DIIS
   @RHF iter   4:  -236.53963574467394   -2.57784e-03   7.00812e-05 DIIS
   @RHF iter   5:  -236.53972265536794   -8.69107e-05   1.57236e-05 DIIS
   @RHF iter   6:  -236.53972835800639   -5.70264e-06   2.70480e-06 DIIS
   @RHF iter   7:  -236.53972855018378   -1.92177e-07   6.90546e-07 DIIS
   @RHF iter   8:  -236.53972856479839   -1.46146e-08   1.73224e-07 DIIS
   @RHF iter   9:  -236.53972856571724   -9.18845e-10   4.90973e-08 DIIS
   @RHF iter  10:  -236.53972856579912   -8.18829e-11   1.06455e-08 DIIS
   @RHF iter  11:  -236.53972856580407   -4.94538e-12   2.10002e-09 DIIS
   @RHF iter  12:  -236.53972856580413   -5.68434e-14   4.02644e-10 DIIS
   @RHF iter  13:  -236.53972856580359    5.40012e-13   9.44085e-11 DIIS
  Energy and wave function converged.

  ==> Post-Iterations <==

    Orbital Energies [Eh]
    ---------------------

    Doubly Occupied:

       1A    -11.223353     2A    -11.221842     3A    -11.220471
       4A    -11.214998     5A    -11.213696     6A    -11.213304
       7A     -1.076944     8A     -1.011699     9A     -0.927393
      10A     -0.924156    11A     -0.841018    12A     -0.763437
      13A     -0.629552    14A     -0.598350    15A     -0.592297
      16A     -0.590590    17A     -0.582371    18A     -0.534564
      19A     -0.533125    20A     -0.509514    21A     -0.497939
      22A     -0.489765    23A     -0.487177    24A     -0.461536
      25A     -0.455574    26A     -0.450440

    Virtual:

      27A      0.166384    28A      0.193752    29A      0.211129
      30A      0.220744    31A      0.231892    32A      0.240403
      33A      0.251229    34A      0.258404    35A      0.267719
      36A      0.273978    37A      0.286618    38A      0.298533
      39A      0.303506    40A      0.315956    41A      0.318997
      42A      0.335345    43A      0.361803    44A      0.405700
      45A      0.410323    46A      0.420848    47A      0.555410
      48A      0.569824    49A      0.593447    50A      0.596145
      51A      0.606279    52A      0.618500    53A      0.636259
      54A      0.651696    55A      0.685742    56A      0.744395
      57A      0.751331    58A      0.782924    59A      0.801788
      60A      0.832282    61A      0.851142    62A      0.861525
      63A      0.880502    64A      0.884663    65A      0.887158
      66A      0.891253    67A      0.898307    68A      0.905137
      69A      0.906461    70A      0.909063    71A      0.914023
      72A      0.923170    73A      0.925240    74A      0.952520
      75A      0.955729    76A      0.963985    77A      0.981918
      78A      1.001346    79A      1.007441    80A      1.014715
      81A      1.118959    82A      1.125719    83A      1.131603
      84A      1.149778    85A      1.181624    86A      1.248137
      87A      1.364220    88A      1.401613    89A      1.405313
      90A      1.465963    91A      1.473132    92A      1.527409
      93A      1.560860    94A      1.584426    95A      1.654873
      96A      1.667843    97A      1.673007    98A      1.687753
      99A      1.689064   100A      1.694399   101A      1.703684
     102A      1.728021   103A      1.731189   104A      1.829610
     105A      1.844800   106A      1.860423   107A      1.866284
     108A      1.874903   109A      1.903424   110A      1.926829
     111A      1.929294   112A      1.935544   113A      1.942473
     114A      1.948103   115A      1.949968   116A      1.962312
     117A      1.966418   118A      1.976459   119A      1.984874
     120A      2.001107   121A      2.020019   122A      2.027159
     123A      2.052851   124A      2.079183   125A      2.089968
     126A      2.108851   127A      2.120482   128A      2.128488
     129A      2.149384   130A      2.241615   131A      2.272323
     132A      2.287723   133A      2.294071   134A      2.311408
     135A      2.324611   136A      2.337051   137A      2.359968
     138A      2.385582   139A      2.446366   140A      2.468626
     141A      2.482166   142A      2.547517   143A      2.566607
     144A      2.574902   145A      2.604368   146A      2.644943
     147A      2.706741   148A      2.727950   149A      2.758422
     150A      2.760844   151A      2.786831   152A      2.791479
     153A      2.795971   154A      2.803728   155A      2.836595
     156A      2.842026   157A      2.846186   158A      2.854396
     159A      2.861751   160A      2.944202   161A      2.960456
     162A      3.013826   163A      3.025506   164A      3.117406

    Final Occupation by Irrep:
              A
    DOCC [    26 ]

  @RHF Final Energy:  -236.53972856580359

   => Energetics <=

    Nuclear Repulsion Energy =            243.5954216371729331
    One-Electron Energy =                -799.7400915496509697
    Two-Electron Energy =                 319.6049413466745364
    Total Energy =                       -236.5397285658035571

Computation Completed

Properties will be evaluated at   0.000000,   0.000000,   0.000000 [a0]

Properties computed using the SCF density matrix

  Nuclear Dipole Moment: [e a0]
     X:     1.8981      Y:     0.9145      Z:    -0.3106

  Electronic Dipole Moment: [e a0]
     X:    -1.8414      Y:    -0.8973      Z:     0.3482

  Dipole Moment: [e a0]
     X:     0.0566      Y:     0.0172      Z:     0.0376     Total:     0.0701

  Dipole Moment: [D]
     X:     0.1440      Y:     0.0438      Z:     0.0956     Total:     0.1783

*** tstop() called on ds3 at Tue Apr 28 09:06:00 2020
Module time:
	user time   =      29.45 seconds =       0.49 minutes
	system time =      10.73 seconds =       0.18 minutes
	total time  =         50 seconds =       0.83 minutes
Total time:
	user time   =      29.45 seconds =       0.49 minutes
	system time =      10.73 seconds =       0.18 minutes
	total time  =         50 seconds =       0.83 minutes
                                     G D M A

                                 by Anthony Stone

                           version 2.2.06, 22 June 2011

               Distributed Multipoles from Gaussian wavefunctions

Starting at 9:6:0 on 28 Apr 2020

Using SCF density matrix from file ./SSI/SSI-024LEU-031LEU-1-dimer.test.9475.fchk

                         Distributed Multipole Analysis

Standard DMA

Positions and radii in angstrom
Multipole moments in atomic units, ea_0^k for rank k

C          x =  2.268993  y =  0.999345  z =  0.478804 angstrom
           Maximum rank =  0   Radius =  0.650 angstrom
                   Q00  =  -0.245620

C          x =  3.381993  y =  1.701345  z = -0.356196 angstrom
           Maximum rank =  0   Radius =  0.650 angstrom
                   Q00  =  -0.245706

H          x =  2.204993  y = -0.054655  z =  0.211804 angstrom
           Maximum rank =  0   Radius =  0.325 angstrom
                   Q00  =   0.082706

H          x =  2.513993  y =  1.068345  z =  1.539804 angstrom
           Maximum rank =  0   Radius =  0.325 angstrom
                   Q00  =   0.082735

H          x =  1.310993  y =  1.489345  z =  0.300804 angstrom
           Maximum rank =  0   Radius =  0.325 angstrom
                   Q00  =   0.080973

H          x =  4.315993  y =  1.170345  z = -0.186196 angstrom
           Maximum rank =  0   Radius =  0.325 angstrom
                   Q00  =   0.082009

H          x =  3.150098  y =  1.724964  z = -1.431215 angstrom
           Maximum rank =  0   Radius =  0.325 angstrom
                   Q00  =   0.083292

H          x =  3.521055  y =  2.739243  z = -0.019404 angstrom
           Maximum rank =  0   Radius =  0.325 angstrom
                   Q00  =   0.080813

C          x = -1.201007  y = -0.580655  z =  0.176804 angstrom
           Maximum rank =  0   Radius =  0.650 angstrom
                   Q00  =  -0.001022

C          x = -2.200007  y =  0.577345  z =  0.034804 angstrom
           Maximum rank =  0   Radius =  0.650 angstrom
                   Q00  =  -0.238941

C          x = -1.805007  y = -1.826655  z =  0.877804 angstrom
           Maximum rank =  0   Radius =  0.650 angstrom
                   Q00  =  -0.249815

C          x = -0.615007  y = -0.952655  z = -1.184196 angstrom
           Maximum rank =  0   Radius =  0.650 angstrom
                   Q00  =  -0.243278

H          x = -0.370007  y = -0.239655  z =  0.790804 angstrom
           Maximum rank =  0   Radius =  0.325 angstrom
                   Q00  =   0.013939

H          x = -3.113007  y =  0.177345  z = -0.409196 angstrom
           Maximum rank =  0   Radius =  0.325 angstrom
                   Q00  =   0.073104

H          x = -1.791007  y =  1.307345  z = -0.665196 angstrom
           Maximum rank =  0   Radius =  0.325 angstrom
                   Q00  =   0.076962

H          x = -2.592007  y = -2.241655  z =  0.250804 angstrom
           Maximum rank =  0   Radius =  0.325 angstrom
                   Q00  =   0.075519

H          x = -1.031007  y = -2.579655  z =  1.016804 angstrom
           Maximum rank =  0   Radius =  0.325 angstrom
                   Q00  =   0.083060

H          x = -2.212007  y = -1.562655  z =  1.846804 angstrom
           Maximum rank =  0   Radius =  0.325 angstrom
                   Q00  =   0.085423

H          x = -0.143007  y = -0.080655  z = -1.637196 angstrom
           Maximum rank =  0   Radius =  0.325 angstrom
                   Q00  =   0.081908

H          x =  0.129993  y = -1.737655  z = -1.064196 angstrom
           Maximum rank =  0   Radius =  0.325 angstrom
                   Q00  =   0.081400

H          x = -1.410007  y = -1.308655  z = -1.841196 angstrom
           Maximum rank =  0   Radius =  0.325 angstrom
                   Q00  =   0.073684

H          x = -2.460365  y =  1.103848  z =  0.964862 angstrom
           Maximum rank =  0   Radius =  0.325 angstrom
                   Q00  =   0.086855

Total multipoles referred to origin at
           x =   0.000000,  y =    0.000000,  z =    0.000000 angstrom
                   Q00  =  -0.000000

Finished at 9:6:0 on 28 Apr 2020

  DMA results are available in the Python driver through the
	  variable('DMA DISTRIBUTED MULTIPOLES')
  and
	  variable('DMA TOTAL MULTIPOLES')
  commands.

    Psi4 stopped on: Tuesday, 28 April 2020 09:06AM
    Psi4 wall time for execution: 0:00:50.41

*** Psi4 exiting successfully. Buy a developer a beer!
