                               Psi4 1.3.2 release

  ==> Input File <==

--------------------------------------------------------------------------
import numpy as np
set {scf_type pk
basis cc-pvdz
d_convergence 10
gdma_switch   0
gdma_limit    0
gdma_origin   [ 0.0,  0.0,  0.0 ]
}
molecule test {
    units Angstrom
    0 1
    --
    0 1
    C               -0.604560409911121    -1.819380861097257    -1.031833704155190
    C               -1.197560409911121    -3.063380861097257    -1.674833704155190
    H               -0.449560409911121    -1.051380861097257    -1.786833704155190
    H               -1.300560409911121    -1.434380861097257    -0.286833704155190
    H                0.342439590088879    -2.059380861097257    -0.545833704155190
    H               -2.058560409911121    -2.758380861097257    -2.269833704155190
    H               -0.474197409911121    -3.566210861097257    -2.333543704155190
    H               -1.555422409911121    -3.752410861097257    -0.895618704155190
    C                0.654439590088879     1.104619138902743     0.934166295844810
    C                1.189439590088879     1.956619138902743    -0.228833704155190
    C                0.006439590088879     1.899619138902743     2.057166295844810
    H               -0.080560409911121     0.402619138902743     0.546166295844810
    H                1.465439590088879     0.534619138902743     1.387166295844810
    H                1.885439590088879     2.687619138902743     0.181166295844810
    H               -0.910560409911121     2.377619138902743     1.714166295844810
    H               -0.246560409911121     1.224619138902743     2.875166295844810
    H                0.702439590088879     2.650619138902742     2.426166295844809
    H                1.733699590088879     1.321059138902743    -0.942863704155190
    H                0.372639590088879     2.493499138902743    -0.733412704155190

}
e, wfn = energy('scf', return_wfn=True)
gdma(wfn)
dmavals = variable('DMA DISTRIBUTED MULTIPOLES')
charges = np.array(dmavals)
print(charges)
np.save('SSI-014LEU-163ILE-1-dimer.npy', np.array(charges))--------------------------------------------------------------------------

*** tstart() called on ds3
*** at Mon Apr 27 23:04:12 2020

   => Loading Basis Set <=

    Name: CC-PVDZ
    Role: ORBITAL
    Keyword: BASIS
    atoms 1-2, 9-11  entry C          line   138 file /theoryfs2/ds/metcalf/miniconda2/envs/tf2gpu/share/psi4/basis/cc-pvdz.gbs
    atoms 3-8, 12-19 entry H          line    22 file /theoryfs2/ds/metcalf/miniconda2/envs/tf2gpu/share/psi4/basis/cc-pvdz.gbs

         ---------------------------------------------------------
                                   SCF
               by Justin Turney, Rob Parrish, Andy Simmonett
                          and Daniel G. A. Smith
                              RHF Reference
                        1 Threads,    500 MiB Core
         ---------------------------------------------------------

  ==> Geometry <==

    Molecular point group: c1
    Full point group: C1

    Geometry (in Angstrom), charge = 0, multiplicity = 1:

       Center              X                  Y                   Z               Mass
    ------------   -----------------  -----------------  -----------------  -----------------
         C           -0.604560409911    -1.819380861097    -1.031833704155    12.000000000000
         C           -1.197560409911    -3.063380861097    -1.674833704155    12.000000000000
         H           -0.449560409911    -1.051380861097    -1.786833704155     1.007825032230
         H           -1.300560409911    -1.434380861097    -0.286833704155     1.007825032230
         H            0.342439590089    -2.059380861097    -0.545833704155     1.007825032230
         H           -2.058560409911    -2.758380861097    -2.269833704155     1.007825032230
         H           -0.474197409911    -3.566210861097    -2.333543704155     1.007825032230
         H           -1.555422409911    -3.752410861097    -0.895618704155     1.007825032230
         C            0.654439590089     1.104619138903     0.934166295845    12.000000000000
         C            1.189439590089     1.956619138903    -0.228833704155    12.000000000000
         C            0.006439590089     1.899619138903     2.057166295845    12.000000000000
         H           -0.080560409911     0.402619138903     0.546166295845     1.007825032230
         H            1.465439590089     0.534619138903     1.387166295845     1.007825032230
         H            1.885439590089     2.687619138903     0.181166295845     1.007825032230
         H           -0.910560409911     2.377619138903     1.714166295845     1.007825032230
         H           -0.246560409911     1.224619138903     2.875166295845     1.007825032230
         H            0.702439590089     2.650619138903     2.426166295845     1.007825032230
         H            1.733699590089     1.321059138903    -0.942863704155     1.007825032230
         H            0.372639590089     2.493499138903    -0.733412704155     1.007825032230

  Running in c1 symmetry.

  Rotational constants: A =      0.25261  B =      0.03517  C =      0.03208 [cm^-1]
  Rotational constants: A =   7572.99838  B =   1054.46944  C =    961.75753 [MHz]
  Nuclear repulsion =  175.502322554054956

  Charge       = 0
  Multiplicity = 1
  Electrons    = 44
  Nalpha       = 22
  Nbeta        = 22

  ==> Algorithm <==

  SCF Algorithm Type is PK.
  DIIS enabled.
  MOM disabled.
  Fractional occupation disabled.
  Guess Type is SAD.
  Energy threshold   = 1.00e-06
  Density threshold  = 1.00e-10
  Integral threshold = 0.00e+00

  ==> Primary Basis <==

  Basis Set: CC-PVDZ
    Blend: CC-PVDZ
    Number of shells: 72
    Number of basis function: 140
    Number of Cartesian functions: 145
    Spherical Harmonics?: true
    Max angular momentum: 2

  ==> Pre-Iterations <==

   -------------------------------------------------------
    Irrep   Nso     Nmo     Nalpha   Nbeta   Ndocc  Nsocc
   -------------------------------------------------------
     A        140     140       0       0       0       0
   -------------------------------------------------------
    Total     140     140      22      22      22       0
   -------------------------------------------------------

  ==> Integral Setup <==

  Using integral reordering PK algorithm.
  Sizing the integral batches needed.
  Building batch lookup table.
   Calculation information:
      Number of atoms:                  19
      Number of AO shells:              72
      Number of primitives:            180
      Number of atomic orbitals:       145
      Number of basis functions:       140

      Integral cutoff                 1.00e-12
      Number of threads:                 1

	Batch   1 pq = [       0,    9405] index = [             0,44231715] size =     44231715
	Batch   2 pq = [    9405,    9870] index = [      44231715,48713385] size =      4481670
  Task number: 5
  Buffer size: 11059200
  Buffer per thread: 2
  We computed 2731763 shell quartets total.
  Whereas there are 3454506 unique shell quartets.

  ==> DiskJK: Disk-Based J/K Matrices <==

    J tasked:                  Yes
    K tasked:                  Yes
    wK tasked:                  No
    Memory [MiB]:              375
    Schwarz Cutoff:          1E-12

    OpenMP threads:              1

  Minimum eigenvalue in the overlap matrix is 5.0904884556E-03.
  Using Symmetric Orthogonalization.

  SCF Guess: Superposition of Atomic Densities via on-the-fly atomic UHF.

  ==> Iterations <==

                        Total Energy        Delta E     RMS |[F,P]|

   @RHF iter SAD:  -196.37420012120609   -1.96374e+02   0.00000e+00
   @RHF iter   1:  -197.31138263663095   -9.37183e-01   3.81251e-03 DIIS
   @RHF iter   2:  -197.47215161946966   -1.60769e-01   1.63951e-03 DIIS
   @RHF iter   3:  -197.50054198502650   -2.83904e-02   3.26195e-04 DIIS
   @RHF iter   4:  -197.50277523217486   -2.23325e-03   4.85949e-05 DIIS
   @RHF iter   5:  -197.50281458445571   -3.93523e-05   1.47415e-05 DIIS
   @RHF iter   6:  -197.50281795583479   -3.37138e-06   2.52673e-06 DIIS
   @RHF iter   7:  -197.50281807092239   -1.15088e-07   4.94180e-07 DIIS
   @RHF iter   8:  -197.50281807630512   -5.38273e-09   1.33405e-07 DIIS
   @RHF iter   9:  -197.50281807667699   -3.71870e-10   4.30646e-08 DIIS
   @RHF iter  10:  -197.50281807672076   -4.37694e-11   8.75926e-09 DIIS
   @RHF iter  11:  -197.50281807672246   -1.70530e-12   1.56225e-09 DIIS
   @RHF iter  12:  -197.50281807672209    3.69482e-13   2.73265e-10 DIIS
   @RHF iter  13:  -197.50281807672235   -2.55795e-13   5.06066e-11 DIIS
  Energy and wave function converged.

  ==> Post-Iterations <==

    Orbital Energies [Eh]
    ---------------------

    Doubly Occupied:

       1A    -11.218775     2A    -11.217332     3A    -11.216818
       4A    -11.216316     5A    -11.212913     6A     -1.051459
       7A     -1.020973     8A     -0.924646     9A     -0.836789
      10A     -0.793875    11A     -0.625801    12A     -0.599797
      13A     -0.599566    14A     -0.592783    15A     -0.548578
      16A     -0.532644    17A     -0.504017    18A     -0.486788
      19A     -0.484616    20A     -0.470999    21A     -0.466739
      22A     -0.462738

    Virtual:

      23A      0.172192    24A      0.193274    25A      0.217318
      26A      0.224752    27A      0.230065    28A      0.255907
      29A      0.257211    30A      0.267637    31A      0.273708
      32A      0.286660    33A      0.294465    34A      0.298048
      35A      0.306283    36A      0.333672    37A      0.373143
      38A      0.412114    39A      0.433940    40A      0.573597
      41A      0.587581    42A      0.596645    43A      0.599596
      44A      0.612793    45A      0.620937    46A      0.626517
      47A      0.689081    48A      0.694692    49A      0.729111
      50A      0.791227    51A      0.806513    52A      0.850767
      53A      0.863038    54A      0.886838    55A      0.891050
      56A      0.892256    57A      0.894890    58A      0.900420
      59A      0.904335    60A      0.907969    61A      0.910472
      62A      0.916177    63A      0.921894    64A      0.947365
      65A      0.956421    66A      0.964771    67A      0.981154
      68A      1.041330    69A      1.120777    70A      1.123824
      71A      1.132586    72A      1.137392    73A      1.229301
      74A      1.253364    75A      1.386068    76A      1.468889
      77A      1.475518    78A      1.485648    79A      1.501363
      80A      1.521933    81A      1.588737    82A      1.635406
      83A      1.674065    84A      1.680059    85A      1.690716
      86A      1.692438    87A      1.697044    88A      1.840559
      89A      1.861053    90A      1.872526    91A      1.875026
      92A      1.890130    93A      1.899874    94A      1.918948
      95A      1.921771    96A      1.936756    97A      1.942042
      98A      1.948091    99A      1.961574   100A      1.967590
     101A      1.970441   102A      1.974023   103A      1.980578
     104A      1.988938   105A      2.011105   106A      2.049838
     107A      2.087656   108A      2.108579   109A      2.125452
     110A      2.129714   111A      2.159588   112A      2.285818
     113A      2.298696   114A      2.302906   115A      2.320297
     116A      2.338517   117A      2.372232   118A      2.445272
     119A      2.464114   120A      2.494301   121A      2.537768
     122A      2.567395   123A      2.578471   124A      2.592252
     125A      2.625427   126A      2.630930   127A      2.753216
     128A      2.760622   129A      2.772765   130A      2.787420
     131A      2.795270   132A      2.818202   133A      2.844846
     134A      2.855260   135A      2.922698   136A      2.947252
     137A      2.952920   138A      2.969327   139A      2.979954
     140A      3.084960

    Final Occupation by Irrep:
              A
    DOCC [    22 ]

  @RHF Final Energy:  -197.50281807672235

   => Energetics <=

    Nuclear Repulsion Energy =            175.5023225540549561
    One-Electron Energy =                -611.8403494767183020
    Two-Electron Energy =                 238.8352088459409970
    Total Energy =                       -197.5028180767223489

Computation Completed

Properties will be evaluated at   0.000000,   0.000000,   0.000000 [a0]

Properties computed using the SCF density matrix

  Nuclear Dipole Moment: [e a0]
     X:    -0.5380      Y:    -0.8717      Z:    -0.6232

  Electronic Dipole Moment: [e a0]
     X:     0.5260      Y:     0.8272      Z:     0.6223

  Dipole Moment: [e a0]
     X:    -0.0120      Y:    -0.0446      Z:    -0.0009     Total:     0.0462

  Dipole Moment: [D]
     X:    -0.0304      Y:    -0.1133      Z:    -0.0023     Total:     0.1173

*** tstop() called on ds3 at Mon Apr 27 23:04:42 2020
Module time:
	user time   =      22.76 seconds =       0.38 minutes
	system time =       8.23 seconds =       0.14 minutes
	total time  =         30 seconds =       0.50 minutes
Total time:
	user time   =      22.76 seconds =       0.38 minutes
	system time =       8.23 seconds =       0.14 minutes
	total time  =         30 seconds =       0.50 minutes
                                     G D M A

                                 by Anthony Stone

                           version 2.2.06, 22 June 2011

               Distributed Multipoles from Gaussian wavefunctions

Starting at 23:4:42 on 27 Apr 2020

Using SCF density matrix from file ./SSI/SSI-014LEU-163ILE-1-dimer.test.863.fchk

                         Distributed Multipole Analysis

Standard DMA

Positions and radii in angstrom
Multipole moments in atomic units, ea_0^k for rank k

C          x = -0.604560  y = -1.819381  z = -1.031834 angstrom
           Maximum rank =  0   Radius =  0.650 angstrom
                   Q00  =  -0.234615

C          x = -1.197560  y = -3.063381  z = -1.674834 angstrom
           Maximum rank =  0   Radius =  0.650 angstrom
                   Q00  =  -0.231959

H          x = -0.449560  y = -1.051381  z = -1.786834 angstrom
           Maximum rank =  0   Radius =  0.325 angstrom
                   Q00  =   0.078779

H          x = -1.300560  y = -1.434381  z = -0.286834 angstrom
           Maximum rank =  0   Radius =  0.325 angstrom
                   Q00  =   0.075129

H          x =  0.342440  y = -2.059381  z = -0.545834 angstrom
           Maximum rank =  0   Radius =  0.325 angstrom
                   Q00  =   0.079452

H          x = -2.058560  y = -2.758381  z = -2.269834 angstrom
           Maximum rank =  0   Radius =  0.325 angstrom
                   Q00  =   0.077443

H          x = -0.474197  y = -3.566211  z = -2.333544 angstrom
           Maximum rank =  0   Radius =  0.325 angstrom
                   Q00  =   0.081184

H          x = -1.555422  y = -3.752411  z = -0.895619 angstrom
           Maximum rank =  0   Radius =  0.325 angstrom
                   Q00  =   0.078131

C          x =  0.654440  y =  1.104619  z =  0.934166 angstrom
           Maximum rank =  0   Radius =  0.650 angstrom
                   Q00  =  -0.077999

C          x =  1.189440  y =  1.956619  z = -0.228834 angstrom
           Maximum rank =  0   Radius =  0.650 angstrom
                   Q00  =  -0.238919

C          x =  0.006440  y =  1.899619  z =  2.057166 angstrom
           Maximum rank =  0   Radius =  0.650 angstrom
                   Q00  =  -0.252222

H          x = -0.080560  y =  0.402619  z =  0.546166 angstrom
           Maximum rank =  0   Radius =  0.325 angstrom
                   Q00  =   0.050314

H          x =  1.465440  y =  0.534619  z =  1.387166 angstrom
           Maximum rank =  0   Radius =  0.325 angstrom
                   Q00  =   0.043487

H          x =  1.885440  y =  2.687619  z =  0.181166 angstrom
           Maximum rank =  0   Radius =  0.325 angstrom
                   Q00  =   0.075658

H          x = -0.910560  y =  2.377619  z =  1.714166 angstrom
           Maximum rank =  0   Radius =  0.325 angstrom
                   Q00  =   0.075141

H          x = -0.246560  y =  1.224619  z =  2.875166 angstrom
           Maximum rank =  0   Radius =  0.325 angstrom
                   Q00  =   0.082101

H          x =  0.702440  y =  2.650619  z =  2.426166 angstrom
           Maximum rank =  0   Radius =  0.325 angstrom
                   Q00  =   0.075312

H          x =  1.733700  y =  1.321059  z = -0.942864 angstrom
           Maximum rank =  0   Radius =  0.325 angstrom
                   Q00  =   0.085859

H          x =  0.372640  y =  2.493499  z = -0.733413 angstrom
           Maximum rank =  0   Radius =  0.325 angstrom
                   Q00  =   0.077725

Total multipoles referred to origin at
           x =   0.000000,  y =    0.000000,  z =    0.000000 angstrom
                   Q00  =  -0.000000

Finished at 23:4:42 on 27 Apr 2020

  DMA results are available in the Python driver through the
	  variable('DMA DISTRIBUTED MULTIPOLES')
  and
	  variable('DMA TOTAL MULTIPOLES')
  commands.

    Psi4 stopped on: Monday, 27 April 2020 11:04PM
    Psi4 wall time for execution: 0:00:30.32

*** Psi4 exiting successfully. Buy a developer a beer!
