                               Psi4 1.3.2 release

  ==> Input File <==

--------------------------------------------------------------------------
import numpy as np
set {scf_type pk
basis cc-pvdz
d_convergence 10
gdma_switch   0
gdma_limit    0
gdma_origin   [ 0.0,  0.0,  0.0 ]
}
molecule test {
    units Angstrom
    0 1
    --
    0 1
    C               -0.152506344498878    -2.398395997453090    -1.448612908702668
    C               -0.366506344498878    -2.034395997453090    -2.919612908702668
    C                1.294493655501122    -2.703395997453090    -1.128612908702668
    O                2.185493655501122    -1.895395997453090    -1.375612908702668
    N                1.536493655501122    -3.876395997453090    -0.566612908702668
    H               -0.453506344498878    -1.556395997453090    -0.832612908702668
    H               -0.779506344498878    -3.248395997453090    -1.181612908702668
    H                0.220493655501122    -1.143395997453090    -3.144612908702668
    H                2.468493655501122    -4.068395997453091    -0.216612908702668
    H                0.786493655501122    -4.521395997453090    -0.377612908702668
    H               -1.429478344498878    -1.811205997453090    -3.093622908702668
    H               -0.002765344498878    -2.831605997453090    -3.584554908702668
    C                1.661493655501122     2.390604002546910     2.730387091297332
    C               -1.068506344498878     0.432604002546910     0.948387091297332
    C               -1.682506344498878     1.437604002546910     0.201387091297332
    C                0.022493655501122     0.746604002546910     1.754387091297332
    C                0.495493655501122     2.059604002546910     1.838387091297332
    C               -1.221506344498878     2.753604002546910     0.275387091297332
    C               -0.136506344498878     3.060604002546910     1.095387091297332
    O               -2.740506344498878     1.158604002546910    -0.604612908702668
    H               -1.452506344498878    -0.574395997453090     0.912387091297332
    H                0.504493655501122    -0.034395997453090     2.322387091297332
    H               -1.691506344498878     3.532604002546910    -0.308612908702668
    H               -3.006506344498878     1.911604002546910    -1.139612908702668
    H                1.989493655501122     1.487604002546910     3.242387091297332
    H                1.310493655501122     3.087604002546910     3.492387091297332
    H                0.217493655501122     4.082604002546910     1.154387091297332
    H                2.519428655501122     2.835784002546910     2.205253091297333

}
e, wfn = energy('scf', return_wfn=True)
gdma(wfn)
dmavals = variable('DMA DISTRIBUTED MULTIPOLES')
charges = np.array(dmavals)
print(charges)
np.save('SSI-039ASN-083TYR-1-dimer.npy', np.array(charges))--------------------------------------------------------------------------

*** tstart() called on ds3
*** at Tue Apr 28 14:30:09 2020

   => Loading Basis Set <=

    Name: CC-PVDZ
    Role: ORBITAL
    Keyword: BASIS
    atoms 1-3, 13-19  entry C          line   138 file /theoryfs2/ds/metcalf/miniconda2/envs/tf2gpu/share/psi4/basis/cc-pvdz.gbs
    atoms 4, 20       entry O          line   198 file /theoryfs2/ds/metcalf/miniconda2/envs/tf2gpu/share/psi4/basis/cc-pvdz.gbs
    atoms 5           entry N          line   168 file /theoryfs2/ds/metcalf/miniconda2/envs/tf2gpu/share/psi4/basis/cc-pvdz.gbs
    atoms 6-12, 21-28 entry H          line    22 file /theoryfs2/ds/metcalf/miniconda2/envs/tf2gpu/share/psi4/basis/cc-pvdz.gbs

         ---------------------------------------------------------
                                   SCF
               by Justin Turney, Rob Parrish, Andy Simmonett
                          and Daniel G. A. Smith
                              RHF Reference
                        1 Threads,    500 MiB Core
         ---------------------------------------------------------

  ==> Geometry <==

    Molecular point group: c1
    Full point group: C1

    Geometry (in Angstrom), charge = 0, multiplicity = 1:

       Center              X                  Y                   Z               Mass
    ------------   -----------------  -----------------  -----------------  -----------------
         C           -0.152506344499    -2.398395997453    -1.448612908703    12.000000000000
         C           -0.366506344499    -2.034395997453    -2.919612908703    12.000000000000
         C            1.294493655501    -2.703395997453    -1.128612908703    12.000000000000
         O            2.185493655501    -1.895395997453    -1.375612908703    15.994914619570
         N            1.536493655501    -3.876395997453    -0.566612908703    14.003074004430
         H           -0.453506344499    -1.556395997453    -0.832612908703     1.007825032230
         H           -0.779506344499    -3.248395997453    -1.181612908703     1.007825032230
         H            0.220493655501    -1.143395997453    -3.144612908703     1.007825032230
         H            2.468493655501    -4.068395997453    -0.216612908703     1.007825032230
         H            0.786493655501    -4.521395997453    -0.377612908703     1.007825032230
         H           -1.429478344499    -1.811205997453    -3.093622908703     1.007825032230
         H           -0.002765344499    -2.831605997453    -3.584554908703     1.007825032230
         C            1.661493655501     2.390604002547     2.730387091297    12.000000000000
         C           -1.068506344499     0.432604002547     0.948387091297    12.000000000000
         C           -1.682506344499     1.437604002547     0.201387091297    12.000000000000
         C            0.022493655501     0.746604002547     1.754387091297    12.000000000000
         C            0.495493655501     2.059604002547     1.838387091297    12.000000000000
         C           -1.221506344499     2.753604002547     0.275387091297    12.000000000000
         C           -0.136506344499     3.060604002547     1.095387091297    12.000000000000
         O           -2.740506344499     1.158604002547    -0.604612908703    15.994914619570
         H           -1.452506344499    -0.574395997453     0.912387091297     1.007825032230
         H            0.504493655501    -0.034395997453     2.322387091297     1.007825032230
         H           -1.691506344499     3.532604002547    -0.308612908703     1.007825032230
         H           -3.006506344499     1.911604002547    -1.139612908703     1.007825032230
         H            1.989493655501     1.487604002547     3.242387091297     1.007825032230
         H            1.310493655501     3.087604002547     3.492387091297     1.007825032230
         H            0.217493655501     4.082604002547     1.154387091297     1.007825032230
         H            2.519428655501     2.835784002547     2.205253091297     1.007825032230

  Running in c1 symmetry.

  Rotational constants: A =      0.03213  B =      0.01228  C =      0.00982 [cm^-1]
  Rotational constants: A =    963.25674  B =    368.26433  C =    294.32655 [MHz]
  Nuclear repulsion =  742.106053104807756

  Charge       = 0
  Multiplicity = 1
  Electrons    = 98
  Nalpha       = 49
  Nbeta        = 49

  ==> Algorithm <==

  SCF Algorithm Type is PK.
  DIIS enabled.
  MOM disabled.
  Fractional occupation disabled.
  Guess Type is SAD.
  Energy threshold   = 1.00e-06
  Density threshold  = 1.00e-10
  Integral threshold = 0.00e+00

  ==> Primary Basis <==

  Basis Set: CC-PVDZ
    Blend: CC-PVDZ
    Number of shells: 123
    Number of basis function: 257
    Number of Cartesian functions: 270
    Spherical Harmonics?: true
    Max angular momentum: 2

  ==> Pre-Iterations <==

   -------------------------------------------------------
    Irrep   Nso     Nmo     Nalpha   Nbeta   Ndocc  Nsocc
   -------------------------------------------------------
     A        257     257       0       0       0       0
   -------------------------------------------------------
    Total     257     257      49      49      49       0
   -------------------------------------------------------

  ==> Integral Setup <==

  Using integral reordering PK algorithm.
  Sizing the integral batches needed.
  Building batch lookup table.
   Calculation information:
      Number of atoms:                  28
      Number of AO shells:             123
      Number of primitives:            361
      Number of atomic orbitals:       270
      Number of basis functions:       257

      Integral cutoff                 1.00e-12
      Number of threads:                 1

	Batch   1 pq = [       0,    9405] index = [             0,44231715] size =     44231715
	Batch   2 pq = [    9405,   13301] index = [      44231715,88464951] size =     44233236
	Batch   3 pq = [   13301,   16290] index = [      88464951,132690195] size =     44225244
	Batch   4 pq = [   16290,   18810] index = [     132690195,176917455] size =     44227260
	Batch   5 pq = [   18810,   21030] index = [     176917455,221140965] size =     44223510
	Batch   6 pq = [   21030,   23037] index = [     221140965,265363203] size =     44222238
	Batch   7 pq = [   23037,   24883] index = [     265363203,309594286] size =     44231083
	Batch   8 pq = [   24883,   26601] index = [     309594286,353819901] size =     44225615
	Batch   9 pq = [   26601,   28214] index = [     353819901,398029005] size =     44209104
	Batch  10 pq = [   28214,   29740] index = [     398029005,442248670] size =     44219665
	Batch  11 pq = [   29740,   31191] index = [     442248670,486454836] size =     44206166
	Batch  12 pq = [   31191,   32578] index = [     486454836,530679331] size =     44224495
	Batch  13 pq = [   32578,   33153] index = [     530679331,549577281] size =     18897950
  Task number: 50
  Buffer size: 11059200
  Buffer per thread: 2
  We computed 24726194 shell quartets total.
  Whereas there are 29081751 unique shell quartets.

  ==> DiskJK: Disk-Based J/K Matrices <==

    J tasked:                  Yes
    K tasked:                  Yes
    wK tasked:                  No
    Memory [MiB]:              375
    Schwarz Cutoff:          1E-12

    OpenMP threads:              1

  Minimum eigenvalue in the overlap matrix is 3.2841134232E-04.
  Using Symmetric Orthogonalization.

  SCF Guess: Superposition of Atomic Densities via on-the-fly atomic UHF.

  ==> Iterations <==

                        Total Energy        Delta E     RMS |[F,P]|

   @RHF iter SAD:  -590.27487123875437   -5.90275e+02   0.00000e+00
   @RHF iter   1:  -591.30014148348585   -1.02527e+00   3.02646e-03 DIIS
   @RHF iter   2:  -591.58020552413768   -2.80064e-01   1.57750e-03 DIIS
   @RHF iter   3:  -591.64642765001872   -6.62221e-02   3.68766e-04 DIIS
   @RHF iter   4:  -591.65161642378894   -5.18877e-03   1.49886e-04 DIIS
   @RHF iter   5:  -591.65247488167142   -8.58458e-04   2.19452e-05 DIIS
   @RHF iter   6:  -591.65251518473337   -4.03031e-05   9.63331e-06 DIIS
   @RHF iter   7:  -591.65252127857457   -6.09384e-06   3.79636e-06 DIIS
   @RHF iter   8:  -591.65252257409293   -1.29552e-06   1.52623e-06 DIIS
   @RHF iter   9:  -591.65252276999934   -1.95906e-07   5.41869e-07 DIIS
   @RHF iter  10:  -591.65252279536787   -2.53685e-08   1.97268e-07 DIIS
   @RHF iter  11:  -591.65252279872220   -3.35433e-09   6.35139e-08 DIIS
   @RHF iter  12:  -591.65252279913966   -4.17458e-10   3.00927e-08 DIIS
   @RHF iter  13:  -591.65252279923527   -9.56106e-11   1.25698e-08 DIIS
   @RHF iter  14:  -591.65252279926119   -2.59206e-11   5.80011e-09 DIIS
   @RHF iter  15:  -591.65252279926278   -1.59162e-12   2.45708e-09 DIIS
   @RHF iter  16:  -591.65252279927267   -9.89075e-12   8.62553e-10 DIIS
   @RHF iter  17:  -591.65252279926813    4.54747e-12   3.00553e-10 DIIS
   @RHF iter  18:  -591.65252279926688    1.25056e-12   9.28371e-11 DIIS
  Energy and wave function converged.

  ==> Post-Iterations <==

    Orbital Energies [Eh]
    ---------------------

    Doubly Occupied:

       1A    -20.582561     2A    -20.495979     3A    -15.584809
       4A    -11.337015     5A    -11.299545     6A    -11.237842
       7A    -11.237048     8A    -11.232372     9A    -11.231324
      10A    -11.231267    11A    -11.230012    12A    -11.223977
      13A    -11.222146    14A     -1.401385    15A     -1.361451
      16A     -1.212611    17A     -1.147562    18A     -1.041986
      19A     -1.034490    20A     -1.016766    21A     -0.923089
      22A     -0.882724    23A     -0.842760    24A     -0.802119
      25A     -0.783510    26A     -0.732412    27A     -0.718762
      28A     -0.666589    29A     -0.659915    30A     -0.641750
      31A     -0.613265    32A     -0.606753    33A     -0.587582
      34A     -0.585593    35A     -0.579851    36A     -0.567180
      37A     -0.564470    38A     -0.562629    39A     -0.523760
      40A     -0.516592    41A     -0.496932    42A     -0.495912
      43A     -0.489312    44A     -0.480881    45A     -0.463714
      46A     -0.400549    47A     -0.397971    48A     -0.337291
      49A     -0.298117

    Virtual:

      50A      0.129544    51A      0.157653    52A      0.168544
      53A      0.179278    54A      0.189774    55A      0.200095
      56A      0.213027    57A      0.220763    58A      0.224057
      59A      0.241171    60A      0.249926    61A      0.269807
      62A      0.271723    63A      0.276731    64A      0.279978
      65A      0.293693    66A      0.300832    67A      0.327502
      68A      0.372120    69A      0.379491    70A      0.392506
      71A      0.411183    72A      0.437578    73A      0.456009
      74A      0.466835    75A      0.488450    76A      0.496449
      77A      0.512541    78A      0.571543    79A      0.616131
      80A      0.620003    81A      0.625872    82A      0.631529
      83A      0.652189    84A      0.654754    85A      0.669039
      86A      0.688880    87A      0.693229    88A      0.699640
      89A      0.717394    90A      0.722137    91A      0.730419
      92A      0.738341    93A      0.744733    94A      0.769755
      95A      0.770712    96A      0.773849    97A      0.785681
      98A      0.795711    99A      0.800002   100A      0.831360
     101A      0.842323   102A      0.844926   103A      0.854261
     104A      0.868599   105A      0.877881   106A      0.886238
     107A      0.891423   108A      0.896298   109A      0.898974
     110A      0.906603   111A      0.915462   112A      0.925221
     113A      0.929413   114A      0.941825   115A      0.943106
     116A      0.952014   117A      0.955882   118A      0.972321
     119A      0.993390   120A      1.010967   121A      1.018232
     122A      1.028682   123A      1.034857   124A      1.056839
     125A      1.103782   126A      1.111094   127A      1.132173
     128A      1.133158   129A      1.146198   130A      1.164154
     131A      1.184386   132A      1.224907   133A      1.241271
     134A      1.262837   135A      1.272990   136A      1.287907
     137A      1.291921   138A      1.298599   139A      1.309178
     140A      1.313768   141A      1.326558   142A      1.357755
     143A      1.371454   144A      1.383969   145A      1.389987
     146A      1.400741   147A      1.414045   148A      1.466693
     149A      1.478922   150A      1.482917   151A      1.499508
     152A      1.513662   153A      1.528761   154A      1.538106
     155A      1.561176   156A      1.624057   157A      1.627075
     158A      1.638312   159A      1.684488   160A      1.687650
     161A      1.696799   162A      1.732225   163A      1.734333
     164A      1.747877   165A      1.763224   166A      1.780833
     167A      1.802336   168A      1.808337   169A      1.837128
     170A      1.863879   171A      1.875011   172A      1.877461
     173A      1.889249   174A      1.898037   175A      1.902371
     176A      1.910025   177A      1.915716   178A      1.921276
     179A      1.934546   180A      1.937487   181A      1.946807
     182A      1.951860   183A      1.958661   184A      1.966434
     185A      1.970778   186A      1.992742   187A      2.002292
     188A      2.007650   189A      2.030259   190A      2.038158
     191A      2.051644   192A      2.064342   193A      2.065906
     194A      2.073856   195A      2.080748   196A      2.100787
     197A      2.118094   198A      2.144159   199A      2.173827
     200A      2.189635   201A      2.202010   202A      2.210975
     203A      2.216929   204A      2.257795   205A      2.273185
     206A      2.300313   207A      2.304292   208A      2.314470
     209A      2.362567   210A      2.376066   211A      2.392635
     212A      2.409007   213A      2.457477   214A      2.466069
     215A      2.477204   216A      2.484029   217A      2.499440
     218A      2.507925   219A      2.527747   220A      2.544901
     221A      2.565897   222A      2.586708   223A      2.596825
     224A      2.617101   225A      2.644877   226A      2.651131
     227A      2.736560   228A      2.763637   229A      2.775253
     230A      2.786002   231A      2.796426   232A      2.806005
     233A      2.842660   234A      2.850810   235A      2.889733
     236A      2.905453   237A      2.909434   238A      2.960246
     239A      2.988331   240A      3.001819   241A      3.006767
     242A      3.088826   243A      3.112778   244A      3.129873
     245A      3.141605   246A      3.250975   247A      3.279031
     248A      3.286522   249A      3.351764   250A      3.513253
     251A      3.546295   252A      3.576254   253A      3.668933
     254A      3.880377   255A      3.916440   256A      3.980931
     257A      4.188969

    Final Occupation by Irrep:
              A
    DOCC [    49 ]

  @RHF Final Energy:  -591.65252279926688

   => Energetics <=

    Nuclear Repulsion Energy =            742.1060531048077564
    One-Electron Energy =               -2278.3488910948931334
    Two-Electron Energy =                 944.5903151908183872
    Total Energy =                       -591.6525227992668761

Computation Completed

Properties will be evaluated at   0.000000,   0.000000,   0.000000 [a0]

Properties computed using the SCF density matrix

  Nuclear Dipole Moment: [e a0]
     X:     1.1189      Y:    -2.6657      Z:    -0.5237

  Electronic Dipole Moment: [e a0]
     X:    -1.9152      Y:     2.1235      Z:     0.9711

  Dipole Moment: [e a0]
     X:    -0.7963      Y:    -0.5422      Z:     0.4473     Total:     1.0622

  Dipole Moment: [D]
     X:    -2.0241      Y:    -1.3782      Z:     1.1370     Total:     2.6998

*** tstop() called on ds3 at Tue Apr 28 14:36:43 2020
Module time:
	user time   =     197.95 seconds =       3.30 minutes
	system time =      89.26 seconds =       1.49 minutes
	total time  =        394 seconds =       6.57 minutes
Total time:
	user time   =     197.95 seconds =       3.30 minutes
	system time =      89.26 seconds =       1.49 minutes
	total time  =        394 seconds =       6.57 minutes
                                     G D M A

                                 by Anthony Stone

                           version 2.2.06, 22 June 2011

               Distributed Multipoles from Gaussian wavefunctions

Starting at 14:36:43 on 28 Apr 2020

Using SCF density matrix from file ./SSI/SSI-039ASN-083TYR-1-dimer.test.26101.fchk

                         Distributed Multipole Analysis

Standard DMA

Positions and radii in angstrom
Multipole moments in atomic units, ea_0^k for rank k

C          x = -0.152506  y = -2.398396  z = -1.448613 angstrom
           Maximum rank =  0   Radius =  0.650 angstrom
                   Q00  =  -0.132605

C          x = -0.366506  y = -2.034396  z = -2.919613 angstrom
           Maximum rank =  0   Radius =  0.650 angstrom
                   Q00  =  -0.214724

C          x =  1.294494  y = -2.703396  z = -1.128613 angstrom
           Maximum rank =  0   Radius =  0.650 angstrom
                   Q00  =   0.827819

O          x =  2.185494  y = -1.895396  z = -1.375613 angstrom
           Maximum rank =  0   Radius =  0.650 angstrom
                   Q00  =  -0.812967

N          x =  1.536494  y = -3.876396  z = -0.566613 angstrom
           Maximum rank =  0   Radius =  0.650 angstrom
                   Q00  =  -0.520142

H          x = -0.453506  y = -1.556396  z = -0.832613 angstrom
           Maximum rank =  0   Radius =  0.325 angstrom
                   Q00  =   0.123426

H          x = -0.779506  y = -3.248396  z = -1.181613 angstrom
           Maximum rank =  0   Radius =  0.325 angstrom
                   Q00  =   0.035200

H          x =  0.220494  y = -1.143396  z = -3.144613 angstrom
           Maximum rank =  0   Radius =  0.325 angstrom
                   Q00  =   0.110201

H          x =  2.468494  y = -4.068396  z = -0.216613 angstrom
           Maximum rank =  0   Radius =  0.325 angstrom
                   Q00  =   0.215436

H          x =  0.786494  y = -4.521396  z = -0.377613 angstrom
           Maximum rank =  0   Radius =  0.325 angstrom
                   Q00  =   0.203501

H          x = -1.429478  y = -1.811206  z = -3.093623 angstrom
           Maximum rank =  0   Radius =  0.325 angstrom
                   Q00  =   0.086430

H          x = -0.002765  y = -2.831606  z = -3.584555 angstrom
           Maximum rank =  0   Radius =  0.325 angstrom
                   Q00  =   0.078646

C          x =  1.661494  y =  2.390604  z =  2.730387 angstrom
           Maximum rank =  0   Radius =  0.650 angstrom
                   Q00  =  -0.193681

C          x = -1.068506  y =  0.432604  z =  0.948387 angstrom
           Maximum rank =  0   Radius =  0.650 angstrom
                   Q00  =  -0.132673

C          x = -1.682506  y =  1.437604  z =  0.201387 angstrom
           Maximum rank =  0   Radius =  0.650 angstrom
                   Q00  =   0.321410

C          x =  0.022494  y =  0.746604  z =  1.754387 angstrom
           Maximum rank =  0   Radius =  0.650 angstrom
                   Q00  =   0.038213

C          x =  0.495494  y =  2.059604  z =  1.838387 angstrom
           Maximum rank =  0   Radius =  0.650 angstrom
                   Q00  =  -0.132817

C          x = -1.221506  y =  2.753604  z =  0.275387 angstrom
           Maximum rank =  0   Radius =  0.650 angstrom
                   Q00  =  -0.178488

C          x = -0.136506  y =  3.060604  z =  1.095387 angstrom
           Maximum rank =  0   Radius =  0.650 angstrom
                   Q00  =  -0.060502

O          x = -2.740506  y =  1.158604  z = -0.604613 angstrom
           Maximum rank =  0   Radius =  0.650 angstrom
                   Q00  =  -0.645661

H          x = -1.452506  y = -0.574396  z =  0.912387 angstrom
           Maximum rank =  0   Radius =  0.325 angstrom
                   Q00  =   0.075669

H          x =  0.504494  y = -0.034396  z =  2.322387 angstrom
           Maximum rank =  0   Radius =  0.325 angstrom
                   Q00  =   0.067499

H          x = -1.691506  y =  3.532604  z = -0.308613 angstrom
           Maximum rank =  0   Radius =  0.325 angstrom
                   Q00  =   0.071108

H          x = -3.006506  y =  1.911604  z = -1.139613 angstrom
           Maximum rank =  0   Radius =  0.325 angstrom
                   Q00  =   0.408500

H          x =  1.989494  y =  1.487604  z =  3.242387 angstrom
           Maximum rank =  0   Radius =  0.325 angstrom
                   Q00  =   0.096386

H          x =  1.310494  y =  3.087604  z =  3.492387 angstrom
           Maximum rank =  0   Radius =  0.325 angstrom
                   Q00  =   0.093796

H          x =  0.217494  y =  4.082604  z =  1.154387 angstrom
           Maximum rank =  0   Radius =  0.325 angstrom
                   Q00  =   0.069159

H          x =  2.519429  y =  2.835784  z =  2.205253 angstrom
           Maximum rank =  0   Radius =  0.325 angstrom
                   Q00  =   0.101863

Total multipoles referred to origin at
           x =   0.000000,  y =    0.000000,  z =    0.000000 angstrom
                   Q00  =  -0.000000

Finished at 14:36:43 on 28 Apr 2020

  DMA results are available in the Python driver through the
	  variable('DMA DISTRIBUTED MULTIPOLES')
  and
	  variable('DMA TOTAL MULTIPOLES')
  commands.

    Psi4 stopped on: Tuesday, 28 April 2020 02:36PM
    Psi4 wall time for execution: 0:06:34.32

*** Psi4 exiting successfully. Buy a developer a beer!
