                               Psi4 1.3.2 release

  ==> Input File <==

--------------------------------------------------------------------------
import numpy as np
set {scf_type pk
basis cc-pvdz
d_convergence 10
gdma_switch   0
gdma_limit    0
gdma_origin   [ 0.0,  0.0,  0.0 ]
}
molecule test {
    units Angstrom
    0 1
    --
    0 1
    C               -1.293874186089580     1.378486529896748     1.426222299705542
    C               -1.502874186089580     2.870486529896747     1.275222299705542
    H               -1.895874186089580     0.838486529896748     0.694222299705541
    H               -0.244874186089580     1.135486529896748     1.293222299705542
    H               -1.588874186089580     1.063486529896748     2.429222299705541
    H               -0.825874186089580     3.372486529896748     1.966222299705542
    H               -2.542594186089580     3.100696529896747     1.550866299705542
    H               -1.266664186089580     3.187606529896748     0.248751299705541
    C                0.343125813910420    -0.972513470103252    -0.666777700294459
    C                0.575125813910420    -1.955513470103252    -1.821777700294458
    C                0.655125813910420    -1.618513470103252     0.693222299705542
    O                1.185125813910420     0.166486529896748    -0.857777700294459
    H               -0.696874186089580    -0.641513470103252    -0.668777700294459
    H                1.627125813910420    -2.248513470103252    -1.831777700294458
    H                1.593125813910420    -2.173513470103252     0.643222299705541
    H                0.755125813910420    -0.852513470103252     1.460222299705542
    H               -0.152874186089580    -2.284513470103252     0.988222299705541
    H                0.756125813910420     0.734486529896748    -1.525777700294459
    H                0.299645813910420    -1.495363470103252    -2.782181700294458
    H               -0.058984186089580    -2.835983470103252    -1.641018700294459

}
e, wfn = energy('scf', return_wfn=True)
gdma(wfn)
dmavals = variable('DMA DISTRIBUTED MULTIPOLES')
charges = np.array(dmavals)
print(charges)
np.save('SSI-003ALA-007THR-1-dimer.npy', np.array(charges))--------------------------------------------------------------------------

*** tstart() called on ds3
*** at Tue Apr 28 07:58:33 2020

   => Loading Basis Set <=

    Name: CC-PVDZ
    Role: ORBITAL
    Keyword: BASIS
    atoms 1-2, 9-11  entry C          line   138 file /theoryfs2/ds/metcalf/miniconda2/envs/tf2gpu/share/psi4/basis/cc-pvdz.gbs
    atoms 3-8, 13-20 entry H          line    22 file /theoryfs2/ds/metcalf/miniconda2/envs/tf2gpu/share/psi4/basis/cc-pvdz.gbs
    atoms 12         entry O          line   198 file /theoryfs2/ds/metcalf/miniconda2/envs/tf2gpu/share/psi4/basis/cc-pvdz.gbs

         ---------------------------------------------------------
                                   SCF
               by Justin Turney, Rob Parrish, Andy Simmonett
                          and Daniel G. A. Smith
                              RHF Reference
                        1 Threads,    500 MiB Core
         ---------------------------------------------------------

  ==> Geometry <==

    Molecular point group: c1
    Full point group: C1

    Geometry (in Angstrom), charge = 0, multiplicity = 1:

       Center              X                  Y                   Z               Mass
    ------------   -----------------  -----------------  -----------------  -----------------
         C           -1.293874186090     1.378486529897     1.426222299706    12.000000000000
         C           -1.502874186090     2.870486529897     1.275222299706    12.000000000000
         H           -1.895874186090     0.838486529897     0.694222299706     1.007825032230
         H           -0.244874186090     1.135486529897     1.293222299706     1.007825032230
         H           -1.588874186090     1.063486529897     2.429222299706     1.007825032230
         H           -0.825874186090     3.372486529897     1.966222299706     1.007825032230
         H           -2.542594186090     3.100696529897     1.550866299706     1.007825032230
         H           -1.266664186090     3.187606529897     0.248751299706     1.007825032230
         C            0.343125813910    -0.972513470103    -0.666777700294    12.000000000000
         C            0.575125813910    -1.955513470103    -1.821777700294    12.000000000000
         C            0.655125813910    -1.618513470103     0.693222299706    12.000000000000
         O            1.185125813910     0.166486529897    -0.857777700294    15.994914619570
         H           -0.696874186090    -0.641513470103    -0.668777700294     1.007825032230
         H            1.627125813910    -2.248513470103    -1.831777700294     1.007825032230
         H            1.593125813910    -2.173513470103     0.643222299706     1.007825032230
         H            0.755125813910    -0.852513470103     1.460222299706     1.007825032230
         H           -0.152874186090    -2.284513470103     0.988222299706     1.007825032230
         H            0.756125813910     0.734486529897    -1.525777700294     1.007825032230
         H            0.299645813910    -1.495363470103    -2.782181700294     1.007825032230
         H           -0.058984186090    -2.835983470103    -1.641018700294     1.007825032230

  Running in c1 symmetry.

  Rotational constants: A =      0.17810  B =      0.03742  C =      0.03461 [cm^-1]
  Rotational constants: A =   5339.30090  B =   1121.79903  C =   1037.69992 [MHz]
  Nuclear repulsion =  250.826138435830359

  Charge       = 0
  Multiplicity = 1
  Electrons    = 52
  Nalpha       = 26
  Nbeta        = 26

  ==> Algorithm <==

  SCF Algorithm Type is PK.
  DIIS enabled.
  MOM disabled.
  Fractional occupation disabled.
  Guess Type is SAD.
  Energy threshold   = 1.00e-06
  Density threshold  = 1.00e-10
  Integral threshold = 0.00e+00

  ==> Primary Basis <==

  Basis Set: CC-PVDZ
    Blend: CC-PVDZ
    Number of shells: 78
    Number of basis function: 154
    Number of Cartesian functions: 160
    Spherical Harmonics?: true
    Max angular momentum: 2

  ==> Pre-Iterations <==

   -------------------------------------------------------
    Irrep   Nso     Nmo     Nalpha   Nbeta   Ndocc  Nsocc
   -------------------------------------------------------
     A        154     154       0       0       0       0
   -------------------------------------------------------
    Total     154     154      26      26      26       0
   -------------------------------------------------------

  ==> Integral Setup <==

  Using integral reordering PK algorithm.
  Sizing the integral batches needed.
  Building batch lookup table.
   Calculation information:
      Number of atoms:                  20
      Number of AO shells:              78
      Number of primitives:            202
      Number of atomic orbitals:       160
      Number of basis functions:       154

      Integral cutoff                 1.00e-12
      Number of threads:                 1

	Batch   1 pq = [       0,    9405] index = [             0,44231715] size =     44231715
	Batch   2 pq = [    9405,   11935] index = [      44231715,71228080] size =     26996365
  Task number: 7
  Buffer size: 11059200
  Buffer per thread: 2
  We computed 4180700 shell quartets total.
  Whereas there are 4747821 unique shell quartets.

  ==> DiskJK: Disk-Based J/K Matrices <==

    J tasked:                  Yes
    K tasked:                  Yes
    wK tasked:                  No
    Memory [MiB]:              375
    Schwarz Cutoff:          1E-12

    OpenMP threads:              1

  Minimum eigenvalue in the overlap matrix is 4.5472501117E-03.
  Using Symmetric Orthogonalization.

  SCF Guess: Superposition of Atomic Densities via on-the-fly atomic UHF.

  ==> Iterations <==

                        Total Energy        Delta E     RMS |[F,P]|

   @RHF iter SAD:  -271.09908143803568   -2.71099e+02   0.00000e+00
   @RHF iter   1:  -272.13977106457037   -1.04069e+00   3.90292e-03 DIIS
   @RHF iter   2:  -272.32497984420888   -1.85209e-01   1.78846e-03 DIIS
   @RHF iter   3:  -272.35929720455351   -3.43174e-02   3.56952e-04 DIIS
   @RHF iter   4:  -272.36181811897580   -2.52091e-03   1.22339e-04 DIIS
   @RHF iter   5:  -272.36200507928191   -1.86960e-04   2.19405e-05 DIIS
   @RHF iter   6:  -272.36201420381957   -9.12454e-06   4.58557e-06 DIIS
   @RHF iter   7:  -272.36201465657945   -4.52760e-07   1.34151e-06 DIIS
   @RHF iter   8:  -272.36201469292939   -3.63499e-08   3.68202e-07 DIIS
   @RHF iter   9:  -272.36201469710358   -4.17418e-09   9.24806e-08 DIIS
   @RHF iter  10:  -272.36201469737426   -2.70688e-10   2.76167e-08 DIIS
   @RHF iter  11:  -272.36201469739501   -2.07478e-11   7.63368e-09 DIIS
   @RHF iter  12:  -272.36201469739615   -1.13687e-12   2.24520e-09 DIIS
   @RHF iter  13:  -272.36201469739672   -5.68434e-13   6.38945e-10 DIIS
   @RHF iter  14:  -272.36201469739677   -5.68434e-14   1.59866e-10 DIIS
   @RHF iter  15:  -272.36201469739626    5.11591e-13   5.72020e-11 DIIS
  Energy and wave function converged.

  ==> Post-Iterations <==

    Orbital Energies [Eh]
    ---------------------

    Doubly Occupied:

       1A    -20.548444     2A    -11.278683     3A    -11.220613
       4A    -11.217342     5A    -11.216740     6A    -11.211565
       7A     -1.348613     8A     -1.036679     9A     -1.021225
      10A     -0.933118    11A     -0.832909    12A     -0.793512
      13A     -0.695068    14A     -0.613638    15A     -0.599885
      16A     -0.599393    17A     -0.595353    18A     -0.548526
      19A     -0.539809    20A     -0.519616    21A     -0.506682
      22A     -0.498003    23A     -0.484001    24A     -0.482306
      25A     -0.462435    26A     -0.425748

    Virtual:

      27A      0.161812    28A      0.195871    29A      0.210686
      30A      0.223022    31A      0.243251    32A      0.245643
      33A      0.253123    34A      0.260170    35A      0.276571
      36A      0.283221    37A      0.292598    38A      0.302279
      39A      0.333755    40A      0.342476    41A      0.389360
      42A      0.395405    43A      0.411427    44A      0.423353
      45A      0.558855    46A      0.569899    47A      0.603994
      48A      0.614067    49A      0.649381    50A      0.652015
      51A      0.671183    52A      0.685845    53A      0.730107
      54A      0.754953    55A      0.780360    56A      0.815688
      57A      0.838713    58A      0.858237    59A      0.867067
      60A      0.880954    61A      0.891224    62A      0.892953
      63A      0.899314    64A      0.902585    65A      0.909248
      66A      0.914091    67A      0.927204    68A      0.929359
      69A      0.946859    70A      0.958875    71A      0.966554
      72A      0.981786    73A      1.015225    74A      1.128568
      75A      1.131421    76A      1.138137    77A      1.166961
      78A      1.174992    79A      1.243538    80A      1.261146
      81A      1.338260    82A      1.379635    83A      1.429966
      84A      1.488302    85A      1.500362    86A      1.513800
      87A      1.531249    88A      1.556665    89A      1.609211
      90A      1.626734    91A      1.656742    92A      1.672995
      93A      1.675928    94A      1.699996    95A      1.715460
      96A      1.723669    97A      1.830183    98A      1.846899
      99A      1.856078   100A      1.860619   101A      1.879968
     102A      1.898035   103A      1.911692   104A      1.933418
     105A      1.942852   106A      1.952047   107A      1.965578
     108A      1.969822   109A      1.979312   110A      1.983482
     111A      1.991804   112A      2.015398   113A      2.021044
     114A      2.033734   115A      2.044115   116A      2.090643
     117A      2.117410   118A      2.128313   119A      2.179160
     120A      2.213756   121A      2.270157   122A      2.294210
     123A      2.309195   124A      2.310185   125A      2.330704
     126A      2.371552   127A      2.446381   128A      2.457219
     129A      2.491061   130A      2.505635   131A      2.534666
     132A      2.556049   133A      2.581552   134A      2.584652
     135A      2.595512   136A      2.639706   137A      2.753953
     138A      2.767676   139A      2.784517   140A      2.796171
     141A      2.805488   142A      2.831938   143A      2.845565
     144A      2.852640   145A      2.868834   146A      2.913825
     147A      2.969491   148A      2.987948   149A      3.008553
     150A      3.328183   151A      3.399272   152A      3.478536
     153A      3.645155   154A      4.105651

    Final Occupation by Irrep:
              A
    DOCC [    26 ]

  @RHF Final Energy:  -272.36201469739626

   => Energetics <=

    Nuclear Repulsion Energy =            250.8261384358303587
    One-Electron Energy =                -865.9164926888557829
    Two-Electron Energy =                 342.7283395556291907
    Total Energy =                       -272.3620146973962619

Computation Completed

Properties will be evaluated at   0.000000,   0.000000,   0.000000 [a0]

Properties computed using the SCF density matrix

  Nuclear Dipole Moment: [e a0]
     X:    -3.9714      Y:     0.8453      Z:     2.6439

  Electronic Dipole Moment: [e a0]
     X:     3.4401      Y:    -0.9699      Z:    -2.9143

  Dipole Moment: [e a0]
     X:    -0.5313      Y:    -0.1246      Z:    -0.2704     Total:     0.6090

  Dipole Moment: [D]
     X:    -1.3504      Y:    -0.3168      Z:    -0.6873     Total:     1.5480

*** tstop() called on ds3 at Tue Apr 28 07:59:10 2020
Module time:
	user time   =      23.90 seconds =       0.40 minutes
	system time =       8.91 seconds =       0.15 minutes
	total time  =         37 seconds =       0.62 minutes
Total time:
	user time   =      23.90 seconds =       0.40 minutes
	system time =       8.91 seconds =       0.15 minutes
	total time  =         37 seconds =       0.62 minutes
                                     G D M A

                                 by Anthony Stone

                           version 2.2.06, 22 June 2011

               Distributed Multipoles from Gaussian wavefunctions

Starting at 7:59:10 on 28 Apr 2020

Using SCF density matrix from file ./SSI/SSI-003ALA-007THR-1-dimer.test.8087.fchk

                         Distributed Multipole Analysis

Standard DMA

Positions and radii in angstrom
Multipole moments in atomic units, ea_0^k for rank k

C          x = -1.293874  y =  1.378487  z =  1.426222 angstrom
           Maximum rank =  0   Radius =  0.650 angstrom
                   Q00  =  -0.232572

C          x = -1.502874  y =  2.870487  z =  1.275222 angstrom
           Maximum rank =  0   Radius =  0.650 angstrom
                   Q00  =  -0.224799

H          x = -1.895874  y =  0.838487  z =  0.694222 angstrom
           Maximum rank =  0   Radius =  0.325 angstrom
                   Q00  =   0.067475

H          x = -0.244874  y =  1.135487  z =  1.293222 angstrom
           Maximum rank =  0   Radius =  0.325 angstrom
                   Q00  =   0.083149

H          x = -1.588874  y =  1.063487  z =  2.429222 angstrom
           Maximum rank =  0   Radius =  0.325 angstrom
                   Q00  =   0.074150

H          x = -0.825874  y =  3.372487  z =  1.966222 angstrom
           Maximum rank =  0   Radius =  0.325 angstrom
                   Q00  =   0.079425

H          x = -2.542594  y =  3.100697  z =  1.550866 angstrom
           Maximum rank =  0   Radius =  0.325 angstrom
                   Q00  =   0.073642

H          x = -1.266664  y =  3.187607  z =  0.248751 angstrom
           Maximum rank =  0   Radius =  0.325 angstrom
                   Q00  =   0.073896

C          x =  0.343126  y = -0.972513  z = -0.666778 angstrom
           Maximum rank =  0   Radius =  0.650 angstrom
                   Q00  =   0.108510

C          x =  0.575126  y = -1.955513  z = -1.821778 angstrom
           Maximum rank =  0   Radius =  0.650 angstrom
                   Q00  =  -0.225710

C          x =  0.655126  y = -1.618513  z =  0.693222 angstrom
           Maximum rank =  0   Radius =  0.650 angstrom
                   Q00  =  -0.250451

O          x =  1.185126  y =  0.166487  z = -0.857778 angstrom
           Maximum rank =  0   Radius =  0.650 angstrom
                   Q00  =  -0.553500

H          x = -0.696874  y = -0.641513  z = -0.668778 angstrom
           Maximum rank =  0   Radius =  0.325 angstrom
                   Q00  =   0.009002

H          x =  1.627126  y = -2.248513  z = -1.831778 angstrom
           Maximum rank =  0   Radius =  0.325 angstrom
                   Q00  =   0.095836

H          x =  1.593126  y = -2.173513  z =  0.643222 angstrom
           Maximum rank =  0   Radius =  0.325 angstrom
                   Q00  =   0.087649

H          x =  0.755126  y = -0.852513  z =  1.460222 angstrom
           Maximum rank =  0   Radius =  0.325 angstrom
                   Q00  =   0.106584

H          x = -0.152874  y = -2.284513  z =  0.988222 angstrom
           Maximum rank =  0   Radius =  0.325 angstrom
                   Q00  =   0.084611

H          x =  0.756126  y =  0.734487  z = -1.525778 angstrom
           Maximum rank =  0   Radius =  0.325 angstrom
                   Q00  =   0.388031

H          x =  0.299646  y = -1.495363  z = -2.782182 angstrom
           Maximum rank =  0   Radius =  0.325 angstrom
                   Q00  =   0.081643

H          x = -0.058984  y = -2.835983  z = -1.641019 angstrom
           Maximum rank =  0   Radius =  0.325 angstrom
                   Q00  =   0.073429

Total multipoles referred to origin at
           x =   0.000000,  y =    0.000000,  z =    0.000000 angstrom
                   Q00  =  -0.000000

Finished at 7:59:10 on 28 Apr 2020

  DMA results are available in the Python driver through the
	  variable('DMA DISTRIBUTED MULTIPOLES')
  and
	  variable('DMA TOTAL MULTIPOLES')
  commands.

    Psi4 stopped on: Tuesday, 28 April 2020 07:59AM
    Psi4 wall time for execution: 0:00:37.13

*** Psi4 exiting successfully. Buy a developer a beer!
