                               Psi4 1.3.2 release

  ==> Input File <==

--------------------------------------------------------------------------
import numpy as np
set {scf_type pk
basis cc-pvdz
d_convergence 10
gdma_switch   0
gdma_limit    0
gdma_origin   [ 0.0,  0.0,  0.0 ]
}
molecule test {
    units Angstrom
    0 1
    --
    0 1
    C               -1.414026555243248    -0.254573724771122    -0.693382313328529
    C               -2.601026555243248    -0.494573724771122    -1.672382313328529
    C               -1.697026555243249    -0.575573724771122     0.781617686671471
    C               -2.859026555243248    -0.142573724771122     1.438617686671471
    C               -0.735026555243249    -1.270573724771122     1.525617686671471
    C               -3.055026555243248    -0.395573724771122     2.822617686671471
    C               -0.908026555243249    -1.524573724771122     2.899617686671470
    C               -2.067026555243249    -1.089573724771123     3.549617686671471
    H               -0.597026555243249    -0.903573724771122    -1.015382313328529
    H               -1.067026555243249     0.780426275228878    -0.733382313328529
    H               -3.504026555243248    -0.055573724771122    -1.249382313328529
    H               -3.607026555243248     0.394426275228878     0.870617686671471
    H                0.158973444756751    -1.614573724771122     1.021617686671471
    H               -3.954026555243249    -0.057573724771122     3.327617686671471
    H               -0.146026555243249    -2.050573724771123     3.454617686671471
    H               -2.197026555243248    -1.287573724771122     4.605617686671470
    H               -2.761136555243248    -1.572573724771122    -1.821972313328529
    H               -2.426566555243248     0.036026275228878    -2.620052313328529
    C                0.361973444756751     3.040426275228878    -2.171382313328529
    C                1.212973444756752     1.879426275228878    -1.674382313328529
    C                1.461973444756751     1.671426275228878    -0.310382313328529
    C                1.668973444756751     0.932426275228878    -2.596382313328530
    C                2.158973444756751     0.524426275228878     0.116617686671471
    C                2.351973444756752    -0.219573724771122    -2.189382313328530
    C                2.587973444756751    -0.419573724771122    -0.823382313328529
    O                3.202973444756751    -1.561573724771122    -0.398382313328529
    H               -0.671026555243249     2.871426275228878    -1.858382313328529
    H                0.398973444756751     3.059426275228878    -3.259382313328529
    H                1.113973444756751     2.390426275228878     0.417617686671471
    H                1.478973444756752     1.105426275228877    -3.646382313328529
    H                2.393973444756751     0.374426275228878     1.162617686671471
    H                2.687973444756752    -0.941573724771122    -2.923382313328529
    H                3.284973444756751    -1.605573724771123     0.566617686671471
    H                0.627343444756751     4.078526275228877    -1.922332313328529

}
e, wfn = energy('scf', return_wfn=True)
gdma(wfn)
dmavals = variable('DMA DISTRIBUTED MULTIPOLES')
charges = np.array(dmavals)
print(charges)
np.save('SSI-110PHE-222TYR-1-dimer.npy', np.array(charges))--------------------------------------------------------------------------

*** tstart() called on ds3
*** at Sun Apr 26 16:56:23 2020

   => Loading Basis Set <=

    Name: CC-PVDZ
    Role: ORBITAL
    Keyword: BASIS
    atoms 1-8, 19-25  entry C          line   138 file /theoryfs2/ds/metcalf/miniconda2/envs/tf2gpu/share/psi4/basis/cc-pvdz.gbs
    atoms 9-18, 27-34 entry H          line    22 file /theoryfs2/ds/metcalf/miniconda2/envs/tf2gpu/share/psi4/basis/cc-pvdz.gbs
    atoms 26          entry O          line   198 file /theoryfs2/ds/metcalf/miniconda2/envs/tf2gpu/share/psi4/basis/cc-pvdz.gbs

         ---------------------------------------------------------
                                   SCF
               by Justin Turney, Rob Parrish, Andy Simmonett
                          and Daniel G. A. Smith
                              RHF Reference
                        1 Threads,    500 MiB Core
         ---------------------------------------------------------

  ==> Geometry <==

    Molecular point group: c1
    Full point group: C1

    Geometry (in Angstrom), charge = 0, multiplicity = 1:

       Center              X                  Y                   Z               Mass
    ------------   -----------------  -----------------  -----------------  -----------------
         C           -1.414026555243    -0.254573724771    -0.693382313329    12.000000000000
         C           -2.601026555243    -0.494573724771    -1.672382313329    12.000000000000
         C           -1.697026555243    -0.575573724771     0.781617686671    12.000000000000
         C           -2.859026555243    -0.142573724771     1.438617686671    12.000000000000
         C           -0.735026555243    -1.270573724771     1.525617686671    12.000000000000
         C           -3.055026555243    -0.395573724771     2.822617686671    12.000000000000
         C           -0.908026555243    -1.524573724771     2.899617686671    12.000000000000
         C           -2.067026555243    -1.089573724771     3.549617686671    12.000000000000
         H           -0.597026555243    -0.903573724771    -1.015382313329     1.007825032230
         H           -1.067026555243     0.780426275229    -0.733382313329     1.007825032230
         H           -3.504026555243    -0.055573724771    -1.249382313329     1.007825032230
         H           -3.607026555243     0.394426275229     0.870617686671     1.007825032230
         H            0.158973444757    -1.614573724771     1.021617686671     1.007825032230
         H           -3.954026555243    -0.057573724771     3.327617686671     1.007825032230
         H           -0.146026555243    -2.050573724771     3.454617686671     1.007825032230
         H           -2.197026555243    -1.287573724771     4.605617686671     1.007825032230
         H           -2.761136555243    -1.572573724771    -1.821972313329     1.007825032230
         H           -2.426566555243     0.036026275229    -2.620052313329     1.007825032230
         C            0.361973444757     3.040426275229    -2.171382313329    12.000000000000
         C            1.212973444757     1.879426275229    -1.674382313329    12.000000000000
         C            1.461973444757     1.671426275229    -0.310382313329    12.000000000000
         C            1.668973444757     0.932426275229    -2.596382313329    12.000000000000
         C            2.158973444757     0.524426275229     0.116617686671    12.000000000000
         C            2.351973444757    -0.219573724771    -2.189382313329    12.000000000000
         C            2.587973444757    -0.419573724771    -0.823382313329    12.000000000000
         O            3.202973444757    -1.561573724771    -0.398382313329    15.994914619570
         H           -0.671026555243     2.871426275229    -1.858382313329     1.007825032230
         H            0.398973444757     3.059426275229    -3.259382313329     1.007825032230
         H            1.113973444757     2.390426275229     0.417617686671     1.007825032230
         H            1.478973444757     1.105426275229    -3.646382313329     1.007825032230
         H            2.393973444757     0.374426275229     1.162617686671     1.007825032230
         H            2.687973444757    -0.941573724771    -2.923382313329     1.007825032230
         H            3.284973444757    -1.605573724771     0.566617686671     1.007825032230
         H            0.627343444757     4.078526275229    -1.922332313329     1.007825032230

  Running in c1 symmetry.

  Rotational constants: A =      0.02392  B =      0.01054  C =      0.00877 [cm^-1]
  Rotational constants: A =    716.99543  B =    315.98973  C =    262.99435 [MHz]
  Nuclear repulsion = 1019.996290998632048

  Charge       = 0
  Multiplicity = 1
  Electrons    = 116
  Nalpha       = 58
  Nbeta        = 58

  ==> Algorithm <==

  SCF Algorithm Type is PK.
  DIIS enabled.
  MOM disabled.
  Fractional occupation disabled.
  Guess Type is SAD.
  Energy threshold   = 1.00e-06
  Density threshold  = 1.00e-10
  Integral threshold = 0.00e+00

  ==> Primary Basis <==

  Basis Set: CC-PVDZ
    Blend: CC-PVDZ
    Number of shells: 150
    Number of basis function: 314
    Number of Cartesian functions: 330
    Spherical Harmonics?: true
    Max angular momentum: 2

  ==> Pre-Iterations <==

   -------------------------------------------------------
    Irrep   Nso     Nmo     Nalpha   Nbeta   Ndocc  Nsocc
   -------------------------------------------------------
     A        314     314       0       0       0       0
   -------------------------------------------------------
    Total     314     314      58      58      58       0
   -------------------------------------------------------

  ==> Integral Setup <==

  Using integral reordering PK algorithm.
  Sizing the integral batches needed.
  Building batch lookup table.
   Calculation information:
      Number of atoms:                  34
      Number of AO shells:             150
      Number of primitives:            442
      Number of atomic orbitals:       330
      Number of basis functions:       314

      Integral cutoff                 1.00e-12
      Number of threads:                 1

	Batch   1 pq = [       0,    9405] index = [             0,44231715] size =     44231715
	Batch   2 pq = [    9405,   13301] index = [      44231715,88464951] size =     44233236
	Batch   3 pq = [   13301,   16290] index = [      88464951,132690195] size =     44225244
	Batch   4 pq = [   16290,   18810] index = [     132690195,176917455] size =     44227260
	Batch   5 pq = [   18810,   21030] index = [     176917455,221140965] size =     44223510
	Batch   6 pq = [   21030,   23037] index = [     221140965,265363203] size =     44222238
	Batch   7 pq = [   23037,   24883] index = [     265363203,309594286] size =     44231083
	Batch   8 pq = [   24883,   26601] index = [     309594286,353819901] size =     44225615
	Batch   9 pq = [   26601,   28214] index = [     353819901,398029005] size =     44209104
	Batch  10 pq = [   28214,   29740] index = [     398029005,442248670] size =     44219665
	Batch  11 pq = [   29740,   31191] index = [     442248670,486454836] size =     44206166
	Batch  12 pq = [   31191,   32578] index = [     486454836,530679331] size =     44224495
	Batch  13 pq = [   32578,   33908] index = [     530679331,574893186] size =     44213855
	Batch  14 pq = [   33908,   35188] index = [     574893186,619115266] size =     44222080
	Batch  15 pq = [   35188,   36423] index = [     619115266,663335676] size =     44220410
	Batch  16 pq = [   36423,   37617] index = [     663335676,707538153] size =     44202477
	Batch  17 pq = [   37617,   38775] index = [     707538153,751769700] size =     44231547
	Batch  18 pq = [   38775,   39899] index = [     751769700,795985050] size =     44215350
	Batch  19 pq = [   39899,   40992] index = [     795985050,840192528] size =     44207478
	Batch  20 pq = [   40992,   42057] index = [     840192528,884416653] size =     44224125
	Batch  21 pq = [   42057,   43095] index = [     884416653,928611060] size =     44194407
	Batch  22 pq = [   43095,   44109] index = [     928611060,972823995] size =     44212935
	Batch  23 pq = [   44109,   45100] index = [     972823995,1017027550] size =     44203555
	Batch  24 pq = [   45100,   46070] index = [    1017027550,1061245485] size =     44217935
	Batch  25 pq = [   46070,   47020] index = [    1061245485,1105463710] size =     44218225
	Batch  26 pq = [   47020,   47951] index = [    1105463710,1149673176] size =     44209466
	Batch  27 pq = [   47951,   48864] index = [    1149673176,1193869680] size =     44196504
	Batch  28 pq = [   48864,   49455] index = [    1193869680,1222923240] size =     29053560
  Task number: 111
  Buffer size: 11059200
  Buffer per thread: 2
  We computed 74794065 shell quartets total.
  Whereas there are 64133475 unique shell quartets.
    16.62 percent of shell quartets recomputed by reordering.

  ==> DiskJK: Disk-Based J/K Matrices <==

    J tasked:                  Yes
    K tasked:                  Yes
    wK tasked:                  No
    Memory [MiB]:              375
    Schwarz Cutoff:          1E-12

    OpenMP threads:              1

  Minimum eigenvalue in the overlap matrix is 3.2308122032E-04.
  Using Symmetric Orthogonalization.

  SCF Guess: Superposition of Atomic Densities via on-the-fly atomic UHF.

  ==> Iterations <==

                        Total Energy        Delta E     RMS |[F,P]|

   @RHF iter SAD:  -651.88080487695333   -6.51881e+02   0.00000e+00
   @RHF iter   1:  -653.07099187812457   -1.19019e+00   2.23139e-03 DIIS
   @RHF iter   2:  -653.36030252964213   -2.89311e-01   9.17477e-04 DIIS
   @RHF iter   3:  -653.40307652988065   -4.27740e-02   2.25028e-04 DIIS
   @RHF iter   4:  -653.40696467293537   -3.88814e-03   8.88199e-05 DIIS
   @RHF iter   5:  -653.40741827909596   -4.53606e-04   1.62832e-05 DIIS
   @RHF iter   6:  -653.40744151728745   -2.32382e-05   5.08727e-06 DIIS
   @RHF iter   7:  -653.40744379460125   -2.27731e-06   1.76549e-06 DIIS
   @RHF iter   8:  -653.40744415402992   -3.59429e-07   6.54588e-07 DIIS
   @RHF iter   9:  -653.40744422201806   -6.79881e-08   2.78385e-07 DIIS
   @RHF iter  10:  -653.40744423632236   -1.43043e-08   1.28320e-07 DIIS
   @RHF iter  11:  -653.40744424097727   -4.65491e-09   5.36363e-08 DIIS
   @RHF iter  12:  -653.40744424177046   -7.93193e-10   2.41802e-08 DIIS
   @RHF iter  13:  -653.40744424188642   -1.15961e-10   6.70658e-09 DIIS
   @RHF iter  14:  -653.40744424188972   -3.29692e-12   1.98318e-09 DIIS
   @RHF iter  15:  -653.40744424189256   -2.84217e-12   5.97345e-10 DIIS
   @RHF iter  16:  -653.40744424189495   -2.38742e-12   2.36998e-10 DIIS
   @RHF iter  17:  -653.40744424189290    2.04636e-12   1.12048e-10 DIIS
   @RHF iter  18:  -653.40744424188995    2.95586e-12   5.25595e-11 DIIS
  Energy and wave function converged.

  ==> Post-Iterations <==

    Orbital Energies [Eh]
    ---------------------

    Doubly Occupied:

       1A    -20.587474     2A    -11.305497     3A    -11.244730
       4A    -11.242521     5A    -11.240154     6A    -11.239282
       7A    -11.238634     8A    -11.238226     9A    -11.236343
      10A    -11.236281    11A    -11.233466    12A    -11.233058
      13A    -11.231872    14A    -11.229853    15A    -11.225123
      16A    -11.221520    17A     -1.400877    18A     -1.148479
      19A     -1.141186    20A     -1.049533    21A     -1.035748
      22A     -1.017007    23A     -1.001364    24A     -0.974425
      25A     -0.927863    26A     -0.858006    27A     -0.846154
      28A     -0.819654    29A     -0.804633    30A     -0.777676
      31A     -0.732435    32A     -0.685431    33A     -0.668026
      34A     -0.644097    35A     -0.630806    36A     -0.624804
      37A     -0.610573    38A     -0.598129    39A     -0.588433
      40A     -0.587912    41A     -0.581085    42A     -0.574108
      43A     -0.569341    44A     -0.561005    45A     -0.525627
      46A     -0.524143    47A     -0.514964    48A     -0.499288
      49A     -0.497619    50A     -0.487595    51A     -0.476974
      52A     -0.472094    53A     -0.464163    54A     -0.456884
      55A     -0.339779    56A     -0.324247    57A     -0.319376
      58A     -0.303047

    Virtual:

      59A      0.122015    60A      0.134537    61A      0.140540
      62A      0.152168    63A      0.164031    64A      0.176526
      65A      0.196671    66A      0.204593    67A      0.214688
      68A      0.220397    69A      0.229477    70A      0.242468
      71A      0.251224    72A      0.254481    73A      0.259373
      74A      0.261162    75A      0.277241    76A      0.282765
      77A      0.298285    78A      0.316886    79A      0.329033
      80A      0.341585    81A      0.355976    82A      0.368725
      83A      0.372205    84A      0.388207    85A      0.407417
      86A      0.423619    87A      0.447978    88A      0.453176
      89A      0.467254    90A      0.479263    91A      0.487070
      92A      0.491343    93A      0.505600    94A      0.509697
      95A      0.563964    96A      0.594864    97A      0.596339
      98A      0.607552    99A      0.618076   100A      0.636706
     101A      0.642222   102A      0.652540   103A      0.670599
     104A      0.675563   105A      0.687163   106A      0.698594
     107A      0.706001   108A      0.709324   109A      0.720178
     110A      0.727083   111A      0.733189   112A      0.735418
     113A      0.737059   114A      0.741011   115A      0.749078
     116A      0.756471   117A      0.760329   118A      0.764439
     119A      0.778568   120A      0.788308   121A      0.795578
     122A      0.805068   123A      0.812680   124A      0.828474
     125A      0.833659   126A      0.846446   127A      0.858203
     128A      0.864409   129A      0.869208   130A      0.872703
     131A      0.878039   132A      0.888957   133A      0.892388
     134A      0.895761   135A      0.897000   136A      0.903801
     137A      0.909694   138A      0.919002   139A      0.928799
     140A      0.936730   141A      0.937649   142A      0.947972
     143A      0.959410   144A      0.973279   145A      0.982570
     146A      0.987090   147A      0.996762   148A      1.001253
     149A      1.013382   150A      1.020077   151A      1.043931
     152A      1.050625   153A      1.083654   154A      1.109179
     155A      1.113139   156A      1.132248   157A      1.138093
     158A      1.143571   159A      1.154719   160A      1.155262
     161A      1.168418   162A      1.178894   163A      1.203010
     164A      1.212260   165A      1.218900   166A      1.232045
     167A      1.242705   168A      1.248733   169A      1.252901
     170A      1.261633   171A      1.265937   172A      1.270620
     173A      1.291187   174A      1.296295   175A      1.300078
     176A      1.307481   177A      1.312194   178A      1.324100
     179A      1.346996   180A      1.356163   181A      1.364739
     182A      1.390281   183A      1.418201   184A      1.433404
     185A      1.468494   186A      1.483317   187A      1.492349
     188A      1.506637   189A      1.522791   190A      1.542707
     191A      1.550007   192A      1.586848   193A      1.608955
     194A      1.617481   195A      1.630035   196A      1.676044
     197A      1.685701   198A      1.704925   199A      1.710078
     200A      1.725848   201A      1.743434   202A      1.748505
     203A      1.751738   204A      1.759944   205A      1.768924
     206A      1.781669   207A      1.798329   208A      1.803731
     209A      1.825981   210A      1.833471   211A      1.862979
     212A      1.868748   213A      1.872821   214A      1.883997
     215A      1.888360   216A      1.893836   217A      1.902138
     218A      1.908775   219A      1.913214   220A      1.919451
     221A      1.920280   222A      1.928400   223A      1.930482
     224A      1.946630   225A      1.950084   226A      1.952672
     227A      1.959780   228A      1.963641   229A      1.974399
     230A      1.982101   231A      1.995202   232A      2.000551
     233A      2.004608   234A      2.015047   235A      2.026019
     236A      2.034569   237A      2.051330   238A      2.052808
     239A      2.059279   240A      2.069399   241A      2.076588
     242A      2.086896   243A      2.089192   244A      2.114264
     245A      2.120093   246A      2.144368   247A      2.145153
     248A      2.152544   249A      2.157435   250A      2.166877
     251A      2.192982   252A      2.199670   253A      2.212127
     254A      2.218319   255A      2.227418   256A      2.254749
     257A      2.264455   258A      2.270143   259A      2.272409
     260A      2.303828   261A      2.312628   262A      2.322098
     263A      2.344983   264A      2.354934   265A      2.368796
     266A      2.371314   267A      2.375052   268A      2.410968
     269A      2.444632   270A      2.460717   271A      2.472778
     272A      2.481973   273A      2.490713   274A      2.512928
     275A      2.520975   276A      2.551974   277A      2.559344
     278A      2.603378   279A      2.606566   280A      2.638487
     281A      2.652452   282A      2.731549   283A      2.732556
     284A      2.740726   285A      2.764640   286A      2.769110
     287A      2.778155   288A      2.787912   289A      2.795221
     290A      2.799944   291A      2.824862   292A      2.856315
     293A      2.860361   294A      2.900854   295A      2.913864
     296A      2.954245   297A      2.961263   298A      2.981966
     299A      3.002944   300A      3.016982   301A      3.063861
     302A      3.066348   303A      3.120230   304A      3.144875
     305A      3.173955   306A      3.239222   307A      3.265089
     308A      3.276145   309A      3.339949   310A      3.563271
     311A      3.651918   312A      3.912100   313A      3.948905
     314A      4.178336

    Final Occupation by Irrep:
              A
    DOCC [    58 ]

  @RHF Final Energy:  -653.40744424188995

   => Energetics <=

    Nuclear Repulsion Energy =           1019.9962909986320483
    One-Electron Energy =               -2911.1102291497677470
    Two-Electron Energy =                1237.7064939092458644
    Total Energy =                       -653.4074442418898343

Computation Completed

Properties will be evaluated at   0.000000,   0.000000,   0.000000 [a0]

Properties computed using the SCF density matrix

  Nuclear Dipole Moment: [e a0]
     X:    -8.2210      Y:     4.6811      Z:    -5.2734

  Electronic Dipole Moment: [e a0]
     X:     8.1916      Y:    -4.2891      Z:     5.5222

  Dipole Moment: [e a0]
     X:    -0.0294      Y:     0.3920      Z:     0.2488     Total:     0.4653

  Dipole Moment: [D]
     X:    -0.0746      Y:     0.9965      Z:     0.6324     Total:     1.1826

*** tstop() called on ds3 at Sun Apr 26 17:16:25 2020
Module time:
	user time   =     687.49 seconds =      11.46 minutes
	system time =     203.25 seconds =       3.39 minutes
	total time  =       1202 seconds =      20.03 minutes
Total time:
	user time   =     687.49 seconds =      11.46 minutes
	system time =     203.25 seconds =       3.39 minutes
	total time  =       1202 seconds =      20.03 minutes
                                     G D M A

                                 by Anthony Stone

                           version 2.2.06, 22 June 2011

               Distributed Multipoles from Gaussian wavefunctions

Starting at 17:16:25 on 26 Apr 2020

Using SCF density matrix from file ./SSI/SSI-110PHE-222TYR-1-dimer.test.16955.fchk

                         Distributed Multipole Analysis

Standard DMA

Positions and radii in angstrom
Multipole moments in atomic units, ea_0^k for rank k

C          x = -1.414027  y = -0.254574  z = -0.693382 angstrom
           Maximum rank =  0   Radius =  0.650 angstrom
                   Q00  =  -0.041709

C          x = -2.601027  y = -0.494574  z = -1.672382 angstrom
           Maximum rank =  0   Radius =  0.650 angstrom
                   Q00  =  -0.245164

C          x = -1.697027  y = -0.575574  z =  0.781618 angstrom
           Maximum rank =  0   Radius =  0.650 angstrom
                   Q00  =  -0.123513

C          x = -2.859027  y = -0.142574  z =  1.438618 angstrom
           Maximum rank =  0   Radius =  0.650 angstrom
                   Q00  =  -0.070311

C          x = -0.735027  y = -1.270574  z =  1.525618 angstrom
           Maximum rank =  0   Radius =  0.650 angstrom
                   Q00  =   0.002636

C          x = -3.055027  y = -0.395574  z =  2.822618 angstrom
           Maximum rank =  0   Radius =  0.650 angstrom
                   Q00  =  -0.077383

C          x = -0.908027  y = -1.524574  z =  2.899618 angstrom
           Maximum rank =  0   Radius =  0.650 angstrom
                   Q00  =  -0.072845

C          x = -2.067027  y = -1.089574  z =  3.549618 angstrom
           Maximum rank =  0   Radius =  0.650 angstrom
                   Q00  =  -0.087876

H          x = -0.597027  y = -0.903574  z = -1.015382 angstrom
           Maximum rank =  0   Radius =  0.325 angstrom
                   Q00  =   0.070131

H          x = -1.067027  y =  0.780426  z = -0.733382 angstrom
           Maximum rank =  0   Radius =  0.325 angstrom
                   Q00  =   0.081638

H          x = -3.504027  y = -0.055574  z = -1.249382 angstrom
           Maximum rank =  0   Radius =  0.325 angstrom
                   Q00  =   0.075835

H          x = -3.607027  y =  0.394426  z =  0.870618 angstrom
           Maximum rank =  0   Radius =  0.325 angstrom
                   Q00  =   0.060948

H          x =  0.158973  y = -1.614574  z =  1.021618 angstrom
           Maximum rank =  0   Radius =  0.325 angstrom
                   Q00  =   0.048014

H          x = -3.954027  y = -0.057574  z =  3.327618 angstrom
           Maximum rank =  0   Radius =  0.325 angstrom
                   Q00  =   0.068541

H          x = -0.146027  y = -2.050574  z =  3.454618 angstrom
           Maximum rank =  0   Radius =  0.325 angstrom
                   Q00  =   0.060104

H          x = -2.197027  y = -1.287574  z =  4.605618 angstrom
           Maximum rank =  0   Radius =  0.325 angstrom
                   Q00  =   0.063456

H          x = -2.761137  y = -1.572574  z = -1.821972 angstrom
           Maximum rank =  0   Radius =  0.325 angstrom
                   Q00  =   0.088536

H          x = -2.426567  y =  0.036026  z = -2.620052 angstrom
           Maximum rank =  0   Radius =  0.325 angstrom
                   Q00  =   0.086319

C          x =  0.361973  y =  3.040426  z = -2.171382 angstrom
           Maximum rank =  0   Radius =  0.650 angstrom
                   Q00  =  -0.215292

C          x =  1.212973  y =  1.879426  z = -1.674382 angstrom
           Maximum rank =  0   Radius =  0.650 angstrom
                   Q00  =  -0.122743

C          x =  1.461973  y =  1.671426  z = -0.310382 angstrom
           Maximum rank =  0   Radius =  0.650 angstrom
                   Q00  =  -0.055764

C          x =  1.668973  y =  0.932426  z = -2.596382 angstrom
           Maximum rank =  0   Radius =  0.650 angstrom
                   Q00  =   0.053480

C          x =  2.158973  y =  0.524426  z =  0.116618 angstrom
           Maximum rank =  0   Radius =  0.650 angstrom
                   Q00  =  -0.154755

C          x =  2.351973  y = -0.219574  z = -2.189382 angstrom
           Maximum rank =  0   Radius =  0.650 angstrom
                   Q00  =  -0.118900

C          x =  2.587973  y = -0.419574  z = -0.823382 angstrom
           Maximum rank =  0   Radius =  0.650 angstrom
                   Q00  =   0.302562

O          x =  3.202973  y = -1.561574  z = -0.398382 angstrom
           Maximum rank =  0   Radius =  0.650 angstrom
                   Q00  =  -0.676773

H          x = -0.671027  y =  2.871426  z = -1.858382 angstrom
           Maximum rank =  0   Radius =  0.325 angstrom
                   Q00  =   0.092479

H          x =  0.398973  y =  3.059426  z = -3.259382 angstrom
           Maximum rank =  0   Radius =  0.325 angstrom
                   Q00  =   0.093816

H          x =  1.113973  y =  2.390426  z =  0.417618 angstrom
           Maximum rank =  0   Radius =  0.325 angstrom
                   Q00  =   0.075289

H          x =  1.478973  y =  1.105426  z = -3.646382 angstrom
           Maximum rank =  0   Radius =  0.325 angstrom
                   Q00  =   0.067127

H          x =  2.393973  y =  0.374426  z =  1.162618 angstrom
           Maximum rank =  0   Radius =  0.325 angstrom
                   Q00  =   0.075339

H          x =  2.687973  y = -0.941574  z = -2.923382 angstrom
           Maximum rank =  0   Radius =  0.325 angstrom
                   Q00  =   0.084161

H          x =  3.284973  y = -1.605574  z =  0.566618 angstrom
           Maximum rank =  0   Radius =  0.325 angstrom
                   Q00  =   0.411695

H          x =  0.627343  y =  4.078526  z = -1.922332 angstrom
           Maximum rank =  0   Radius =  0.325 angstrom
                   Q00  =   0.100920

Total multipoles referred to origin at
           x =   0.000000,  y =    0.000000,  z =    0.000000 angstrom
                   Q00  =  -0.000000

Finished at 17:16:25 on 26 Apr 2020

  DMA results are available in the Python driver through the
	  variable('DMA DISTRIBUTED MULTIPOLES')
  and
	  variable('DMA TOTAL MULTIPOLES')
  commands.

    Psi4 stopped on: Sunday, 26 April 2020 05:16PM
    Psi4 wall time for execution: 0:20:01.98

*** Psi4 exiting successfully. Buy a developer a beer!
