                               Psi4 1.3.2 release

  ==> Input File <==

--------------------------------------------------------------------------
import numpy as np
set {scf_type pk
basis cc-pvdz
d_convergence 10
gdma_switch   0
gdma_limit    0
gdma_origin   [ 0.0,  0.0,  0.0 ]
}
molecule test {
    units Angstrom
    -1 1
    --
    -1 1
    C               -3.984469171932937    -1.409045405196279     0.969534816169501
    C               -2.797469171932937    -0.587045405196279     1.415534816169500
    O               -1.736469171932937    -1.154045405196279     1.737534816169500
    O               -2.964469171932937     0.663954594803721     1.431534816169501
    H               -4.366469171932937    -1.009045405196279     0.027534816169501
    H               -4.766469171932936    -1.320045405196279     1.719534816169501
    H               -3.743520171932937    -2.472393405196279     0.823814816169501
    C                3.900530828067063     1.668954594803721    -0.795465183830499
    C                0.340530828067063     0.586954594803721    -0.184465183830499
    C                1.522530828067063     1.303954594803721    -0.104465183830499
    C                0.287530828067063    -0.547045405196279    -0.980465183830499
    C                2.634530828067063     0.866954594803721    -0.834465183830499
    C                1.379530828067063    -0.994045405196279    -1.702465183830499
    C                2.567530828067063    -0.271045405196279    -1.622465183830499
    H               -0.530469171932937     0.907954594803721     0.367534816169501
    H                1.575530828067063     2.195954594803721     0.503534816169501
    H               -0.639469171932937    -1.101045405196279    -1.034465183830499
    H                1.310530828067063    -1.877045405196279    -2.321465183830500
    H                3.636530828067063     2.725954594803721    -0.834465183830499
    H                4.462530828067063     1.450954594803721    -1.705465183830499
    H                3.429530828067064    -0.596045405196279    -2.187465183830499
    H                4.574840828067063     1.507437594803721     0.058474816169501

}
e, wfn = energy('scf', return_wfn=True)
gdma(wfn)
dmavals = variable('DMA DISTRIBUTED MULTIPOLES')
charges = np.array(dmavals)
print(charges)
np.save('SSI-042GLU-103PHE-1-dimer.npy', np.array(charges))--------------------------------------------------------------------------

*** tstart() called on ds3
*** at Tue Apr 28 00:59:52 2020

   => Loading Basis Set <=

    Name: CC-PVDZ
    Role: ORBITAL
    Keyword: BASIS
    atoms 1-2, 8-14  entry C          line   138 file /theoryfs2/ds/metcalf/miniconda2/envs/tf2gpu/share/psi4/basis/cc-pvdz.gbs
    atoms 3-4        entry O          line   198 file /theoryfs2/ds/metcalf/miniconda2/envs/tf2gpu/share/psi4/basis/cc-pvdz.gbs
    atoms 5-7, 15-22 entry H          line    22 file /theoryfs2/ds/metcalf/miniconda2/envs/tf2gpu/share/psi4/basis/cc-pvdz.gbs

         ---------------------------------------------------------
                                   SCF
               by Justin Turney, Rob Parrish, Andy Simmonett
                          and Daniel G. A. Smith
                              RHF Reference
                        1 Threads,    500 MiB Core
         ---------------------------------------------------------

  ==> Geometry <==

    Molecular point group: c1
    Full point group: C1

    Geometry (in Angstrom), charge = -1, multiplicity = 1:

       Center              X                  Y                   Z               Mass
    ------------   -----------------  -----------------  -----------------  -----------------
         C           -3.984469171933    -1.409045405196     0.969534816170    12.000000000000
         C           -2.797469171933    -0.587045405196     1.415534816169    12.000000000000
         O           -1.736469171933    -1.154045405196     1.737534816169    15.994914619570
         O           -2.964469171933     0.663954594804     1.431534816170    15.994914619570
         H           -4.366469171933    -1.009045405196     0.027534816170     1.007825032230
         H           -4.766469171933    -1.320045405196     1.719534816170     1.007825032230
         H           -3.743520171933    -2.472393405196     0.823814816170     1.007825032230
         C            3.900530828067     1.668954594804    -0.795465183830    12.000000000000
         C            0.340530828067     0.586954594804    -0.184465183830    12.000000000000
         C            1.522530828067     1.303954594804    -0.104465183830    12.000000000000
         C            0.287530828067    -0.547045405196    -0.980465183830    12.000000000000
         C            2.634530828067     0.866954594804    -0.834465183830    12.000000000000
         C            1.379530828067    -0.994045405196    -1.702465183830    12.000000000000
         C            2.567530828067    -0.271045405196    -1.622465183830    12.000000000000
         H           -0.530469171933     0.907954594804     0.367534816170     1.007825032230
         H            1.575530828067     2.195954594804     0.503534816170     1.007825032230
         H           -0.639469171933    -1.101045405196    -1.034465183830     1.007825032230
         H            1.310530828067    -1.877045405196    -2.321465183831     1.007825032230
         H            3.636530828067     2.725954594804    -0.834465183830     1.007825032230
         H            4.462530828067     1.450954594804    -1.705465183830     1.007825032230
         H            3.429530828067    -0.596045405196    -2.187465183830     1.007825032230
         H            4.574840828067     1.507437594804     0.058474816170     1.007825032230

  Running in c1 symmetry.

  Rotational constants: A =      0.09038  B =      0.01351  C =      0.01234 [cm^-1]
  Rotational constants: A =   2709.42458  B =    405.12068  C =    370.06278 [MHz]
  Nuclear repulsion =  539.377362337433055

  Charge       = -1
  Multiplicity = 1
  Electrons    = 82
  Nalpha       = 41
  Nbeta        = 41

  ==> Algorithm <==

  SCF Algorithm Type is PK.
  DIIS enabled.
  MOM disabled.
  Fractional occupation disabled.
  Guess Type is SAD.
  Energy threshold   = 1.00e-06
  Density threshold  = 1.00e-10
  Integral threshold = 0.00e+00

  ==> Primary Basis <==

  Basis Set: CC-PVDZ
    Blend: CC-PVDZ
    Number of shells: 99
    Number of basis function: 209
    Number of Cartesian functions: 220
    Spherical Harmonics?: true
    Max angular momentum: 2

  ==> Pre-Iterations <==

   -------------------------------------------------------
    Irrep   Nso     Nmo     Nalpha   Nbeta   Ndocc  Nsocc
   -------------------------------------------------------
     A        209     209       0       0       0       0
   -------------------------------------------------------
    Total     209     209      41      41      41       0
   -------------------------------------------------------

  ==> Integral Setup <==

  Using integral reordering PK algorithm.
  Sizing the integral batches needed.
  Building batch lookup table.
   Calculation information:
      Number of atoms:                  22
      Number of AO shells:              99
      Number of primitives:            297
      Number of atomic orbitals:       220
      Number of basis functions:       209

      Integral cutoff                 1.00e-12
      Number of threads:                 1

	Batch   1 pq = [       0,    9405] index = [             0,44231715] size =     44231715
	Batch   2 pq = [    9405,   13301] index = [      44231715,88464951] size =     44233236
	Batch   3 pq = [   13301,   16290] index = [      88464951,132690195] size =     44225244
	Batch   4 pq = [   16290,   18810] index = [     132690195,176917455] size =     44227260
	Batch   5 pq = [   18810,   21030] index = [     176917455,221140965] size =     44223510
	Batch   6 pq = [   21030,   21945] index = [     221140965,240802485] size =     19661520
  Task number: 22
  Buffer size: 11059200
  Buffer per thread: 2
  We computed 9286207 shell quartets total.
  Whereas there are 12253725 unique shell quartets.

  ==> DiskJK: Disk-Based J/K Matrices <==

    J tasked:                  Yes
    K tasked:                  Yes
    wK tasked:                  No
    Memory [MiB]:              375
    Schwarz Cutoff:          1E-12

    OpenMP threads:              1

  Minimum eigenvalue in the overlap matrix is 3.0353632075E-04.
  Using Symmetric Orthogonalization.

  SCF Guess: Superposition of Atomic Densities via on-the-fly atomic UHF.

  ==> Iterations <==

                        Total Energy        Delta E     RMS |[F,P]|

   @RHF iter SAD:  -495.43021405881666   -4.95430e+02   0.00000e+00
   @RHF iter   1:  -496.67047717937049   -1.24026e+00   3.76219e-03 DIIS
   @RHF iter   2:  -496.93513024373328   -2.64653e-01   2.04010e-03 DIIS
   @RHF iter   3:  -497.00432834197204   -6.91981e-02   3.44089e-04 DIIS
   @RHF iter   4:  -497.00782087979485   -3.49254e-03   1.23460e-04 DIIS
   @RHF iter   5:  -497.00826561399492   -4.44734e-04   1.89286e-05 DIIS
   @RHF iter   6:  -497.00828068785142   -1.50739e-05   5.96348e-06 DIIS
   @RHF iter   7:  -497.00828231633670   -1.62849e-06   2.11703e-06 DIIS
   @RHF iter   8:  -497.00828263951320   -3.23176e-07   9.73091e-07 DIIS
   @RHF iter   9:  -497.00828273653292   -9.70197e-08   4.59640e-07 DIIS
   @RHF iter  10:  -497.00828276188793   -2.53550e-08   1.93928e-07 DIIS
   @RHF iter  11:  -497.00828276723746   -5.34953e-09   5.87717e-08 DIIS
   @RHF iter  12:  -497.00828276752503   -2.87571e-10   2.64021e-08 DIIS
   @RHF iter  13:  -497.00828276756954   -4.45084e-11   1.03205e-08 DIIS
   @RHF iter  14:  -497.00828276757835   -8.81073e-12   3.68059e-09 DIIS
   @RHF iter  15:  -497.00828276757727    1.08002e-12   1.59595e-09 DIIS
   @RHF iter  16:  -497.00828276758000   -2.72848e-12   5.88222e-10 DIIS
   @RHF iter  17:  -497.00828276757954    4.54747e-13   2.61070e-10 DIIS
   @RHF iter  18:  -497.00828276758114   -1.59162e-12   9.52546e-11 DIIS
  Energy and wave function converged.

  ==> Post-Iterations <==

    Orbital Energies [Eh]
    ---------------------

    Doubly Occupied:

       1A    -20.270872     2A    -20.263527     3A    -11.136432
       4A    -11.129906     5A    -11.122315     6A    -11.121994
       7A    -11.120478     8A    -11.113446     9A    -11.105090
      10A    -11.102718    11A    -11.054328    12A     -1.154880
      13A     -1.042714    14A     -1.040780    15A     -0.935470
      16A     -0.898303    17A     -0.824364    18A     -0.803017
      19A     -0.710383    20A     -0.680840    21A     -0.575636
      22A     -0.520867    23A     -0.515685    24A     -0.507451
      25A     -0.481997    26A     -0.469809    27A     -0.446198
      28A     -0.433768    29A     -0.418399    30A     -0.412721
      31A     -0.409151    32A     -0.374292    33A     -0.373419
      34A     -0.361414    35A     -0.346804    36A     -0.308346
      37A     -0.218423    38A     -0.206682    39A     -0.188577
      40A     -0.179706    41A     -0.167985

    Virtual:

      42A      0.249710    43A      0.258161    44A      0.277974
      45A      0.302485    46A      0.327955    47A      0.340383
      48A      0.343860    49A      0.364317    50A      0.377349
      51A      0.390768    52A      0.405029    53A      0.411575
      54A      0.457418    55A      0.474548    56A      0.482787
      57A      0.487823    58A      0.567612    59A      0.577445
      60A      0.582364    61A      0.585988    62A      0.605283
      63A      0.666203    64A      0.705199    65A      0.711461
      66A      0.729531    67A      0.740386    68A      0.792985
      69A      0.795841    70A      0.809130    71A      0.821940
      72A      0.830667    73A      0.845850    74A      0.849392
      75A      0.856388    76A      0.868502    77A      0.872942
      78A      0.880257    79A      0.890020    80A      0.902240
      81A      0.948673    82A      0.962033    83A      0.964029
      84A      0.972661    85A      0.983442    86A      0.986018
      87A      0.991223    88A      1.016126    89A      1.022636
      90A      1.025238    91A      1.030009    92A      1.032628
      93A      1.038490    94A      1.055703    95A      1.063260
      96A      1.104930    97A      1.122288    98A      1.132912
      99A      1.138947   100A      1.162676   101A      1.205456
     102A      1.245959   103A      1.260010   104A      1.269858
     105A      1.281476   106A      1.305356   107A      1.328244
     108A      1.349535   109A      1.360716   110A      1.362092
     111A      1.375381   112A      1.384791   113A      1.402336
     114A      1.427689   115A      1.431676   116A      1.436986
     117A      1.448812   118A      1.509425   119A      1.547218
     120A      1.560633   121A      1.577060   122A      1.608345
     123A      1.618718   124A      1.640563   125A      1.662379
     126A      1.671395   127A      1.715412   128A      1.724324
     129A      1.739218   130A      1.794021   131A      1.800101
     132A      1.839323   133A      1.852615   134A      1.863255
     135A      1.870011   136A      1.873785   137A      1.902161
     138A      1.925376   139A      1.979263   140A      2.001407
     141A      2.014523   142A      2.017127   143A      2.023697
     144A      2.031917   145A      2.049655   146A      2.057878
     147A      2.071617   148A      2.077997   149A      2.093371
     150A      2.097777   151A      2.105045   152A      2.117967
     153A      2.134126   154A      2.156750   155A      2.166979
     156A      2.180420   157A      2.212646   158A      2.226219
     159A      2.257606   160A      2.268447   161A      2.281776
     162A      2.292797   163A      2.301960   164A      2.310212
     165A      2.341216   166A      2.364106   167A      2.394491
     168A      2.403018   169A      2.411611   170A      2.419550
     171A      2.441331   172A      2.451043   173A      2.511503
     174A      2.571652   175A      2.582963   176A      2.602236
     177A      2.622251   178A      2.656313   179A      2.657584
     180A      2.721775   181A      2.726333   182A      2.756191
     183A      2.845836   184A      2.865939   185A      2.886402
     186A      2.906714   187A      2.915607   188A      2.937271
     189A      2.961333   190A      2.965503   191A      2.983696
     192A      2.998547   193A      3.093818   194A      3.137739
     195A      3.150388   196A      3.237583   197A      3.264745
     198A      3.278373   199A      3.300181   200A      3.330292
     201A      3.355914   202A      3.433564   203A      3.620249
     204A      3.791806   205A      3.830434   206A      4.053503
     207A      4.077287   208A      4.104359   209A      4.187123

    Final Occupation by Irrep:
              A
    DOCC [    41 ]

  @RHF Final Energy:  -497.00828276758114

   => Energetics <=

    Nuclear Repulsion Energy =            539.3773623374330555
    One-Electron Energy =               -1759.6729060777099676
    Two-Electron Energy =                 723.2872609726958899
    Total Energy =                       -497.0082827675811359

Computation Completed

Properties will be evaluated at   0.000000,   0.000000,   0.000000 [a0]

Properties computed using the SCF density matrix

  Nuclear Dipole Moment: [e a0]
     X:     4.6114      Y:     0.3845      Z:    -4.2811

  Electronic Dipole Moment: [e a0]
     X:    -1.2560      Y:    -0.1376      Z:     1.7626

  Dipole Moment: [e a0]
     X:     3.3554      Y:     0.2469      Z:    -2.5185     Total:     4.2027

  Dipole Moment: [D]
     X:     8.5287      Y:     0.6275      Z:    -6.4013     Total:    10.6822

*** tstop() called on ds3 at Tue Apr 28 01:01:39 2020
Module time:
	user time   =      75.00 seconds =       1.25 minutes
	system time =      35.88 seconds =       0.60 minutes
	total time  =        107 seconds =       1.78 minutes
Total time:
	user time   =      75.00 seconds =       1.25 minutes
	system time =      35.88 seconds =       0.60 minutes
	total time  =        107 seconds =       1.78 minutes
                                     G D M A

                                 by Anthony Stone

                           version 2.2.06, 22 June 2011

               Distributed Multipoles from Gaussian wavefunctions

Starting at 1:1:39 on 28 Apr 2020

Using SCF density matrix from file ./SSI/SSI-042GLU-103PHE-1-dimer.test.5874.fchk

                         Distributed Multipole Analysis

Standard DMA

Positions and radii in angstrom
Multipole moments in atomic units, ea_0^k for rank k

C          x = -3.984469  y = -1.409045  z =  0.969535 angstrom
           Maximum rank =  0   Radius =  0.650 angstrom
                   Q00  =  -0.266973

C          x = -2.797469  y = -0.587045  z =  1.415535 angstrom
           Maximum rank =  0   Radius =  0.650 angstrom
                   Q00  =   0.934143

O          x = -1.736469  y = -1.154045  z =  1.737535 angstrom
           Maximum rank =  0   Radius =  0.650 angstrom
                   Q00  =  -0.897917

O          x = -2.964469  y =  0.663955  z =  1.431535 angstrom
           Maximum rank =  0   Radius =  0.650 angstrom
                   Q00  =  -0.936254

H          x = -4.366469  y = -1.009045  z =  0.027535 angstrom
           Maximum rank =  0   Radius =  0.325 angstrom
                   Q00  =   0.063331

H          x = -4.766469  y = -1.320045  z =  1.719535 angstrom
           Maximum rank =  0   Radius =  0.325 angstrom
                   Q00  =   0.078946

H          x = -3.743520  y = -2.472393  z =  0.823815 angstrom
           Maximum rank =  0   Radius =  0.325 angstrom
                   Q00  =   0.042795

C          x =  3.900531  y =  1.668955  z = -0.795465 angstrom
           Maximum rank =  0   Radius =  0.650 angstrom
                   Q00  =  -0.198225

C          x =  0.340531  y =  0.586955  z = -0.184465 angstrom
           Maximum rank =  0   Radius =  0.650 angstrom
                   Q00  =   0.011763

C          x =  1.522531  y =  1.303955  z = -0.104465 angstrom
           Maximum rank =  0   Radius =  0.650 angstrom
                   Q00  =  -0.111021

C          x =  0.287531  y = -0.547045  z = -0.980465 angstrom
           Maximum rank =  0   Radius =  0.650 angstrom
                   Q00  =   0.047359

C          x =  2.634531  y =  0.866955  z = -0.834465 angstrom
           Maximum rank =  0   Radius =  0.650 angstrom
                   Q00  =  -0.073712

C          x =  1.379531  y = -0.994045  z = -1.702465 angstrom
           Maximum rank =  0   Radius =  0.650 angstrom
                   Q00  =  -0.087632

C          x =  2.567531  y = -0.271045  z = -1.622465 angstrom
           Maximum rank =  0   Radius =  0.650 angstrom
                   Q00  =  -0.099850

H          x = -0.530469  y =  0.907955  z =  0.367535 angstrom
           Maximum rank =  0   Radius =  0.325 angstrom
                   Q00  =   0.076532

H          x =  1.575531  y =  2.195955  z =  0.503535 angstrom
           Maximum rank =  0   Radius =  0.325 angstrom
                   Q00  =   0.038445

H          x = -0.639469  y = -1.101045  z = -1.034465 angstrom
           Maximum rank =  0   Radius =  0.325 angstrom
                   Q00  =   0.062866

H          x =  1.310531  y = -1.877045  z = -2.321465 angstrom
           Maximum rank =  0   Radius =  0.325 angstrom
                   Q00  =   0.040313

H          x =  3.636531  y =  2.725955  z = -0.834465 angstrom
           Maximum rank =  0   Radius =  0.325 angstrom
                   Q00  =   0.085138

H          x =  4.462531  y =  1.450955  z = -1.705465 angstrom
           Maximum rank =  0   Radius =  0.325 angstrom
                   Q00  =   0.075301

H          x =  3.429531  y = -0.596045  z = -2.187465 angstrom
           Maximum rank =  0   Radius =  0.325 angstrom
                   Q00  =   0.027307

H          x =  4.574841  y =  1.507438  z =  0.058475 angstrom
           Maximum rank =  0   Radius =  0.325 angstrom
                   Q00  =   0.087348

Total multipoles referred to origin at
           x =   0.000000,  y =    0.000000,  z =    0.000000 angstrom
                   Q00  =  -1.000000

Finished at 1:1:39 on 28 Apr 2020

  DMA results are available in the Python driver through the
	  variable('DMA DISTRIBUTED MULTIPOLES')
  and
	  variable('DMA TOTAL MULTIPOLES')
  commands.

    Psi4 stopped on: Tuesday, 28 April 2020 01:01AM
    Psi4 wall time for execution: 0:01:47.38

*** Psi4 exiting successfully. Buy a developer a beer!
