                               Psi4 1.3.2 release

  ==> Input File <==

--------------------------------------------------------------------------
import numpy as np
set {scf_type pk
basis cc-pvdz
d_convergence 10
gdma_switch   0
gdma_limit    0
gdma_origin   [ 0.0,  0.0,  0.0 ]
}
molecule test {
    units Angstrom
    0 1
    --
    0 1
    C                2.279985161569569    -1.876709531556986     1.787485030495958
    C                2.435985161569570    -3.331709531556986     2.194485030495958
    H                3.122985161569570    -1.280709531556986     2.127485030495957
    H                2.226985161569570    -1.814709531556986     0.699485030495958
    H                1.350985161569569    -1.462709531556986     2.179485030495957
    H                1.527985161569569    -3.862709531556985     1.905485030495958
    H                2.576868161569570    -3.415379531556985     3.282215030495958
    H                3.285825161569569    -3.783609531556985     1.661985030495958
    C               -3.177014838430430     1.199290468443014    -0.856514969504042
    C                0.289985161569570     0.852290468443014     0.636485030495958
    C               -1.080014838430430     1.048290468443014     0.518485030495958
    C                1.056985161569570     0.591290468443014    -0.493514969504042
    C               -1.695014838430430     0.977290468443014    -0.726514969504042
    C                0.448985161569570     0.522290468443014    -1.739514969504042
    C               -0.921014838430430     0.718290468443014    -1.853514969504043
    H                0.757985161569570     0.898290468443014     1.609485030495958
    H               -1.671014838430431     1.252290468443014     1.400485030495958
    H                2.124985161569570     0.447290468443014    -0.404514969504042
    H                1.041985161569570     0.323290468443014    -2.622514969504043
    H               -3.678014838430431     0.767290468443014     0.010485030495958
    H               -3.528014838430430     0.665290468443014    -1.733514969504042
    H               -1.384014838430430     0.664290468443014    -2.828514969504042
    H               -3.455574838430430     2.259700468443014    -0.945544969504042

}
e, wfn = energy('scf', return_wfn=True)
gdma(wfn)
dmavals = variable('DMA DISTRIBUTED MULTIPOLES')
charges = np.array(dmavals)
print(charges)
np.save('SSI-034VAL-048PHE-1-dimer.npy', np.array(charges))--------------------------------------------------------------------------

*** tstart() called on ds3
*** at Sun Apr 26 22:00:53 2020

   => Loading Basis Set <=

    Name: CC-PVDZ
    Role: ORBITAL
    Keyword: BASIS
    atoms 1-2, 9-15  entry C          line   138 file /theoryfs2/ds/metcalf/miniconda2/envs/tf2gpu/share/psi4/basis/cc-pvdz.gbs
    atoms 3-8, 16-23 entry H          line    22 file /theoryfs2/ds/metcalf/miniconda2/envs/tf2gpu/share/psi4/basis/cc-pvdz.gbs

         ---------------------------------------------------------
                                   SCF
               by Justin Turney, Rob Parrish, Andy Simmonett
                          and Daniel G. A. Smith
                              RHF Reference
                        1 Threads,    500 MiB Core
         ---------------------------------------------------------

  ==> Geometry <==

    Molecular point group: c1
    Full point group: C1

    Geometry (in Angstrom), charge = 0, multiplicity = 1:

       Center              X                  Y                   Z               Mass
    ------------   -----------------  -----------------  -----------------  -----------------
         C            2.279985161570    -1.876709531557     1.787485030496    12.000000000000
         C            2.435985161570    -3.331709531557     2.194485030496    12.000000000000
         H            3.122985161570    -1.280709531557     2.127485030496     1.007825032230
         H            2.226985161570    -1.814709531557     0.699485030496     1.007825032230
         H            1.350985161570    -1.462709531557     2.179485030496     1.007825032230
         H            1.527985161570    -3.862709531557     1.905485030496     1.007825032230
         H            2.576868161570    -3.415379531557     3.282215030496     1.007825032230
         H            3.285825161570    -3.783609531557     1.661985030496     1.007825032230
         C           -3.177014838430     1.199290468443    -0.856514969504    12.000000000000
         C            0.289985161570     0.852290468443     0.636485030496    12.000000000000
         C           -1.080014838430     1.048290468443     0.518485030496    12.000000000000
         C            1.056985161570     0.591290468443    -0.493514969504    12.000000000000
         C           -1.695014838430     0.977290468443    -0.726514969504    12.000000000000
         C            0.448985161570     0.522290468443    -1.739514969504    12.000000000000
         C           -0.921014838430     0.718290468443    -1.853514969504    12.000000000000
         H            0.757985161570     0.898290468443     1.609485030496     1.007825032230
         H           -1.671014838430     1.252290468443     1.400485030496     1.007825032230
         H            2.124985161570     0.447290468443    -0.404514969504     1.007825032230
         H            1.041985161570     0.323290468443    -2.622514969504     1.007825032230
         H           -3.678014838430     0.767290468443     0.010485030496     1.007825032230
         H           -3.528014838430     0.665290468443    -1.733514969504     1.007825032230
         H           -1.384014838430     0.664290468443    -2.828514969504     1.007825032230
         H           -3.455574838430     2.259700468443    -0.945544969504     1.007825032230

  Running in c1 symmetry.

  Rotational constants: A =      0.09403  B =      0.02001  C =      0.01860 [cm^-1]
  Rotational constants: A =   2818.88261  B =    599.95942  C =    557.54338 [MHz]
  Nuclear repulsion =  402.957420989170657

  Charge       = 0
  Multiplicity = 1
  Electrons    = 68
  Nalpha       = 34
  Nbeta        = 34

  ==> Algorithm <==

  SCF Algorithm Type is PK.
  DIIS enabled.
  MOM disabled.
  Fractional occupation disabled.
  Guess Type is SAD.
  Energy threshold   = 1.00e-06
  Density threshold  = 1.00e-10
  Integral threshold = 0.00e+00

  ==> Primary Basis <==

  Basis Set: CC-PVDZ
    Blend: CC-PVDZ
    Number of shells: 96
    Number of basis function: 196
    Number of Cartesian functions: 205
    Spherical Harmonics?: true
    Max angular momentum: 2

  ==> Pre-Iterations <==

   -------------------------------------------------------
    Irrep   Nso     Nmo     Nalpha   Nbeta   Ndocc  Nsocc
   -------------------------------------------------------
     A        196     196       0       0       0       0
   -------------------------------------------------------
    Total     196     196      34      34      34       0
   -------------------------------------------------------

  ==> Integral Setup <==

  Using integral reordering PK algorithm.
  Sizing the integral batches needed.
  Building batch lookup table.
   Calculation information:
      Number of atoms:                  23
      Number of AO shells:              96
      Number of primitives:            268
      Number of atomic orbitals:       205
      Number of basis functions:       196

      Integral cutoff                 1.00e-12
      Number of threads:                 1

	Batch   1 pq = [       0,    9405] index = [             0,44231715] size =     44231715
	Batch   2 pq = [    9405,   13301] index = [      44231715,88464951] size =     44233236
	Batch   3 pq = [   13301,   16290] index = [      88464951,132690195] size =     44225244
	Batch   4 pq = [   16290,   18810] index = [     132690195,176917455] size =     44227260
	Batch   5 pq = [   18810,   19306] index = [     176917455,186370471] size =      9453016
  Task number: 17
  Buffer size: 11059200
  Buffer per thread: 2
  We computed 8722641 shell quartets total.
  Whereas there are 10841496 unique shell quartets.

  ==> DiskJK: Disk-Based J/K Matrices <==

    J tasked:                  Yes
    K tasked:                  Yes
    wK tasked:                  No
    Memory [MiB]:              375
    Schwarz Cutoff:          1E-12

    OpenMP threads:              1

  Minimum eigenvalue in the overlap matrix is 3.0602879173E-04.
  Using Symmetric Orthogonalization.

  SCF Guess: Superposition of Atomic Densities via on-the-fly atomic UHF.

  ==> Iterations <==

                        Total Energy        Delta E     RMS |[F,P]|

   @RHF iter SAD:  -347.93139182131904   -3.47931e+02   0.00000e+00
   @RHF iter   1:  -348.76446450629396   -8.33073e-01   2.91350e-03 DIIS
   @RHF iter   2:  -348.95886821452979   -1.94404e-01   1.21202e-03 DIIS
   @RHF iter   3:  -348.98955567137068   -3.06875e-02   2.60763e-04 DIIS
   @RHF iter   4:  -348.99205105889575   -2.49539e-03   5.58128e-05 DIIS
   @RHF iter   5:  -348.99213099362157   -7.99347e-05   1.89372e-05 DIIS
   @RHF iter   6:  -348.99213968138218   -8.68776e-06   4.99047e-06 DIIS
   @RHF iter   7:  -348.99214039184301   -7.10461e-07   1.23337e-06 DIIS
   @RHF iter   8:  -348.99214044182037   -4.99774e-08   2.96696e-07 DIIS
   @RHF iter   9:  -348.99214044740967   -5.58930e-09   1.22568e-07 DIIS
   @RHF iter  10:  -348.99214044856194   -1.15227e-09   5.66233e-08 DIIS
   @RHF iter  11:  -348.99214044897928   -4.17344e-10   2.06795e-08 DIIS
   @RHF iter  12:  -348.99214044903982   -6.05382e-11   8.35882e-09 DIIS
   @RHF iter  13:  -348.99214044904596   -6.13909e-12   3.25623e-09 DIIS
   @RHF iter  14:  -348.99214044904659   -6.25278e-13   7.24918e-10 DIIS
   @RHF iter  15:  -348.99214044904630    2.84217e-13   3.45391e-10 DIIS
   @RHF iter  16:  -348.99214044904642   -1.13687e-13   1.38691e-10 DIIS
   @RHF iter  17:  -348.99214044904687   -4.54747e-13   5.82252e-11 DIIS
  Energy and wave function converged.

  ==> Post-Iterations <==

    Orbital Energies [Eh]
    ---------------------

    Doubly Occupied:

       1A    -11.238689     2A    -11.233948     3A    -11.233675
       4A    -11.229353     5A    -11.228863     6A    -11.228753
       7A    -11.227945     8A    -11.216140     9A    -11.211793
      10A     -1.153748    11A     -1.044493    12A     -1.017852
      13A     -1.012080    14A     -0.931027    15A     -0.833994
      16A     -0.823873    17A     -0.795437    18A     -0.690838
      19A     -0.631685    20A     -0.629067    21A     -0.597468
      22A     -0.595090    23A     -0.582437    24A     -0.576982
      25A     -0.561718    26A     -0.535017    27A     -0.501171
      28A     -0.488329    29A     -0.485689    30A     -0.483111
      31A     -0.480466    32A     -0.476340    33A     -0.332346
      34A     -0.321141

    Virtual:

      35A      0.137277    36A      0.140354    37A      0.178984
      38A      0.192675    39A      0.204527    40A      0.214978
      41A      0.235919    42A      0.246443    43A      0.254474
      44A      0.261455    45A      0.272253    46A      0.283301
      47A      0.286066    48A      0.293886    49A      0.295366
      50A      0.313608    51A      0.374801    52A      0.377574
      53A      0.396181    54A      0.456413    55A      0.468193
      56A      0.481594    57A      0.494134    58A      0.558848
      59A      0.590007    60A      0.598842    61A      0.601853
      62A      0.624419    63A      0.638599    64A      0.667191
      65A      0.677112    66A      0.688361    67A      0.703792
      68A      0.713246    69A      0.725597    70A      0.739180
      71A      0.741855    72A      0.751042    73A      0.756891
      74A      0.763847    75A      0.784423    76A      0.822959
      77A      0.838836    78A      0.854455    79A      0.864083
      80A      0.868668    81A      0.879101    82A      0.892546
      83A      0.895957    84A      0.897773    85A      0.903291
      86A      0.907900    87A      0.918765    88A      0.926690
      89A      0.935721    90A      0.941479    91A      0.949138
      92A      0.966519    93A      0.987741    94A      1.000148
      95A      1.013374    96A      1.063039    97A      1.114893
      98A      1.132505    99A      1.145633   100A      1.147699
     101A      1.156989   102A      1.162840   103A      1.193907
     104A      1.238008   105A      1.244644   106A      1.249329
     107A      1.251319   108A      1.265388   109A      1.302719
     110A      1.310902   111A      1.324282   112A      1.326054
     113A      1.414145   114A      1.477000   115A      1.479482
     116A      1.516170   117A      1.527219   118A      1.558189
     119A      1.589359   120A      1.608056   121A      1.676658
     122A      1.681855   123A      1.697008   124A      1.704193
     125A      1.734133   126A      1.757188   127A      1.768341
     128A      1.791606   129A      1.811795   130A      1.864637
     131A      1.867514   132A      1.870249   133A      1.890416
     134A      1.895220   135A      1.909078   136A      1.915771
     137A      1.920378   138A      1.927273   139A      1.937527
     140A      1.948231   141A      1.949654   142A      1.956496
     143A      1.969770   144A      1.974304   145A      1.980395
     146A      1.993073   147A      2.016622   148A      2.027507
     149A      2.041781   150A      2.068852   151A      2.076425
     152A      2.109306   153A      2.113207   154A      2.120210
     155A      2.147620   156A      2.162172   157A      2.171009
     158A      2.182912   159A      2.192774   160A      2.260749
     161A      2.280353   162A      2.293139   163A      2.303186
     164A      2.308585   165A      2.318573   166A      2.334489
     167A      2.343156   168A      2.459619   169A      2.465972
     170A      2.473263   171A      2.479656   172A      2.500040
     173A      2.547198   174A      2.569487   175A      2.580136
     176A      2.625408   177A      2.740117   178A      2.763071
     179A      2.764184   180A      2.773710   181A      2.789350
     182A      2.794054   183A      2.811123   184A      2.850970
     185A      2.859906   186A      2.861267   187A      2.880265
     188A      2.957276   189A      2.964367   190A      2.990652
     191A      3.015894   192A      3.027413   193A      3.159517
     194A      3.207780   195A      3.303563   196A      3.980025

    Final Occupation by Irrep:
              A
    DOCC [    34 ]

  @RHF Final Energy:  -348.99214044904687

   => Energetics <=

    Nuclear Repulsion Energy =            402.9574209891706573
    One-Electron Energy =               -1268.6380068490311714
    Two-Electron Energy =                 516.6884454108135287
    Total Energy =                       -348.9921404490469286

Computation Completed

Properties will be evaluated at   0.000000,   0.000000,   0.000000 [a0]

Properties computed using the SCF density matrix

  Nuclear Dipole Moment: [e a0]
     X:     4.0311      Y:    -7.8205      Z:     5.9454

  Electronic Dipole Moment: [e a0]
     X:    -4.1755      Y:     7.8569      Z:    -5.9827

  Dipole Moment: [e a0]
     X:    -0.1445      Y:     0.0364      Z:    -0.0373     Total:     0.1536

  Dipole Moment: [D]
     X:    -0.3672      Y:     0.0926      Z:    -0.0947     Total:     0.3903

*** tstop() called on ds3 at Sun Apr 26 22:02:51 2020
Module time:
	user time   =      61.42 seconds =       1.02 minutes
	system time =      27.53 seconds =       0.46 minutes
	total time  =        118 seconds =       1.97 minutes
Total time:
	user time   =      61.42 seconds =       1.02 minutes
	system time =      27.53 seconds =       0.46 minutes
	total time  =        118 seconds =       1.97 minutes
                                     G D M A

                                 by Anthony Stone

                           version 2.2.06, 22 June 2011

               Distributed Multipoles from Gaussian wavefunctions

Starting at 22:2:51 on 26 Apr 2020

Using SCF density matrix from file ./SSI/SSI-034VAL-048PHE-1-dimer.test.22910.fchk

                         Distributed Multipole Analysis

Standard DMA

Positions and radii in angstrom
Multipole moments in atomic units, ea_0^k for rank k

C          x =  2.279985  y = -1.876710  z =  1.787485 angstrom
           Maximum rank =  0   Radius =  0.650 angstrom
                   Q00  =  -0.232648

C          x =  2.435985  y = -3.331710  z =  2.194485 angstrom
           Maximum rank =  0   Radius =  0.650 angstrom
                   Q00  =  -0.232336

H          x =  3.122985  y = -1.280710  z =  2.127485 angstrom
           Maximum rank =  0   Radius =  0.325 angstrom
                   Q00  =   0.073843

H          x =  2.226985  y = -1.814710  z =  0.699485 angstrom
           Maximum rank =  0   Radius =  0.325 angstrom
                   Q00  =   0.080963

H          x =  1.350985  y = -1.462710  z =  2.179485 angstrom
           Maximum rank =  0   Radius =  0.325 angstrom
                   Q00  =   0.080488

H          x =  1.527985  y = -3.862710  z =  1.905485 angstrom
           Maximum rank =  0   Radius =  0.325 angstrom
                   Q00  =   0.079246

H          x =  2.576868  y = -3.415380  z =  3.282215 angstrom
           Maximum rank =  0   Radius =  0.325 angstrom
                   Q00  =   0.076688

H          x =  3.285825  y = -3.783610  z =  1.661985 angstrom
           Maximum rank =  0   Radius =  0.325 angstrom
                   Q00  =   0.076837

C          x = -3.177015  y =  1.199290  z = -0.856515 angstrom
           Maximum rank =  0   Radius =  0.650 angstrom
                   Q00  =  -0.198137

C          x =  0.289985  y =  0.852290  z =  0.636485 angstrom
           Maximum rank =  0   Radius =  0.650 angstrom
                   Q00  =  -0.061071

C          x = -1.080015  y =  1.048290  z =  0.518485 angstrom
           Maximum rank =  0   Radius =  0.650 angstrom
                   Q00  =  -0.092949

C          x =  1.056985  y =  0.591290  z = -0.493515 angstrom
           Maximum rank =  0   Radius =  0.650 angstrom
                   Q00  =  -0.093004

C          x = -1.695015  y =  0.977290  z = -0.726515 angstrom
           Maximum rank =  0   Radius =  0.650 angstrom
                   Q00  =  -0.100743

C          x =  0.448985  y =  0.522290  z = -1.739515 angstrom
           Maximum rank =  0   Radius =  0.650 angstrom
                   Q00  =  -0.068500

C          x = -0.921015  y =  0.718290  z = -1.853515 angstrom
           Maximum rank =  0   Radius =  0.650 angstrom
                   Q00  =   0.007065

H          x =  0.757985  y =  0.898290  z =  1.609485 angstrom
           Maximum rank =  0   Radius =  0.325 angstrom
                   Q00  =   0.066156

H          x = -1.671015  y =  1.252290  z =  1.400485 angstrom
           Maximum rank =  0   Radius =  0.325 angstrom
                   Q00  =   0.055390

H          x =  2.124985  y =  0.447290  z = -0.404515 angstrom
           Maximum rank =  0   Radius =  0.325 angstrom
                   Q00  =   0.062763

H          x =  1.041985  y =  0.323290  z = -2.622515 angstrom
           Maximum rank =  0   Radius =  0.325 angstrom
                   Q00  =   0.064027

H          x = -3.678015  y =  0.767290  z =  0.010485 angstrom
           Maximum rank =  0   Radius =  0.325 angstrom
                   Q00  =   0.097471

H          x = -3.528015  y =  0.665290  z = -1.733515 angstrom
           Maximum rank =  0   Radius =  0.325 angstrom
                   Q00  =   0.097632

H          x = -1.384015  y =  0.664290  z = -2.828515 angstrom
           Maximum rank =  0   Radius =  0.325 angstrom
                   Q00  =   0.055710

H          x = -3.455575  y =  2.259700  z = -0.945545 angstrom
           Maximum rank =  0   Radius =  0.325 angstrom
                   Q00  =   0.105106

Total multipoles referred to origin at
           x =   0.000000,  y =    0.000000,  z =    0.000000 angstrom
                   Q00  =  -0.000000

Finished at 22:2:51 on 26 Apr 2020

  DMA results are available in the Python driver through the
	  variable('DMA DISTRIBUTED MULTIPOLES')
  and
	  variable('DMA TOTAL MULTIPOLES')
  commands.

    Psi4 stopped on: Sunday, 26 April 2020 10:02PM
    Psi4 wall time for execution: 0:01:58.21

*** Psi4 exiting successfully. Buy a developer a beer!
