                               Psi4 1.3.2 release

  ==> Input File <==

--------------------------------------------------------------------------
import numpy as np
set {scf_type pk
basis cc-pvdz
d_convergence 10
gdma_switch   0
gdma_limit    0
gdma_origin   [ 0.0,  0.0,  0.0 ]
}
molecule test {
    units Angstrom
    0 1
    --
    0 1
    C                0.299033244803013     1.101436186835731     1.816070475165188
    C                0.268033244803013    -0.928563813164270     0.342070475165188
    C               -0.443966755196987     0.018436186835730     1.066070475165188
    C               -0.400966755196987    -1.941563813164270    -0.355929524834812
    C               -1.843966755196987    -0.052563813164270     1.088070475165188
    C               -1.798966755196988    -2.012563813164270    -0.320929524834812
    C               -2.521966755196988    -1.069563813164270     0.405070475165188
    H                1.349033244803012    -0.886563813164269     0.313070475165188
    H                0.162033244803013    -2.672563813164269    -0.918929524834812
    H               -0.339966755196987     1.984436186835731     1.842070475165188
    H                1.191033244803013     1.382436186835730     1.258070475165188
    H               -2.414966755196988     0.688436186835730     1.628070475165188
    H               -2.313966755196987    -2.792563813164269    -0.864929524834812
    H               -3.600966755196988    -1.110563813164269     0.436070475165188
    H                0.573853244803013     0.833736186835730     2.847000475165188
    C                2.385033244803012     1.491436186835730    -1.448929524834812
    C                3.124033244803013     2.580436186835730    -2.223929524834812
    H                2.219033244803013     0.616436186835730    -2.081929524834812
    H                2.966033244803012     1.197436186835731    -0.571929524834812
    H                1.417033244803013     1.873436186835731    -1.116929524834812
    H                3.269033244803013     3.422436186835730    -1.542929524834812
    H                2.519463244803013     2.918486186835731    -3.078458524834812
    H                4.120733244803013     2.226116186835731    -2.525675524834812

}
e, wfn = energy('scf', return_wfn=True)
gdma(wfn)
dmavals = variable('DMA DISTRIBUTED MULTIPOLES')
charges = np.array(dmavals)
print(charges)
np.save('SSI-042PHE-089ALA-1-dimer.npy', np.array(charges))--------------------------------------------------------------------------

*** tstart() called on ds3
*** at Mon Apr 27 07:17:28 2020

   => Loading Basis Set <=

    Name: CC-PVDZ
    Role: ORBITAL
    Keyword: BASIS
    atoms 1-7, 16-17  entry C          line   138 file /theoryfs2/ds/metcalf/miniconda2/envs/tf2gpu/share/psi4/basis/cc-pvdz.gbs
    atoms 8-15, 18-23 entry H          line    22 file /theoryfs2/ds/metcalf/miniconda2/envs/tf2gpu/share/psi4/basis/cc-pvdz.gbs

         ---------------------------------------------------------
                                   SCF
               by Justin Turney, Rob Parrish, Andy Simmonett
                          and Daniel G. A. Smith
                              RHF Reference
                        1 Threads,    500 MiB Core
         ---------------------------------------------------------

  ==> Geometry <==

    Molecular point group: c1
    Full point group: C1

    Geometry (in Angstrom), charge = 0, multiplicity = 1:

       Center              X                  Y                   Z               Mass
    ------------   -----------------  -----------------  -----------------  -----------------
         C            0.299033244803     1.101436186836     1.816070475165    12.000000000000
         C            0.268033244803    -0.928563813164     0.342070475165    12.000000000000
         C           -0.443966755197     0.018436186836     1.066070475165    12.000000000000
         C           -0.400966755197    -1.941563813164    -0.355929524835    12.000000000000
         C           -1.843966755197    -0.052563813164     1.088070475165    12.000000000000
         C           -1.798966755197    -2.012563813164    -0.320929524835    12.000000000000
         C           -2.521966755197    -1.069563813164     0.405070475165    12.000000000000
         H            1.349033244803    -0.886563813164     0.313070475165     1.007825032230
         H            0.162033244803    -2.672563813164    -0.918929524835     1.007825032230
         H           -0.339966755197     1.984436186836     1.842070475165     1.007825032230
         H            1.191033244803     1.382436186836     1.258070475165     1.007825032230
         H           -2.414966755197     0.688436186836     1.628070475165     1.007825032230
         H           -2.313966755197    -2.792563813164    -0.864929524835     1.007825032230
         H           -3.600966755197    -1.110563813164     0.436070475165     1.007825032230
         H            0.573853244803     0.833736186836     2.847000475165     1.007825032230
         C            2.385033244803     1.491436186836    -1.448929524835    12.000000000000
         C            3.124033244803     2.580436186836    -2.223929524835    12.000000000000
         H            2.219033244803     0.616436186836    -2.081929524835     1.007825032230
         H            2.966033244803     1.197436186836    -0.571929524835     1.007825032230
         H            1.417033244803     1.873436186836    -1.116929524835     1.007825032230
         H            3.269033244803     3.422436186836    -1.542929524835     1.007825032230
         H            2.519463244803     2.918486186836    -3.078458524835     1.007825032230
         H            4.120733244803     2.226116186836    -2.525675524835     1.007825032230

  Running in c1 symmetry.

  Rotational constants: A =      0.08035  B =      0.02220  C =      0.01936 [cm^-1]
  Rotational constants: A =   2408.80969  B =    665.66854  C =    580.25763 [MHz]
  Nuclear repulsion =  403.852666908202821

  Charge       = 0
  Multiplicity = 1
  Electrons    = 68
  Nalpha       = 34
  Nbeta        = 34

  ==> Algorithm <==

  SCF Algorithm Type is PK.
  DIIS enabled.
  MOM disabled.
  Fractional occupation disabled.
  Guess Type is SAD.
  Energy threshold   = 1.00e-06
  Density threshold  = 1.00e-10
  Integral threshold = 0.00e+00

  ==> Primary Basis <==

  Basis Set: CC-PVDZ
    Blend: CC-PVDZ
    Number of shells: 96
    Number of basis function: 196
    Number of Cartesian functions: 205
    Spherical Harmonics?: true
    Max angular momentum: 2

  ==> Pre-Iterations <==

   -------------------------------------------------------
    Irrep   Nso     Nmo     Nalpha   Nbeta   Ndocc  Nsocc
   -------------------------------------------------------
     A        196     196       0       0       0       0
   -------------------------------------------------------
    Total     196     196      34      34      34       0
   -------------------------------------------------------

  ==> Integral Setup <==

  Using integral reordering PK algorithm.
  Sizing the integral batches needed.
  Building batch lookup table.
   Calculation information:
      Number of atoms:                  23
      Number of AO shells:              96
      Number of primitives:            268
      Number of atomic orbitals:       205
      Number of basis functions:       196

      Integral cutoff                 1.00e-12
      Number of threads:                 1

	Batch   1 pq = [       0,    9405] index = [             0,44231715] size =     44231715
	Batch   2 pq = [    9405,   13301] index = [      44231715,88464951] size =     44233236
	Batch   3 pq = [   13301,   16290] index = [      88464951,132690195] size =     44225244
	Batch   4 pq = [   16290,   18810] index = [     132690195,176917455] size =     44227260
	Batch   5 pq = [   18810,   19306] index = [     176917455,186370471] size =      9453016
  Task number: 17
  Buffer size: 11059200
  Buffer per thread: 2
  We computed 9224939 shell quartets total.
  Whereas there are 10841496 unique shell quartets.

  ==> DiskJK: Disk-Based J/K Matrices <==

    J tasked:                  Yes
    K tasked:                  Yes
    wK tasked:                  No
    Memory [MiB]:              375
    Schwarz Cutoff:          1E-12

    OpenMP threads:              1

  Minimum eigenvalue in the overlap matrix is 3.1727716774E-04.
  Using Symmetric Orthogonalization.

  SCF Guess: Superposition of Atomic Densities via on-the-fly atomic UHF.

  ==> Iterations <==

                        Total Energy        Delta E     RMS |[F,P]|

   @RHF iter SAD:  -347.81253662915469   -3.47813e+02   0.00000e+00
   @RHF iter   1:  -348.76895838383552   -9.56422e-01   2.87356e-03 DIIS
   @RHF iter   2:  -348.95986306130754   -1.90905e-01   1.18485e-03 DIIS
   @RHF iter   3:  -348.98939601119349   -2.95329e-02   2.58406e-04 DIIS
   @RHF iter   4:  -348.99187738315612   -2.48137e-03   5.37068e-05 DIIS
   @RHF iter   5:  -348.99195297575892   -7.55926e-05   1.83944e-05 DIIS
   @RHF iter   6:  -348.99196127545440   -8.29970e-06   4.95503e-06 DIIS
   @RHF iter   7:  -348.99196197156982   -6.96115e-07   1.23906e-06 DIIS
   @RHF iter   8:  -348.99196202131498   -4.97452e-08   2.96653e-07 DIIS
   @RHF iter   9:  -348.99196202629713   -4.98216e-09   1.27643e-07 DIIS
   @RHF iter  10:  -348.99196202730189   -1.00476e-09   5.90170e-08 DIIS
   @RHF iter  11:  -348.99196202768508   -3.83181e-10   2.34364e-08 DIIS
   @RHF iter  12:  -348.99196202775045   -6.53699e-11   9.63352e-09 DIIS
   @RHF iter  13:  -348.99196202776005   -9.60654e-12   3.48056e-09 DIIS
   @RHF iter  14:  -348.99196202776102   -9.66338e-13   6.56665e-10 DIIS
   @RHF iter  15:  -348.99196202776051    5.11591e-13   1.65114e-10 DIIS
   @RHF iter  16:  -348.99196202776079   -2.84217e-13   8.28909e-11 DIIS
  Energy and wave function converged.

  ==> Post-Iterations <==

    Orbital Energies [Eh]
    ---------------------

    Doubly Occupied:

       1A    -11.240334     2A    -11.236152     3A    -11.235873
       4A    -11.232089     5A    -11.231729     6A    -11.229694
       7A    -11.227848     8A    -11.219657     9A    -11.217396
      10A     -1.148587    11A     -1.041466    12A     -1.018811
      13A     -1.008035    14A     -0.929319    15A     -0.836048
      16A     -0.822982    17A     -0.793625    18A     -0.688531
      19A     -0.630004    20A     -0.627887    21A     -0.600816
      22A     -0.597100    23A     -0.580660    24A     -0.575570
      25A     -0.560615    26A     -0.532641    27A     -0.500022
      28A     -0.489458    29A     -0.485380    30A     -0.482282
      31A     -0.481362    32A     -0.478626    33A     -0.329484
      34A     -0.321106

    Virtual:

      35A      0.135730    36A      0.140691    37A      0.176465
      38A      0.192729    39A      0.205602    40A      0.214145
      41A      0.236754    42A      0.242123    43A      0.255817
      44A      0.259994    45A      0.264290    46A      0.274841
      47A      0.283792    48A      0.293264    49A      0.299259
      50A      0.329302    51A      0.361472    52A      0.376570
      53A      0.404272    54A      0.451340    55A      0.461212
      56A      0.484862    57A      0.491607    58A      0.562500
      59A      0.582405    60A      0.600095    61A      0.602944
      62A      0.604432    63A      0.659935    64A      0.678156
      65A      0.684285    66A      0.693199    67A      0.698663
      68A      0.719891    69A      0.734828    70A      0.738109
      71A      0.744346    72A      0.746289    73A      0.758594
      74A      0.774131    75A      0.785943    76A      0.796959
      77A      0.828919    78A      0.843668    79A      0.864083
      80A      0.869308    81A      0.874443    82A      0.887394
      83A      0.892283    84A      0.892827    85A      0.894850
      86A      0.901137    87A      0.913244    88A      0.919761
      89A      0.925412    90A      0.948480    91A      0.966714
      92A      0.976692    93A      0.995853    94A      1.008647
      95A      1.018461    96A      1.053052    97A      1.115637
      98A      1.126941    99A      1.136813   100A      1.149908
     101A      1.155437   102A      1.175718   103A      1.193331
     104A      1.219596   105A      1.239649   106A      1.247465
     107A      1.249745   108A      1.259672   109A      1.300820
     110A      1.306214   111A      1.319812   112A      1.351450
     113A      1.419463   114A      1.473550   115A      1.480656
     116A      1.515112   117A      1.517778   118A      1.554302
     119A      1.586106   120A      1.610267   121A      1.672447
     122A      1.679137   123A      1.695574   124A      1.704041
     125A      1.738662   126A      1.747628   127A      1.757626
     128A      1.788773   129A      1.806509   130A      1.851197
     131A      1.855761   132A      1.880511   133A      1.891542
     134A      1.897169   135A      1.909186   136A      1.912434
     137A      1.918149   138A      1.924657   139A      1.935879
     140A      1.941317   141A      1.948191   142A      1.951570
     143A      1.958665   144A      1.968827   145A      1.974054
     146A      1.989771   147A      1.997428   148A      2.038842
     149A      2.043055   150A      2.064354   151A      2.070490
     152A      2.093123   153A      2.111443   154A      2.119374
     155A      2.144707   156A      2.150145   157A      2.156906
     158A      2.171506   159A      2.177829   160A      2.254461
     161A      2.274253   162A      2.292270   163A      2.298509
     164A      2.308228   165A      2.310137   166A      2.317851
     167A      2.353972   168A      2.457178   169A      2.461921
     170A      2.474615   171A      2.483657   172A      2.495059
     173A      2.539065   174A      2.559220   175A      2.573885
     176A      2.617623   177A      2.736836   178A      2.754095
     179A      2.760768   180A      2.777243   181A      2.782642
     182A      2.788155   183A      2.808849   184A      2.834820
     185A      2.850015   186A      2.862555   187A      2.881702
     188A      2.943763   189A      2.962753   190A      2.976823
     191A      3.002402   192A      3.017686   193A      3.146705
     194A      3.191049   195A      3.287381   196A      3.949961

    Final Occupation by Irrep:
              A
    DOCC [    34 ]

  @RHF Final Energy:  -348.99196202776079

   => Energetics <=

    Nuclear Repulsion Energy =            403.8526669082028207
    One-Electron Energy =               -1270.4268817472509454
    Two-Electron Energy =                 517.5822528112873897
    Total Energy =                       -348.9919620277607919

Computation Completed

Properties will be evaluated at   0.000000,   0.000000,   0.000000 [a0]

Properties computed using the SCF density matrix

  Nuclear Dipole Moment: [e a0]
     X:    10.4222      Y:     9.0758      Z:    -4.1036

  Electronic Dipole Moment: [e a0]
     X:   -10.3666      Y:    -8.9820      Z:     4.1435

  Dipole Moment: [e a0]
     X:     0.0557      Y:     0.0937      Z:     0.0399     Total:     0.1161

  Dipole Moment: [D]
     X:     0.1415      Y:     0.2382      Z:     0.1013     Total:     0.2950

*** tstop() called on ds3 at Mon Apr 27 07:19:54 2020
Module time:
	user time   =      67.03 seconds =       1.12 minutes
	system time =      28.09 seconds =       0.47 minutes
	total time  =        146 seconds =       2.43 minutes
Total time:
	user time   =      67.03 seconds =       1.12 minutes
	system time =      28.09 seconds =       0.47 minutes
	total time  =        146 seconds =       2.43 minutes
                                     G D M A

                                 by Anthony Stone

                           version 2.2.06, 22 June 2011

               Distributed Multipoles from Gaussian wavefunctions

Starting at 7:19:54 on 27 Apr 2020

Using SCF density matrix from file ./SSI/SSI-042PHE-089ALA-1-dimer.test.27051.fchk

                         Distributed Multipole Analysis

Standard DMA

Positions and radii in angstrom
Multipole moments in atomic units, ea_0^k for rank k

C          x =  0.299033  y =  1.101436  z =  1.816070 angstrom
           Maximum rank =  0   Radius =  0.650 angstrom
                   Q00  =  -0.204221

C          x =  0.268033  y = -0.928564  z =  0.342070 angstrom
           Maximum rank =  0   Radius =  0.650 angstrom
                   Q00  =  -0.085387

C          x = -0.443967  y =  0.018436  z =  1.066070 angstrom
           Maximum rank =  0   Radius =  0.650 angstrom
                   Q00  =  -0.102921

C          x = -0.400967  y = -1.941564  z = -0.355930 angstrom
           Maximum rank =  0   Radius =  0.650 angstrom
                   Q00  =  -0.063635

C          x = -1.843967  y = -0.052564  z =  1.088070 angstrom
           Maximum rank =  0   Radius =  0.650 angstrom
                   Q00  =  -0.000751

C          x = -1.798967  y = -2.012564  z = -0.320930 angstrom
           Maximum rank =  0   Radius =  0.650 angstrom
                   Q00  =  -0.087424

C          x = -2.521967  y = -1.069564  z =  0.405070 angstrom
           Maximum rank =  0   Radius =  0.650 angstrom
                   Q00  =  -0.069274

H          x =  1.349033  y = -0.886564  z =  0.313070 angstrom
           Maximum rank =  0   Radius =  0.325 angstrom
                   Q00  =   0.059030

H          x =  0.162033  y = -2.672564  z = -0.918930 angstrom
           Maximum rank =  0   Radius =  0.325 angstrom
                   Q00  =   0.065623

H          x = -0.339967  y =  1.984436  z =  1.842070 angstrom
           Maximum rank =  0   Radius =  0.325 angstrom
                   Q00  =   0.095547

H          x =  1.191033  y =  1.382436  z =  1.258070 angstrom
           Maximum rank =  0   Radius =  0.325 angstrom
                   Q00  =   0.100325

H          x = -2.414967  y =  0.688436  z =  1.628070 angstrom
           Maximum rank =  0   Radius =  0.325 angstrom
                   Q00  =   0.057947

H          x = -2.313967  y = -2.792564  z = -0.864930 angstrom
           Maximum rank =  0   Radius =  0.325 angstrom
                   Q00  =   0.062290

H          x = -3.600967  y = -1.110564  z =  0.436070 angstrom
           Maximum rank =  0   Radius =  0.325 angstrom
                   Q00  =   0.066151

H          x =  0.573853  y =  0.833736  z =  2.847000 angstrom
           Maximum rank =  0   Radius =  0.325 angstrom
                   Q00  =   0.106370

C          x =  2.385033  y =  1.491436  z = -1.448930 angstrom
           Maximum rank =  0   Radius =  0.650 angstrom
                   Q00  =  -0.231236

C          x =  3.124033  y =  2.580436  z = -2.223930 angstrom
           Maximum rank =  0   Radius =  0.650 angstrom
                   Q00  =  -0.240833

H          x =  2.219033  y =  0.616436  z = -2.081930 angstrom
           Maximum rank =  0   Radius =  0.325 angstrom
                   Q00  =   0.081062

H          x =  2.966033  y =  1.197436  z = -0.571930 angstrom
           Maximum rank =  0   Radius =  0.325 angstrom
                   Q00  =   0.071965

H          x =  1.417033  y =  1.873436  z = -1.116930 angstrom
           Maximum rank =  0   Radius =  0.325 angstrom
                   Q00  =   0.082227

H          x =  3.269033  y =  3.422436  z = -1.542930 angstrom
           Maximum rank =  0   Radius =  0.325 angstrom
                   Q00  =   0.075001

H          x =  2.519463  y =  2.918486  z = -3.078459 angstrom
           Maximum rank =  0   Radius =  0.325 angstrom
                   Q00  =   0.082820

H          x =  4.120733  y =  2.226116  z = -2.525676 angstrom
           Maximum rank =  0   Radius =  0.325 angstrom
                   Q00  =   0.079325

Total multipoles referred to origin at
           x =   0.000000,  y =    0.000000,  z =    0.000000 angstrom
                   Q00  =  -0.000000

Finished at 7:19:54 on 27 Apr 2020

  DMA results are available in the Python driver through the
	  variable('DMA DISTRIBUTED MULTIPOLES')
  and
	  variable('DMA TOTAL MULTIPOLES')
  commands.

    Psi4 stopped on: Monday, 27 April 2020 07:19AM
    Psi4 wall time for execution: 0:02:25.32

*** Psi4 exiting successfully. Buy a developer a beer!
