                               Psi4 1.3.2 release

  ==> Input File <==

--------------------------------------------------------------------------
import numpy as np
set {scf_type pk
basis cc-pvdz
d_convergence 10
gdma_switch   0
gdma_limit    0
gdma_origin   [ 0.0,  0.0,  0.0 ]
}
molecule test {
    units Angstrom
    0 1
    --
    0 1
    C                2.874913403670917     0.068984841215375     2.823569208045203
    C                0.038913403670917    -0.795015158784625     0.437569208045203
    C                0.622913403670917    -1.771015158784625    -0.345430791954797
    C                0.759913403670917    -0.199015158784625     1.467569208045203
    C                2.084913403670916    -0.573015158784625     1.710569208045203
    C                1.932913403670917    -2.151015158784625    -0.111430791954797
    C                2.660913403670917    -1.565015158784625     0.925569208045203
    H               -0.992086596329083    -0.529015158784625     0.291569208045203
    H                0.049913403670917    -2.250015158784625    -1.126430791954797
    H                0.291913403670917     0.563984841215375     2.073569208045203
    H                2.381913403670917    -2.932015158784625    -0.696430791954797
    H                2.686913403670917     1.138984841215375     2.804569208045203
    H                3.934913403670917    -0.081015158784625     2.624569208045203
    H                3.677913403670916    -1.883015158784625     1.108569208045203
    H                2.635303403670917    -0.330845158784625     3.819919208045203
    C               -2.501086596329083     1.229984841215375    -1.435430791954797
    C               -3.458086596329083     2.157984841215375    -0.675430791954797
    C               -3.032086596329083     0.959984841215375    -2.841430791954797
    C               -1.096086596329083     1.823984841215375    -1.483430791954796
    H               -2.469086596329083     0.273984841215375    -0.922430791954797
    H               -3.463086596329083     3.111984841215375    -1.203430791954797
    H               -3.199086596329083     1.898984841215375    -3.368430791954796
    H               -2.287086596329083     0.381984841215375    -3.386430791954797
    H               -3.948086596329083     0.368984841215375    -2.814430791954797
    H               -0.697086596329083     1.968984841215375    -0.479430791954797
    H               -0.436086596329083     1.143984841215375    -2.022430791954796
    H               -1.119086596329084     2.772984841215375    -2.007430791954797
    H               -3.137676596329083     2.301644841215375     0.367019208045203
    H               -4.484156596329084     1.761664841215375    -0.685610791954797

}
e, wfn = energy('scf', return_wfn=True)
gdma(wfn)
dmavals = variable('DMA DISTRIBUTED MULTIPOLES')
charges = np.array(dmavals)
print(charges)
np.save('SSI-160PHE-203VAL-1-dimer.npy', np.array(charges))--------------------------------------------------------------------------

*** tstart() called on ds3
*** at Mon Apr 27 22:50:24 2020

   => Loading Basis Set <=

    Name: CC-PVDZ
    Role: ORBITAL
    Keyword: BASIS
    atoms 1-7, 16-19  entry C          line   138 file /theoryfs2/ds/metcalf/miniconda2/envs/tf2gpu/share/psi4/basis/cc-pvdz.gbs
    atoms 8-15, 20-29 entry H          line    22 file /theoryfs2/ds/metcalf/miniconda2/envs/tf2gpu/share/psi4/basis/cc-pvdz.gbs

         ---------------------------------------------------------
                                   SCF
               by Justin Turney, Rob Parrish, Andy Simmonett
                          and Daniel G. A. Smith
                              RHF Reference
                        1 Threads,    500 MiB Core
         ---------------------------------------------------------

  ==> Geometry <==

    Molecular point group: c1
    Full point group: C1

    Geometry (in Angstrom), charge = 0, multiplicity = 1:

       Center              X                  Y                   Z               Mass
    ------------   -----------------  -----------------  -----------------  -----------------
         C            2.874913403671     0.068984841215     2.823569208045    12.000000000000
         C            0.038913403671    -0.795015158785     0.437569208045    12.000000000000
         C            0.622913403671    -1.771015158785    -0.345430791955    12.000000000000
         C            0.759913403671    -0.199015158785     1.467569208045    12.000000000000
         C            2.084913403671    -0.573015158785     1.710569208045    12.000000000000
         C            1.932913403671    -2.151015158785    -0.111430791955    12.000000000000
         C            2.660913403671    -1.565015158785     0.925569208045    12.000000000000
         H           -0.992086596329    -0.529015158785     0.291569208045     1.007825032230
         H            0.049913403671    -2.250015158785    -1.126430791955     1.007825032230
         H            0.291913403671     0.563984841215     2.073569208045     1.007825032230
         H            2.381913403671    -2.932015158785    -0.696430791955     1.007825032230
         H            2.686913403671     1.138984841215     2.804569208045     1.007825032230
         H            3.934913403671    -0.081015158785     2.624569208045     1.007825032230
         H            3.677913403671    -1.883015158785     1.108569208045     1.007825032230
         H            2.635303403671    -0.330845158785     3.819919208045     1.007825032230
         C           -2.501086596329     1.229984841215    -1.435430791955    12.000000000000
         C           -3.458086596329     2.157984841215    -0.675430791955    12.000000000000
         C           -3.032086596329     0.959984841215    -2.841430791955    12.000000000000
         C           -1.096086596329     1.823984841215    -1.483430791955    12.000000000000
         H           -2.469086596329     0.273984841215    -0.922430791955     1.007825032230
         H           -3.463086596329     3.111984841215    -1.203430791955     1.007825032230
         H           -3.199086596329     1.898984841215    -3.368430791955     1.007825032230
         H           -2.287086596329     0.381984841215    -3.386430791955     1.007825032230
         H           -3.948086596329     0.368984841215    -2.814430791955     1.007825032230
         H           -0.697086596329     1.968984841215    -0.479430791955     1.007825032230
         H           -0.436086596329     1.143984841215    -2.022430791955     1.007825032230
         H           -1.119086596329     2.772984841215    -2.007430791955     1.007825032230
         H           -3.137676596329     2.301644841215     0.367019208045     1.007825032230
         H           -4.484156596329     1.761664841215    -0.685610791955     1.007825032230

  Running in c1 symmetry.

  Rotational constants: A =      0.06549  B =      0.01320  C =      0.01173 [cm^-1]
  Rotational constants: A =   1963.21719  B =    395.74337  C =    351.65238 [MHz]
  Nuclear repulsion =  568.458023600417846

  Charge       = 0
  Multiplicity = 1
  Electrons    = 84
  Nalpha       = 42
  Nbeta        = 42

  ==> Algorithm <==

  SCF Algorithm Type is PK.
  DIIS enabled.
  MOM disabled.
  Fractional occupation disabled.
  Guess Type is SAD.
  Energy threshold   = 1.00e-06
  Density threshold  = 1.00e-10
  Integral threshold = 0.00e+00

  ==> Primary Basis <==

  Basis Set: CC-PVDZ
    Blend: CC-PVDZ
    Number of shells: 120
    Number of basis function: 244
    Number of Cartesian functions: 255
    Spherical Harmonics?: true
    Max angular momentum: 2

  ==> Pre-Iterations <==

   -------------------------------------------------------
    Irrep   Nso     Nmo     Nalpha   Nbeta   Ndocc  Nsocc
   -------------------------------------------------------
     A        244     244       0       0       0       0
   -------------------------------------------------------
    Total     244     244      42      42      42       0
   -------------------------------------------------------

  ==> Integral Setup <==

  Using integral reordering PK algorithm.
  Sizing the integral batches needed.
  Building batch lookup table.
   Calculation information:
      Number of atoms:                  29
      Number of AO shells:             120
      Number of primitives:            332
      Number of atomic orbitals:       255
      Number of basis functions:       244

      Integral cutoff                 1.00e-12
      Number of threads:                 1

	Batch   1 pq = [       0,    9405] index = [             0,44231715] size =     44231715
	Batch   2 pq = [    9405,   13301] index = [      44231715,88464951] size =     44233236
	Batch   3 pq = [   13301,   16290] index = [      88464951,132690195] size =     44225244
	Batch   4 pq = [   16290,   18810] index = [     132690195,176917455] size =     44227260
	Batch   5 pq = [   18810,   21030] index = [     176917455,221140965] size =     44223510
	Batch   6 pq = [   21030,   23037] index = [     221140965,265363203] size =     44222238
	Batch   7 pq = [   23037,   24883] index = [     265363203,309594286] size =     44231083
	Batch   8 pq = [   24883,   26601] index = [     309594286,353819901] size =     44225615
	Batch   9 pq = [   26601,   28214] index = [     353819901,398029005] size =     44209104
	Batch  10 pq = [   28214,   29740] index = [     398029005,442248670] size =     44219665
	Batch  11 pq = [   29740,   29890] index = [     442248670,446720995] size =      4472325
  Task number: 41
  Buffer size: 11059200
  Buffer per thread: 2
  We computed 23304704 shell quartets total.
  Whereas there are 26357430 unique shell quartets.

  ==> DiskJK: Disk-Based J/K Matrices <==

    J tasked:                  Yes
    K tasked:                  Yes
    wK tasked:                  No
    Memory [MiB]:              375
    Schwarz Cutoff:          1E-12

    OpenMP threads:              1

  Minimum eigenvalue in the overlap matrix is 3.0482531400E-04.
  Using Symmetric Orthogonalization.

  SCF Guess: Superposition of Atomic Densities via on-the-fly atomic UHF.

  ==> Iterations <==

                        Total Energy        Delta E     RMS |[F,P]|

   @RHF iter SAD:  -426.00391400632071   -4.26004e+02   0.00000e+00
   @RHF iter   1:  -426.77079990869561   -7.66886e-01   2.65632e-03 DIIS
   @RHF iter   2:  -427.02171957994273   -2.50920e-01   1.11848e-03 DIIS
   @RHF iter   3:  -427.06201071485737   -4.02911e-02   2.45201e-04 DIIS
   @RHF iter   4:  -427.06530724542256   -3.29653e-03   5.52393e-05 DIIS
   @RHF iter   5:  -427.06542645456693   -1.19209e-04   1.26057e-05 DIIS
   @RHF iter   6:  -427.06543357019029   -7.11562e-06   3.46666e-06 DIIS
   @RHF iter   7:  -427.06543410825577   -5.38065e-07   1.26690e-06 DIIS
   @RHF iter   8:  -427.06543418638262   -7.81268e-08   3.39084e-07 DIIS
   @RHF iter   9:  -427.06543419930529   -1.29227e-08   1.45354e-07 DIIS
   @RHF iter  10:  -427.06543420269384   -3.38855e-09   7.24774e-08 DIIS
   @RHF iter  11:  -427.06543420357679   -8.82949e-10   2.80965e-08 DIIS
   @RHF iter  12:  -427.06543420372338   -1.46599e-10   9.22278e-09 DIIS
   @RHF iter  13:  -427.06543420373026   -6.87805e-12   3.94863e-09 DIIS
   @RHF iter  14:  -427.06543420372765    2.61480e-12   1.15162e-09 DIIS
   @RHF iter  15:  -427.06543420373174   -4.09273e-12   3.84988e-10 DIIS
   @RHF iter  16:  -427.06543420372861    3.12639e-12   2.04636e-10 DIIS
   @RHF iter  17:  -427.06543420372986   -1.25056e-12   8.53124e-11 DIIS
  Energy and wave function converged.

  ==> Post-Iterations <==

    Orbital Energies [Eh]
    ---------------------

    Doubly Occupied:

       1A    -11.240372     2A    -11.233778     3A    -11.232315
       4A    -11.229776     5A    -11.229629     6A    -11.228714
       7A    -11.228437     8A    -11.222379     9A    -11.215770
      10A    -11.213005    11A    -11.209612    12A     -1.153647
      13A     -1.082244    14A     -1.045446    15A     -1.011542
      16A     -0.931743    17A     -0.926093    18A     -0.924485
      19A     -0.826116    20A     -0.795528    21A     -0.764688
      22A     -0.692065    23A     -0.637800    24A     -0.631585
      25A     -0.626313    26A     -0.588539    27A     -0.585729
      28A     -0.581702    29A     -0.577607    30A     -0.562177
      31A     -0.536904    32A     -0.535763    33A     -0.532362
      34A     -0.506339    35A     -0.488419    36A     -0.485452
      37A     -0.480544    38A     -0.459361    39A     -0.457102
      40A     -0.454352    41A     -0.330976    42A     -0.323111

    Virtual:

      43A      0.134087    44A      0.142604    45A      0.166691
      46A      0.191826    47A      0.200472    48A      0.211135
      49A      0.220537    50A      0.229514    51A      0.248682
      52A      0.250920    53A      0.255823    54A      0.263984
      55A      0.265125    56A      0.278742    57A      0.286363
      58A      0.299715    59A      0.307314    60A      0.310622
      61A      0.332134    62A      0.353592    63A      0.369044
      64A      0.370441    65A      0.384906    66A      0.404268
      67A      0.418120    68A      0.458920    69A      0.472778
      70A      0.479807    71A      0.500997    72A      0.558831
      73A      0.562624    74A      0.569449    75A      0.595112
      76A      0.609358    77A      0.622666    78A      0.638410
      79A      0.644465    80A      0.685858    81A      0.687835
      82A      0.706392    83A      0.709290    84A      0.733860
      85A      0.743854    86A      0.748806    87A      0.750281
      88A      0.757697    89A      0.769913    90A      0.774145
      91A      0.781426    92A      0.790168    93A      0.815247
      94A      0.829886    95A      0.845734    96A      0.857059
      97A      0.863124    98A      0.870422    99A      0.877652
     100A      0.879335   101A      0.887376   102A      0.897926
     103A      0.899209   104A      0.901711   105A      0.906407
     106A      0.912635   107A      0.916571   108A      0.925832
     109A      0.931743   110A      0.939624   111A      0.948375
     112A      0.952788   113A      0.966317   114A      0.977893
     115A      0.986355   116A      0.991507   117A      1.001670
     118A      1.026071   119A      1.065454   120A      1.082246
     121A      1.131192   122A      1.131878   123A      1.137314
     124A      1.139756   125A      1.157943   126A      1.161504
     127A      1.189916   128A      1.193351   129A      1.237496
     130A      1.251421   131A      1.254296   132A      1.285091
     133A      1.299241   134A      1.312521   135A      1.327534
     136A      1.341124   137A      1.377303   138A      1.404223
     139A      1.414976   140A      1.446929   141A      1.510516
     142A      1.520731   143A      1.549684   144A      1.557655
     145A      1.588911   146A      1.616115   147A      1.663199
     148A      1.667847   149A      1.676581   150A      1.683438
     151A      1.685306   152A      1.698898   153A      1.701318
     154A      1.708365   155A      1.727514   156A      1.739632
     157A      1.759199   158A      1.776651   159A      1.798571
     160A      1.814825   161A      1.839612   162A      1.846518
     163A      1.856657   164A      1.869727   165A      1.891301
     166A      1.904253   167A      1.909853   168A      1.920665
     169A      1.929269   170A      1.933494   171A      1.943558
     172A      1.947822   173A      1.951115   174A      1.960615
     175A      1.968086   176A      1.976611   177A      1.982386
     178A      1.988706   179A      1.993539   180A      2.008349
     181A      2.009010   182A      2.033528   183A      2.046982
     184A      2.064962   185A      2.073519   186A      2.085544
     187A      2.091294   188A      2.111439   189A      2.124954
     190A      2.129108   191A      2.141352   192A      2.150121
     193A      2.162433   194A      2.172694   195A      2.183490
     196A      2.188225   197A      2.248933   198A      2.258933
     199A      2.273464   200A      2.281518   201A      2.297481
     202A      2.307593   203A      2.311140   204A      2.324324
     205A      2.325221   206A      2.337833   207A      2.350483
     208A      2.368130   209A      2.384925   210A      2.468597
     211A      2.474801   212A      2.491813   213A      2.509155
     214A      2.543090   215A      2.578886   216A      2.605992
     217A      2.625742   218A      2.646141   219A      2.717901
     220A      2.724737   221A      2.745267   222A      2.756259
     223A      2.772084   224A      2.775022   225A      2.789893
     226A      2.792481   227A      2.798069   228A      2.812324
     229A      2.824411   230A      2.837914   231A      2.849591
     232A      2.857934   233A      2.860290   234A      2.881182
     235A      2.989114   236A      3.009031   237A      3.021218
     238A      3.032534   239A      3.042432   240A      3.125225
     241A      3.160712   242A      3.210910   243A      3.310334
     244A      3.984443

    Final Occupation by Irrep:
              A
    DOCC [    42 ]

  @RHF Final Energy:  -427.06543420372986

   => Energetics <=

    Nuclear Repulsion Energy =            568.4580236004178460
    One-Electron Energy =               -1703.0078720758601776
    Two-Electron Energy =                 707.4844142717124669
    Total Energy =                       -427.0654342037298647

Computation Completed

Properties will be evaluated at   0.000000,   0.000000,   0.000000 [a0]

Properties computed using the SCF density matrix

  Nuclear Dipole Moment: [e a0]
     X:    -9.9126      Y:     9.0768      Z:    -5.2715

  Electronic Dipole Moment: [e a0]
     X:    10.0085      Y:    -9.0855      Z:     5.3821

  Dipole Moment: [e a0]
     X:     0.0958      Y:    -0.0087      Z:     0.1105     Total:     0.1466

  Dipole Moment: [D]
     X:     0.2436      Y:    -0.0222      Z:     0.2810     Total:     0.3725

*** tstop() called on ds3 at Mon Apr 27 22:55:00 2020
Module time:
	user time   =     166.46 seconds =       2.77 minutes
	system time =      73.37 seconds =       1.22 minutes
	total time  =        276 seconds =       4.60 minutes
Total time:
	user time   =     166.46 seconds =       2.77 minutes
	system time =      73.37 seconds =       1.22 minutes
	total time  =        276 seconds =       4.60 minutes
                                     G D M A

                                 by Anthony Stone

                           version 2.2.06, 22 June 2011

               Distributed Multipoles from Gaussian wavefunctions

Starting at 22:55:0 on 27 Apr 2020

Using SCF density matrix from file ./SSI/SSI-160PHE-203VAL-1-dimer.test.29239.fchk

                         Distributed Multipole Analysis

Standard DMA

Positions and radii in angstrom
Multipole moments in atomic units, ea_0^k for rank k

C          x =  2.874913  y =  0.068985  z =  2.823569 angstrom
           Maximum rank =  0   Radius =  0.650 angstrom
                   Q00  =  -0.202809

C          x =  0.038913  y = -0.795015  z =  0.437569 angstrom
           Maximum rank =  0   Radius =  0.650 angstrom
                   Q00  =  -0.032656

C          x =  0.622913  y = -1.771015  z = -0.345431 angstrom
           Maximum rank =  0   Radius =  0.650 angstrom
                   Q00  =  -0.088015

C          x =  0.759913  y = -0.199015  z =  1.467569 angstrom
           Maximum rank =  0   Radius =  0.650 angstrom
                   Q00  =  -0.050132

C          x =  2.084913  y = -0.573015  z =  1.710569 angstrom
           Maximum rank =  0   Radius =  0.650 angstrom
                   Q00  =  -0.097547

C          x =  1.932913  y = -2.151015  z = -0.111431 angstrom
           Maximum rank =  0   Radius =  0.650 angstrom
                   Q00  =  -0.048839

C          x =  2.660913  y = -1.565015  z =  0.925569 angstrom
           Maximum rank =  0   Radius =  0.650 angstrom
                   Q00  =  -0.080725

H          x = -0.992087  y = -0.529015  z =  0.291569 angstrom
           Maximum rank =  0   Radius =  0.325 angstrom
                   Q00  =   0.061901

H          x =  0.049913  y = -2.250015  z = -1.126431 angstrom
           Maximum rank =  0   Radius =  0.325 angstrom
                   Q00  =   0.056798

H          x =  0.291913  y =  0.563985  z =  2.073569 angstrom
           Maximum rank =  0   Radius =  0.325 angstrom
                   Q00  =   0.053912

H          x =  2.381913  y = -2.932015  z = -0.696431 angstrom
           Maximum rank =  0   Radius =  0.325 angstrom
                   Q00  =   0.063786

H          x =  2.686913  y =  1.138985  z =  2.804569 angstrom
           Maximum rank =  0   Radius =  0.325 angstrom
                   Q00  =   0.100073

H          x =  3.934913  y = -0.081015  z =  2.624569 angstrom
           Maximum rank =  0   Radius =  0.325 angstrom
                   Q00  =   0.096979

H          x =  3.677913  y = -1.883015  z =  1.108569 angstrom
           Maximum rank =  0   Radius =  0.325 angstrom
                   Q00  =   0.057997

H          x =  2.635303  y = -0.330845  z =  3.819919 angstrom
           Maximum rank =  0   Radius =  0.325 angstrom
                   Q00  =   0.105000

C          x = -2.501087  y =  1.229985  z = -1.435431 angstrom
           Maximum rank =  0   Radius =  0.650 angstrom
                   Q00  =  -0.002095

C          x = -3.458087  y =  2.157985  z = -0.675431 angstrom
           Maximum rank =  0   Radius =  0.650 angstrom
                   Q00  =  -0.236987

C          x = -3.032087  y =  0.959985  z = -2.841431 angstrom
           Maximum rank =  0   Radius =  0.650 angstrom
                   Q00  =  -0.238720

C          x = -1.096087  y =  1.823985  z = -1.483431 angstrom
           Maximum rank =  0   Radius =  0.650 angstrom
                   Q00  =  -0.235991

H          x = -2.469087  y =  0.273985  z = -0.922431 angstrom
           Maximum rank =  0   Radius =  0.325 angstrom
                   Q00  =   0.003139

H          x = -3.463087  y =  3.111985  z = -1.203431 angstrom
           Maximum rank =  0   Radius =  0.325 angstrom
                   Q00  =   0.074651

H          x = -3.199087  y =  1.898985  z = -3.368431 angstrom
           Maximum rank =  0   Radius =  0.325 angstrom
                   Q00  =   0.075318

H          x = -2.287087  y =  0.381985  z = -3.386431 angstrom
           Maximum rank =  0   Radius =  0.325 angstrom
                   Q00  =   0.077798

H          x = -3.948087  y =  0.368985  z = -2.814431 angstrom
           Maximum rank =  0   Radius =  0.325 angstrom
                   Q00  =   0.082838

H          x = -0.697087  y =  1.968985  z = -0.479431 angstrom
           Maximum rank =  0   Radius =  0.325 angstrom
                   Q00  =   0.083776

H          x = -0.436087  y =  1.143985  z = -2.022431 angstrom
           Maximum rank =  0   Radius =  0.325 angstrom
                   Q00  =   0.084728

H          x = -1.119087  y =  2.772985  z = -2.007431 angstrom
           Maximum rank =  0   Radius =  0.325 angstrom
                   Q00  =   0.076426

H          x = -3.137677  y =  2.301645  z =  0.367019 angstrom
           Maximum rank =  0   Radius =  0.325 angstrom
                   Q00  =   0.080099

H          x = -4.484157  y =  1.761665  z = -0.685611 angstrom
           Maximum rank =  0   Radius =  0.325 angstrom
                   Q00  =   0.079298

Total multipoles referred to origin at
           x =   0.000000,  y =    0.000000,  z =    0.000000 angstrom
                   Q00  =  -0.000000

Finished at 22:55:0 on 27 Apr 2020

  DMA results are available in the Python driver through the
	  variable('DMA DISTRIBUTED MULTIPOLES')
  and
	  variable('DMA TOTAL MULTIPOLES')
  commands.

    Psi4 stopped on: Monday, 27 April 2020 10:55PM
    Psi4 wall time for execution: 0:04:36.28

*** Psi4 exiting successfully. Buy a developer a beer!
