                               Psi4 1.3.2 release

  ==> Input File <==

--------------------------------------------------------------------------
import numpy as np
set {scf_type pk
basis cc-pvdz
d_convergence 10
gdma_switch   0
gdma_limit    0
gdma_origin   [ 0.0,  0.0,  0.0 ]
}
molecule test {
    units Angstrom
    0 1
    --
    0 1
    C                1.976038335782750    -0.640968270405209     1.828228596515246
    C                2.987038335782750    -1.659968270405209     1.379228596515246
    C                2.327038335782750    -0.455968270405209     3.259228596515246
    H                1.014038335782750    -1.123968270405209     1.761228596515245
    H                2.048038335782751     0.289031729594791     1.266228596515246
    H                2.725038335782750    -2.654968270405209     1.745228596515246
    H                3.030038335782750    -1.647968270405209     0.305228596515246
    H                1.980038335782750    -1.338968270405209     3.774228596515246
    H                1.880038335782751     0.448031729594791     3.664228596515246
    H                3.893827335782750    -1.293634270405209     1.882748596515246
    H                3.426909335782751    -0.439347270405209     3.256338596515246
    C               -1.219961664217250     2.348031729594791     1.243228596515246
    C               -0.785961664217250     0.021031729594791     0.467228596515246
    C               -1.066961664217249     1.342031729594791     0.155228596515246
    C               -0.662961664217250    -0.926968270405209    -0.552771403484754
    C               -1.288961664217249     1.711031729594791    -1.177771403484754
    C               -0.894961664217250    -0.544968270405209    -1.876771403484754
    C               -1.208961664217249     0.773031729594791    -2.204771403484754
    O               -0.820961664217250    -1.503968270405209    -2.836771403484754
    H               -0.767961664217250    -0.274968270405209     1.505228596515246
    H               -0.453961664217250    -1.961968270405209    -0.322771403484754
    H               -0.814961664217250     3.302031729594791     0.903228596515246
    H               -0.644961664217250     2.033031729594791     2.112228596515246
    H               -1.540961664217249     2.733031729594791    -1.408771403484754
    H               -1.390961664217250     1.064031729594791    -3.229771403484754
    H               -0.998961664217250    -1.157968270405209    -3.716771403484754
    H               -2.277541664217249     2.481033729594791     1.514948596515246

}
e, wfn = energy('scf', return_wfn=True)
gdma(wfn)
dmavals = variable('DMA DISTRIBUTED MULTIPOLES')
charges = np.array(dmavals)
print(charges)
np.save('SSI-117PRO-129TYR-1-dimer.npy', np.array(charges))--------------------------------------------------------------------------

*** tstart() called on ds3
*** at Sun Apr 26 22:16:56 2020

   => Loading Basis Set <=

    Name: CC-PVDZ
    Role: ORBITAL
    Keyword: BASIS
    atoms 1-3, 12-18  entry C          line   138 file /theoryfs2/ds/metcalf/miniconda2/envs/tf2gpu/share/psi4/basis/cc-pvdz.gbs
    atoms 4-11, 20-27 entry H          line    22 file /theoryfs2/ds/metcalf/miniconda2/envs/tf2gpu/share/psi4/basis/cc-pvdz.gbs
    atoms 19          entry O          line   198 file /theoryfs2/ds/metcalf/miniconda2/envs/tf2gpu/share/psi4/basis/cc-pvdz.gbs

         ---------------------------------------------------------
                                   SCF
               by Justin Turney, Rob Parrish, Andy Simmonett
                          and Daniel G. A. Smith
                              RHF Reference
                        1 Threads,    500 MiB Core
         ---------------------------------------------------------

  ==> Geometry <==

    Molecular point group: c1
    Full point group: C1

    Geometry (in Angstrom), charge = 0, multiplicity = 1:

       Center              X                  Y                   Z               Mass
    ------------   -----------------  -----------------  -----------------  -----------------
         C            1.976038335783    -0.640968270405     1.828228596515    12.000000000000
         C            2.987038335783    -1.659968270405     1.379228596515    12.000000000000
         C            2.327038335783    -0.455968270405     3.259228596515    12.000000000000
         H            1.014038335783    -1.123968270405     1.761228596515     1.007825032230
         H            2.048038335783     0.289031729595     1.266228596515     1.007825032230
         H            2.725038335783    -2.654968270405     1.745228596515     1.007825032230
         H            3.030038335783    -1.647968270405     0.305228596515     1.007825032230
         H            1.980038335783    -1.338968270405     3.774228596515     1.007825032230
         H            1.880038335783     0.448031729595     3.664228596515     1.007825032230
         H            3.893827335783    -1.293634270405     1.882748596515     1.007825032230
         H            3.426909335783    -0.439347270405     3.256338596515     1.007825032230
         C           -1.219961664217     2.348031729595     1.243228596515    12.000000000000
         C           -0.785961664217     0.021031729595     0.467228596515    12.000000000000
         C           -1.066961664217     1.342031729595     0.155228596515    12.000000000000
         C           -0.662961664217    -0.926968270405    -0.552771403485    12.000000000000
         C           -1.288961664217     1.711031729595    -1.177771403485    12.000000000000
         C           -0.894961664217    -0.544968270405    -1.876771403485    12.000000000000
         C           -1.208961664217     0.773031729595    -2.204771403485    12.000000000000
         O           -0.820961664217    -1.503968270405    -2.836771403485    15.994914619570
         H           -0.767961664217    -0.274968270405     1.505228596515     1.007825032230
         H           -0.453961664217    -1.961968270405    -0.322771403485     1.007825032230
         H           -0.814961664217     3.302031729595     0.903228596515     1.007825032230
         H           -0.644961664217     2.033031729595     2.112228596515     1.007825032230
         H           -1.540961664217     2.733031729595    -1.408771403485     1.007825032230
         H           -1.390961664217     1.064031729595    -3.229771403485     1.007825032230
         H           -0.998961664217    -1.157968270405    -3.716771403485     1.007825032230
         H           -2.277541664217     2.481033729595     1.514948596515     1.007825032230

  Running in c1 symmetry.

  Rotational constants: A =      0.04287  B =      0.01971  C =      0.01441 [cm^-1]
  Rotational constants: A =   1285.35575  B =    591.01356  C =    431.96102 [MHz]
  Nuclear repulsion =  588.425955981755919

  Charge       = 0
  Multiplicity = 1
  Electrons    = 84
  Nalpha       = 42
  Nbeta        = 42

  ==> Algorithm <==

  SCF Algorithm Type is PK.
  DIIS enabled.
  MOM disabled.
  Fractional occupation disabled.
  Guess Type is SAD.
  Energy threshold   = 1.00e-06
  Density threshold  = 1.00e-10
  Integral threshold = 0.00e+00

  ==> Primary Basis <==

  Basis Set: CC-PVDZ
    Blend: CC-PVDZ
    Number of shells: 114
    Number of basis function: 234
    Number of Cartesian functions: 245
    Spherical Harmonics?: true
    Max angular momentum: 2

  ==> Pre-Iterations <==

   -------------------------------------------------------
    Irrep   Nso     Nmo     Nalpha   Nbeta   Ndocc  Nsocc
   -------------------------------------------------------
     A        234     234       0       0       0       0
   -------------------------------------------------------
    Total     234     234      42      42      42       0
   -------------------------------------------------------

  ==> Integral Setup <==

  Using integral reordering PK algorithm.
  Sizing the integral batches needed.
  Building batch lookup table.
   Calculation information:
      Number of atoms:                  27
      Number of AO shells:             114
      Number of primitives:            322
      Number of atomic orbitals:       245
      Number of basis functions:       234

      Integral cutoff                 1.00e-12
      Number of threads:                 1

	Batch   1 pq = [       0,    9405] index = [             0,44231715] size =     44231715
	Batch   2 pq = [    9405,   13301] index = [      44231715,88464951] size =     44233236
	Batch   3 pq = [   13301,   16290] index = [      88464951,132690195] size =     44225244
	Batch   4 pq = [   16290,   18810] index = [     132690195,176917455] size =     44227260
	Batch   5 pq = [   18810,   21030] index = [     176917455,221140965] size =     44223510
	Batch   6 pq = [   21030,   23037] index = [     221140965,265363203] size =     44222238
	Batch   7 pq = [   23037,   24883] index = [     265363203,309594286] size =     44231083
	Batch   8 pq = [   24883,   26601] index = [     309594286,353819901] size =     44225615
	Batch   9 pq = [   26601,   27495] index = [     353819901,378001260] size =     24181359
  Task number: 35
  Buffer size: 11059200
  Buffer per thread: 2
  We computed 20422050 shell quartets total.
  Whereas there are 21487290 unique shell quartets.

  ==> DiskJK: Disk-Based J/K Matrices <==

    J tasked:                  Yes
    K tasked:                  Yes
    wK tasked:                  No
    Memory [MiB]:              375
    Schwarz Cutoff:          1E-12

    OpenMP threads:              1

  Minimum eigenvalue in the overlap matrix is 3.3098321398E-04.
  Using Symmetric Orthogonalization.

  SCF Guess: Superposition of Atomic Densities via on-the-fly atomic UHF.

  ==> Iterations <==

                        Total Energy        Delta E     RMS |[F,P]|

   @RHF iter SAD:  -462.05840404449759   -4.62058e+02   0.00000e+00
   @RHF iter   1:  -462.56066758926545   -5.02264e-01   2.90073e-03 DIIS
   @RHF iter   2:  -462.81269074652880   -2.52023e-01   1.25054e-03 DIIS
   @RHF iter   3:  -462.85582738538494   -4.31366e-02   2.78962e-04 DIIS
   @RHF iter   4:  -462.85921993928946   -3.39255e-03   1.10277e-04 DIIS
   @RHF iter   5:  -462.85961006842263   -3.90129e-04   2.08343e-05 DIIS
   @RHF iter   6:  -462.85963121186728   -2.11434e-05   6.86646e-06 DIIS
   @RHF iter   7:  -462.85963373060389   -2.51874e-06   2.15881e-06 DIIS
   @RHF iter   8:  -462.85963412568793   -3.95084e-07   9.17954e-07 DIIS
   @RHF iter   9:  -462.85963421516038   -8.94725e-08   4.54189e-07 DIIS
   @RHF iter  10:  -462.85963423874136   -2.35810e-08   1.99483e-07 DIIS
   @RHF iter  11:  -462.85963424555393   -6.81257e-09   6.94215e-08 DIIS
   @RHF iter  12:  -462.85963424617682   -6.22890e-10   2.84512e-08 DIIS
   @RHF iter  13:  -462.85963424624214   -6.53131e-11   8.84985e-09 DIIS
   @RHF iter  14:  -462.85963424625027   -8.12861e-12   2.15624e-09 DIIS
   @RHF iter  15:  -462.85963424624578    4.49063e-12   6.99204e-10 DIIS
   @RHF iter  16:  -462.85963424624686   -1.08002e-12   2.24614e-10 DIIS
   @RHF iter  17:  -462.85963424624617    6.82121e-13   9.67594e-11 DIIS
  Energy and wave function converged.

  ==> Post-Iterations <==

    Orbital Energies [Eh]
    ---------------------

    Doubly Occupied:

       1A    -20.581723     2A    -11.299488     3A    -11.238644
       4A    -11.235228     5A    -11.233558     6A    -11.228614
       7A    -11.228382     8A    -11.225112     9A    -11.206095
      10A    -11.204803    11A    -11.202392    12A     -1.400387
      13A     -1.149647    14A     -1.077079    15A     -1.038361
      16A     -1.017359    17A     -0.924239    18A     -0.912180
      19A     -0.845458    20A     -0.802126    21A     -0.791602
      22A     -0.731670    23A     -0.667095    24A     -0.647266
      25A     -0.640432    26A     -0.616463    27A     -0.605896
      28A     -0.589172    29A     -0.586182    30A     -0.571951
      31A     -0.567675    32A     -0.541690    33A     -0.524627
      34A     -0.507358    35A     -0.498182    36A     -0.487098
      37A     -0.479492    38A     -0.472112    39A     -0.458810
      40A     -0.450519    41A     -0.335804    42A     -0.298309

    Virtual:

      43A      0.127964    44A      0.157436    45A      0.169802
      46A      0.180320    47A      0.191178    48A      0.206932
      49A      0.224491    50A      0.231632    51A      0.235963
      52A      0.254250    53A      0.263564    54A      0.270132
      55A      0.279945    56A      0.287859    57A      0.294968
      58A      0.326684    59A      0.332570    60A      0.348516
      61A      0.371940    62A      0.376557    63A      0.396247
      64A      0.429116    65A      0.436100    66A      0.455222
      67A      0.494475    68A      0.503848    69A      0.504691
      70A      0.587362    71A      0.596554    72A      0.604179
      73A      0.610933    74A      0.617738    75A      0.651612
      76A      0.661310    77A      0.672173    78A      0.680207
      79A      0.687558    80A      0.694580    81A      0.711881
      82A      0.728720    83A      0.740297    84A      0.771407
      85A      0.775670    86A      0.780329    87A      0.783851
      88A      0.793211    89A      0.813344    90A      0.830990
      91A      0.843234    92A      0.852280    93A      0.856757
      94A      0.869120    95A      0.879062    96A      0.884564
      97A      0.888982    98A      0.894949    99A      0.900025
     100A      0.905984   101A      0.915211   102A      0.918194
     103A      0.925861   104A      0.934171   105A      0.937908
     106A      0.955630   107A      0.973467   108A      0.979479
     109A      0.990926   110A      1.000720   111A      1.007664
     112A      1.022609   113A      1.049542   114A      1.070621
     115A      1.116032   116A      1.135523   117A      1.142731
     118A      1.150233   119A      1.171974   120A      1.183619
     121A      1.200545   122A      1.224105   123A      1.246632
     124A      1.251848   125A      1.278567   126A      1.289312
     127A      1.299021   128A      1.308381   129A      1.350999
     130A      1.360193   131A      1.376016   132A      1.387263
     133A      1.427803   134A      1.471600   135A      1.502445
     136A      1.520178   137A      1.528094   138A      1.547964
     139A      1.576179   140A      1.617822   141A      1.619621
     142A      1.624633   143A      1.650191   144A      1.654610
     145A      1.691364   146A      1.706515   147A      1.729234
     148A      1.740817   149A      1.755729   150A      1.757014
     151A      1.789879   152A      1.796071   153A      1.815806
     154A      1.830338   155A      1.845334   156A      1.869795
     157A      1.883622   158A      1.891506   159A      1.899346
     160A      1.909723   161A      1.915099   162A      1.922126
     163A      1.926905   164A      1.935152   165A      1.941409
     166A      1.949202   167A      1.970954   168A      1.979756
     169A      1.990294   170A      2.003862   171A      2.021075
     172A      2.031184   173A      2.042116   174A      2.046117
     175A      2.069735   176A      2.076478   177A      2.080148
     178A      2.108488   179A      2.113739   180A      2.148344
     181A      2.151222   182A      2.166122   183A      2.170683
     184A      2.189983   185A      2.200214   186A      2.207690
     187A      2.234254   188A      2.259683   189A      2.272627
     190A      2.288655   191A      2.317892   192A      2.325017
     193A      2.341335   194A      2.359282   195A      2.373205
     196A      2.420663   197A      2.454399   198A      2.470364
     199A      2.479601   200A      2.486277   201A      2.497559
     202A      2.517767   203A      2.534315   204A      2.557771
     205A      2.572049   206A      2.615428   207A      2.642028
     208A      2.677469   209A      2.722386   210A      2.751674
     211A      2.774975   212A      2.779767   213A      2.795408
     214A      2.805699   215A      2.813171   216A      2.819374
     217A      2.840937   218A      2.857588   219A      2.909391
     220A      2.936150   221A      2.953657   222A      2.958369
     223A      3.000755   224A      3.013652   225A      3.077092
     226A      3.092203   227A      3.123941   228A      3.247986
     229A      3.278890   230A      3.352269   231A      3.573514
     232A      3.682628   233A      3.967820   234A      4.198801

    Final Occupation by Irrep:
              A
    DOCC [    42 ]

  @RHF Final Energy:  -462.85963424624617

   => Energetics <=

    Nuclear Repulsion Energy =            588.4259559817559193
    One-Electron Energy =               -1794.3306150279513531
    Two-Electron Energy =                 743.0450247999491467
    Total Energy =                       -462.8596342462461735

Computation Completed

Properties will be evaluated at   0.000000,   0.000000,   0.000000 [a0]

Properties computed using the SCF density matrix

  Nuclear Dipole Moment: [e a0]
     X:    10.4092      Y:     0.4207      Z:    14.0606

  Electronic Dipole Moment: [e a0]
     X:   -10.6648      Y:     0.0686      Z:   -14.3765

  Dipole Moment: [e a0]
     X:    -0.2556      Y:     0.4893      Z:    -0.3159     Total:     0.6361

  Dipole Moment: [D]
     X:    -0.6496      Y:     1.2438      Z:    -0.8029     Total:     1.6167

*** tstop() called on ds3 at Sun Apr 26 22:20:17 2020
Module time:
	user time   =     151.43 seconds =       2.52 minutes
	system time =      56.07 seconds =       0.93 minutes
	total time  =        201 seconds =       3.35 minutes
Total time:
	user time   =     151.43 seconds =       2.52 minutes
	system time =      56.07 seconds =       0.93 minutes
	total time  =        201 seconds =       3.35 minutes
                                     G D M A

                                 by Anthony Stone

                           version 2.2.06, 22 June 2011

               Distributed Multipoles from Gaussian wavefunctions

Starting at 22:20:18 on 26 Apr 2020

Using SCF density matrix from file ./SSI/SSI-117PRO-129TYR-1-dimer.test.21292.fchk

                         Distributed Multipole Analysis

Standard DMA

Positions and radii in angstrom
Multipole moments in atomic units, ea_0^k for rank k

C          x =  1.976038  y = -0.640968  z =  1.828229 angstrom
           Maximum rank =  0   Radius =  0.650 angstrom
                   Q00  =  -0.066543

C          x =  2.987038  y = -1.659968  z =  1.379229 angstrom
           Maximum rank =  0   Radius =  0.650 angstrom
                   Q00  =  -0.209205

C          x =  2.327038  y = -0.455968  z =  3.259229 angstrom
           Maximum rank =  0   Radius =  0.650 angstrom
                   Q00  =  -0.209138

H          x =  1.014038  y = -1.123968  z =  1.761229 angstrom
           Maximum rank =  0   Radius =  0.325 angstrom
                   Q00  =   0.025098

H          x =  2.048038  y =  0.289032  z =  1.266229 angstrom
           Maximum rank =  0   Radius =  0.325 angstrom
                   Q00  =   0.056581

H          x =  2.725038  y = -2.654968  z =  1.745229 angstrom
           Maximum rank =  0   Radius =  0.325 angstrom
                   Q00  =   0.073250

H          x =  3.030038  y = -1.647968  z =  0.305229 angstrom
           Maximum rank =  0   Radius =  0.325 angstrom
                   Q00  =   0.072781

H          x =  1.980038  y = -1.338968  z =  3.774229 angstrom
           Maximum rank =  0   Radius =  0.325 angstrom
                   Q00  =   0.077957

H          x =  1.880038  y =  0.448032  z =  3.664229 angstrom
           Maximum rank =  0   Radius =  0.325 angstrom
                   Q00  =   0.073597

H          x =  3.893827  y = -1.293634  z =  1.882749 angstrom
           Maximum rank =  0   Radius =  0.325 angstrom
                   Q00  =   0.051143

H          x =  3.426909  y = -0.439347  z =  3.256339 angstrom
           Maximum rank =  0   Radius =  0.325 angstrom
                   Q00  =   0.046199

C          x = -1.219962  y =  2.348032  z =  1.243229 angstrom
           Maximum rank =  0   Radius =  0.650 angstrom
                   Q00  =  -0.187547

C          x = -0.785962  y =  0.021032  z =  0.467229 angstrom
           Maximum rank =  0   Radius =  0.650 angstrom
                   Q00  =  -0.031224

C          x = -1.066962  y =  1.342032  z =  0.155229 angstrom
           Maximum rank =  0   Radius =  0.650 angstrom
                   Q00  =  -0.130042

C          x = -0.662962  y = -0.926968  z = -0.552771 angstrom
           Maximum rank =  0   Radius =  0.650 angstrom
                   Q00  =  -0.133996

C          x = -1.288962  y =  1.711032  z = -1.177771 angstrom
           Maximum rank =  0   Radius =  0.650 angstrom
                   Q00  =   0.023318

C          x = -0.894962  y = -0.544968  z = -1.876771 angstrom
           Maximum rank =  0   Radius =  0.650 angstrom
                   Q00  =   0.360816

C          x = -1.208962  y =  0.773032  z = -2.204771 angstrom
           Maximum rank =  0   Radius =  0.650 angstrom
                   Q00  =  -0.204596

O          x = -0.820962  y = -1.503968  z = -2.836771 angstrom
           Maximum rank =  0   Radius =  0.650 angstrom
                   Q00  =  -0.665572

H          x = -0.767962  y = -0.274968  z =  1.505229 angstrom
           Maximum rank =  0   Radius =  0.325 angstrom
                   Q00  =   0.065246

H          x = -0.453962  y = -1.961968  z = -0.322771 angstrom
           Maximum rank =  0   Radius =  0.325 angstrom
                   Q00  =   0.080632

H          x = -0.814962  y =  3.302032  z =  0.903229 angstrom
           Maximum rank =  0   Radius =  0.325 angstrom
                   Q00  =   0.094404

H          x = -0.644962  y =  2.033032  z =  2.112229 angstrom
           Maximum rank =  0   Radius =  0.325 angstrom
                   Q00  =   0.095033

H          x = -1.540962  y =  2.733032  z = -1.408771 angstrom
           Maximum rank =  0   Radius =  0.325 angstrom
                   Q00  =   0.066650

H          x = -1.390962  y =  1.064032  z = -3.229771 angstrom
           Maximum rank =  0   Radius =  0.325 angstrom
                   Q00  =   0.074779

H          x = -0.998962  y = -1.157968  z = -3.716771 angstrom
           Maximum rank =  0   Radius =  0.325 angstrom
                   Q00  =   0.404505

H          x = -2.277542  y =  2.481034  z =  1.514949 angstrom
           Maximum rank =  0   Radius =  0.325 angstrom
                   Q00  =   0.095871

Total multipoles referred to origin at
           x =   0.000000,  y =    0.000000,  z =    0.000000 angstrom
                   Q00  =  -0.000000

Finished at 22:20:18 on 26 Apr 2020

  DMA results are available in the Python driver through the
	  variable('DMA DISTRIBUTED MULTIPOLES')
  and
	  variable('DMA TOTAL MULTIPOLES')
  commands.

    Psi4 stopped on: Sunday, 26 April 2020 10:20PM
    Psi4 wall time for execution: 0:03:22.10

*** Psi4 exiting successfully. Buy a developer a beer!
