                               Psi4 1.3.2 release

  ==> Input File <==

--------------------------------------------------------------------------
import numpy as np
set {scf_type pk
basis cc-pvdz
d_convergence 10
gdma_switch   0
gdma_limit    0
gdma_origin   [ 0.0,  0.0,  0.0 ]
}
molecule test {
    units Angstrom
    0 1
    --
    0 1
    C               -1.212254769105533     1.749151375577994     1.489472892858771
    O               -0.150254769105533     1.141151375577994     0.770472892858771
    H                0.677745230894467     1.473151375577994     1.146472892858771
    H               -1.329254769105533     2.775151375577994     1.141472892858771
    H               -2.145994769105533     1.196511375577994     1.308612892858771
    H               -0.966034769105533     1.774501375577994     2.561262892858771
    C                0.574745230894467    -1.823848624422006    -0.508527107141229
    C                0.803745230894467    -1.270848624422006    -1.914527107141229
    H               -0.469254769105533    -1.699848624422006    -0.224527107141229
    H                0.829745230894467    -2.884848624422006    -0.483527107141229
    H                1.206745230894467    -1.292848624422006     0.204472892858771
    H                1.861745230894467    -1.378848624422006    -2.161527107141229
    H                0.523545230894467    -0.208028624422006    -1.958217107141229
    H                0.216325230894467    -1.844608624422006    -2.646467107141229

}
e, wfn = energy('scf', return_wfn=True)
gdma(wfn)
dmavals = variable('DMA DISTRIBUTED MULTIPOLES')
charges = np.array(dmavals)
print(charges)
np.save('SSI-045THR-048ALA-2-dimer.npy', np.array(charges))--------------------------------------------------------------------------

*** tstart() called on ds3
*** at Mon Apr 27 17:48:04 2020

   => Loading Basis Set <=

    Name: CC-PVDZ
    Role: ORBITAL
    Keyword: BASIS
    atoms 1, 7-8    entry C          line   138 file /theoryfs2/ds/metcalf/miniconda2/envs/tf2gpu/share/psi4/basis/cc-pvdz.gbs
    atoms 2         entry O          line   198 file /theoryfs2/ds/metcalf/miniconda2/envs/tf2gpu/share/psi4/basis/cc-pvdz.gbs
    atoms 3-6, 9-14 entry H          line    22 file /theoryfs2/ds/metcalf/miniconda2/envs/tf2gpu/share/psi4/basis/cc-pvdz.gbs

         ---------------------------------------------------------
                                   SCF
               by Justin Turney, Rob Parrish, Andy Simmonett
                          and Daniel G. A. Smith
                              RHF Reference
                        1 Threads,    500 MiB Core
         ---------------------------------------------------------

  ==> Geometry <==

    Molecular point group: c1
    Full point group: C1

    Geometry (in Angstrom), charge = 0, multiplicity = 1:

       Center              X                  Y                   Z               Mass
    ------------   -----------------  -----------------  -----------------  -----------------
         C           -1.212254769106     1.749151375578     1.489472892859    12.000000000000
         O           -0.150254769106     1.141151375578     0.770472892859    15.994914619570
         H            0.677745230894     1.473151375578     1.146472892859     1.007825032230
         H           -1.329254769106     2.775151375578     1.141472892859     1.007825032230
         H           -2.145994769106     1.196511375578     1.308612892859     1.007825032230
         H           -0.966034769106     1.774501375578     2.561262892859     1.007825032230
         C            0.574745230894    -1.823848624422    -0.508527107141    12.000000000000
         C            0.803745230894    -1.270848624422    -1.914527107141    12.000000000000
         H           -0.469254769106    -1.699848624422    -0.224527107141     1.007825032230
         H            0.829745230894    -2.884848624422    -0.483527107141     1.007825032230
         H            1.206745230894    -1.292848624422     0.204472892859     1.007825032230
         H            1.861745230894    -1.378848624422    -2.161527107141     1.007825032230
         H            0.523545230894    -0.208028624422    -1.958217107141     1.007825032230
         H            0.216325230894    -1.844608624422    -2.646467107141     1.007825032230

  Running in c1 symmetry.

  Rotational constants: A =      0.53234  B =      0.05980  C =      0.05739 [cm^-1]
  Rotational constants: A =  15959.15149  B =   1792.83510  C =   1720.37509 [MHz]
  Nuclear repulsion =  124.304041889186919

  Charge       = 0
  Multiplicity = 1
  Electrons    = 36
  Nalpha       = 18
  Nbeta        = 18

  ==> Algorithm <==

  SCF Algorithm Type is PK.
  DIIS enabled.
  MOM disabled.
  Fractional occupation disabled.
  Guess Type is SAD.
  Energy threshold   = 1.00e-06
  Density threshold  = 1.00e-10
  Integral threshold = 0.00e+00

  ==> Primary Basis <==

  Basis Set: CC-PVDZ
    Blend: CC-PVDZ
    Number of shells: 54
    Number of basis function: 106
    Number of Cartesian functions: 110
    Spherical Harmonics?: true
    Max angular momentum: 2

  ==> Pre-Iterations <==

   -------------------------------------------------------
    Irrep   Nso     Nmo     Nalpha   Nbeta   Ndocc  Nsocc
   -------------------------------------------------------
     A        106     106       0       0       0       0
   -------------------------------------------------------
    Total     106     106      18      18      18       0
   -------------------------------------------------------

  ==> Integral Setup <==

  Using in-core PK algorithm.
   Calculation information:
      Number of atoms:                  14
      Number of AO shells:              54
      Number of primitives:            138
      Number of atomic orbitals:       110
      Number of basis functions:       106

      Integral cutoff                 1.00e-12
      Number of threads:                 1

  Performing in-core PK
  Using 32165912 doubles for integral storage.
  We computed 900461 shell quartets total.
  Whereas there are 1103355 unique shell quartets.

  ==> DiskJK: Disk-Based J/K Matrices <==

    J tasked:                  Yes
    K tasked:                  Yes
    wK tasked:                  No
    Memory [MiB]:              375
    Schwarz Cutoff:          1E-12

    OpenMP threads:              1

  Minimum eigenvalue in the overlap matrix is 7.8740099877E-03.
  Using Symmetric Orthogonalization.

  SCF Guess: Superposition of Atomic Densities via on-the-fly atomic UHF.

  ==> Iterations <==

                        Total Energy        Delta E     RMS |[F,P]|

   @RHF iter SAD:  -193.06466663694459   -1.93065e+02   0.00000e+00
   @RHF iter   1:  -194.13570897413189   -1.07104e+00   4.71769e-03 DIIS
   @RHF iter   2:  -194.25500046408484   -1.19291e-01   2.29495e-03 DIIS
   @RHF iter   3:  -194.28037222195780   -2.53718e-02   4.33823e-04 DIIS
   @RHF iter   4:  -194.28206818098846   -1.69596e-03   1.37510e-04 DIIS
   @RHF iter   5:  -194.28218942871490   -1.21248e-04   2.72544e-05 DIIS
   @RHF iter   6:  -194.28219600392470   -6.57521e-06   4.97833e-06 DIIS
   @RHF iter   7:  -194.28219632145158   -3.17527e-07   1.14501e-06 DIIS
   @RHF iter   8:  -194.28219633813455   -1.66830e-08   4.09191e-07 DIIS
   @RHF iter   9:  -194.28219634015593   -2.02138e-09   9.50741e-08 DIIS
   @RHF iter  10:  -194.28219634030287   -1.46940e-10   1.88588e-08 DIIS
   @RHF iter  11:  -194.28219634030918   -6.30962e-12   4.86631e-09 DIIS
   @RHF iter  12:  -194.28219634030899    1.98952e-13   1.23906e-09 DIIS
   @RHF iter  13:  -194.28219634030933   -3.41061e-13   2.94992e-10 DIIS
   @RHF iter  14:  -194.28219634030921    1.13687e-13   9.31966e-11 DIIS
  Energy and wave function converged.

  ==> Post-Iterations <==

    Orbital Energies [Eh]
    ---------------------

    Doubly Occupied:

       1A    -20.552837     2A    -11.278832     3A    -11.205323
       4A    -11.201094     5A     -1.351904     6A     -1.002985
       7A     -0.920743     8A     -0.820823     9A     -0.683614
      10A     -0.617127    11A     -0.594653    12A     -0.583387
      13A     -0.579044    14A     -0.498679    15A     -0.484216
      16A     -0.471447    17A     -0.470702    18A     -0.441791

    Virtual:

      19A      0.171617    20A      0.204782    21A      0.217271
      22A      0.249072    23A      0.258216    24A      0.264694
      25A      0.271722    26A      0.293634    27A      0.299908
      28A      0.311658    29A      0.363608    30A      0.408365
      31A      0.613299    32A      0.615958    33A      0.618178
      34A      0.630999    35A      0.638500    36A      0.691463
      37A      0.702135    38A      0.730415    39A      0.813934
      40A      0.857094    41A      0.859391    42A      0.885960
      43A      0.896603    44A      0.902045    45A      0.907238
      46A      0.912032    47A      0.935121    48A      0.943787
      49A      0.975754    50A      1.130239    51A      1.135956
      52A      1.140331    53A      1.155701    54A      1.168432
      55A      1.249673    56A      1.313155    57A      1.352761
      58A      1.446988    59A      1.492341    60A      1.507639
      61A      1.583169    62A      1.636885    63A      1.662757
      64A      1.669088    65A      1.694531    66A      1.712827
      67A      1.856135    68A      1.876397    69A      1.890405
      70A      1.898707    71A      1.907867    72A      1.916066
      73A      1.940879    74A      1.960457    75A      1.964967
      76A      1.969174    77A      1.979675    78A      2.015342
      79A      2.048543    80A      2.115201    81A      2.137903
      82A      2.166316    83A      2.295379    84A      2.306837
      85A      2.329462    86A      2.357263    87A      2.376049
      88A      2.465261    89A      2.474124    90A      2.503274
      91A      2.575512    92A      2.587392    93A      2.732782
      94A      2.747746    95A      2.770644    96A      2.782656
      97A      2.808362    98A      2.860103    99A      2.869117
     100A      2.962317   101A      2.970431   102A      3.302923
     103A      3.375846   104A      3.459559   105A      3.586313
     106A      4.081638

    Final Occupation by Irrep:
              A
    DOCC [    18 ]

  @RHF Final Energy:  -194.28219634030921

   => Energetics <=

    Nuclear Repulsion Energy =            124.3040418891869194
    One-Electron Energy =                -509.6540773432708988
    Two-Electron Energy =                 191.0678391137747667
    Total Energy =                       -194.2821963403092127

Computation Completed

Properties will be evaluated at   0.000000,   0.000000,   0.000000 [a0]

Properties computed using the SCF density matrix

  Nuclear Dipole Moment: [e a0]
     X:     0.3792      Y:    -1.9536      Z:    -1.0387

  Electronic Dipole Moment: [e a0]
     X:    -0.3642      Y:     2.5209      Z:     1.6588

  Dipole Moment: [e a0]
     X:     0.0151      Y:     0.5673      Z:     0.6200     Total:     0.8405

  Dipole Moment: [D]
     X:     0.0383      Y:     1.4420      Z:     1.5759     Total:     2.1364

*** tstop() called on ds3 at Mon Apr 27 17:48:11 2020
Module time:
	user time   =       6.30 seconds =       0.10 minutes
	system time =       0.12 seconds =       0.00 minutes
	total time  =          7 seconds =       0.12 minutes
Total time:
	user time   =       6.30 seconds =       0.10 minutes
	system time =       0.12 seconds =       0.00 minutes
	total time  =          7 seconds =       0.12 minutes
                                     G D M A

                                 by Anthony Stone

                           version 2.2.06, 22 June 2011

               Distributed Multipoles from Gaussian wavefunctions

Starting at 17:48:11 on 27 Apr 2020

Using SCF density matrix from file ./SSI/SSI-045THR-048ALA-2-dimer.test.5774.fchk

                         Distributed Multipole Analysis

Standard DMA

Positions and radii in angstrom
Multipole moments in atomic units, ea_0^k for rank k

C          x = -1.212255  y =  1.749151  z =  1.489473 angstrom
           Maximum rank =  0   Radius =  0.650 angstrom
                   Q00  =  -0.044841

O          x = -0.150255  y =  1.141151  z =  0.770473 angstrom
           Maximum rank =  0   Radius =  0.650 angstrom
                   Q00  =  -0.585317

H          x =  0.677745  y =  1.473151  z =  1.146473 angstrom
           Maximum rank =  0   Radius =  0.325 angstrom
                   Q00  =   0.381524

H          x = -1.329255  y =  2.775151  z =  1.141473 angstrom
           Maximum rank =  0   Radius =  0.325 angstrom
                   Q00  =   0.070605

H          x = -2.145995  y =  1.196511  z =  1.308613 angstrom
           Maximum rank =  0   Radius =  0.325 angstrom
                   Q00  =   0.115312

H          x = -0.966035  y =  1.774501  z =  2.561263 angstrom
           Maximum rank =  0   Radius =  0.325 angstrom
                   Q00  =   0.067119

C          x =  0.574745  y = -1.823849  z = -0.508527 angstrom
           Maximum rank =  0   Radius =  0.650 angstrom
                   Q00  =  -0.223035

C          x =  0.803745  y = -1.270849  z = -1.914527 angstrom
           Maximum rank =  0   Radius =  0.650 angstrom
                   Q00  =  -0.232219

H          x = -0.469255  y = -1.699849  z = -0.224527 angstrom
           Maximum rank =  0   Radius =  0.325 angstrom
                   Q00  =   0.084834

H          x =  0.829745  y = -2.884849  z = -0.483527 angstrom
           Maximum rank =  0   Radius =  0.325 angstrom
                   Q00  =   0.062192

H          x =  1.206745  y = -1.292849  z =  0.204473 angstrom
           Maximum rank =  0   Radius =  0.325 angstrom
                   Q00  =   0.078211

H          x =  1.861745  y = -1.378849  z = -2.161527 angstrom
           Maximum rank =  0   Radius =  0.325 angstrom
                   Q00  =   0.069108

H          x =  0.523545  y = -0.208029  z = -1.958217 angstrom
           Maximum rank =  0   Radius =  0.325 angstrom
                   Q00  =   0.085053

H          x =  0.216325  y = -1.844609  z = -2.646467 angstrom
           Maximum rank =  0   Radius =  0.325 angstrom
                   Q00  =   0.071454

Total multipoles referred to origin at
           x =   0.000000,  y =    0.000000,  z =    0.000000 angstrom
                   Q00  =  -0.000000

Finished at 17:48:11 on 27 Apr 2020

  DMA results are available in the Python driver through the
	  variable('DMA DISTRIBUTED MULTIPOLES')
  and
	  variable('DMA TOTAL MULTIPOLES')
  commands.

    Psi4 stopped on: Monday, 27 April 2020 05:48PM
    Psi4 wall time for execution: 0:00:06.59

*** Psi4 exiting successfully. Buy a developer a beer!
