                               Psi4 1.3.2 release

  ==> Input File <==

--------------------------------------------------------------------------
import numpy as np
set {scf_type pk
basis cc-pvdz
d_convergence 10
gdma_switch   0
gdma_limit    0
gdma_origin   [ 0.0,  0.0,  0.0 ]
}
molecule test {
    units Angstrom
    0 1
    --
    0 1
    C               -0.029488404548538    -1.610495195161304    -1.847874015848509
    C               -0.023488404548538    -2.501495195161304    -3.081874015848509
    H                0.609511595451462    -2.039495195161304    -1.079874015848509
    H                0.368511595451462    -0.633495195161304    -2.105874015848508
    H               -1.039488404548538    -1.497495195161304    -1.457874015848509
    H                1.003511595451462    -2.676495195161304    -3.404874015848509
    H               -0.534693404548538    -3.460645195161304    -2.912444015848509
    H               -0.564460404548538    -1.961245195161304    -3.872744015848509
    C                0.605511595451462    -0.788495195161304     2.366125984151491
    C                0.147511595451462     0.252504804838696     1.388125984151491
    C               -0.991488404548538     0.991504804838696     1.349125984151491
    C                0.285511595451462     1.592504804838696    -0.344874015848509
    N                0.944511595451462     0.658504804838696     0.348125984151491
    N               -0.892488404548538     1.819504804838696     0.244125984151492
    H                0.378511595451462    -0.448495195161304     3.368125984151491
    H                1.691511595451462    -0.864495195161304     2.293125984151491
    H               -1.818488404548538     0.929504804838696     2.044125984151492
    H                0.654511595451462     2.098504804838696    -1.230874015848509
    H               -1.581488404548538     2.493504804838696    -0.066874015848509
    H                0.180333595451462    -1.794635195161304     2.236071984151491

}
e, wfn = energy('scf', return_wfn=True)
gdma(wfn)
dmavals = variable('DMA DISTRIBUTED MULTIPOLES')
charges = np.array(dmavals)
print(charges)
np.save('SSI-042LEU-103HIE-1-dimer.npy', np.array(charges))--------------------------------------------------------------------------

*** tstart() called on ds3
*** at Tue Apr 28 20:02:36 2020

   => Loading Basis Set <=

    Name: CC-PVDZ
    Role: ORBITAL
    Keyword: BASIS
    atoms 1-2, 9-12  entry C          line   138 file /theoryfs2/ds/metcalf/miniconda2/envs/tf2gpu/share/psi4/basis/cc-pvdz.gbs
    atoms 3-8, 15-20 entry H          line    22 file /theoryfs2/ds/metcalf/miniconda2/envs/tf2gpu/share/psi4/basis/cc-pvdz.gbs
    atoms 13-14      entry N          line   168 file /theoryfs2/ds/metcalf/miniconda2/envs/tf2gpu/share/psi4/basis/cc-pvdz.gbs

         ---------------------------------------------------------
                                   SCF
               by Justin Turney, Rob Parrish, Andy Simmonett
                          and Daniel G. A. Smith
                              RHF Reference
                        1 Threads,    500 MiB Core
         ---------------------------------------------------------

  ==> Geometry <==

    Molecular point group: c1
    Full point group: C1

    Geometry (in Angstrom), charge = 0, multiplicity = 1:

       Center              X                  Y                   Z               Mass
    ------------   -----------------  -----------------  -----------------  -----------------
         C           -0.029488404549    -1.610495195161    -1.847874015849    12.000000000000
         C           -0.023488404549    -2.501495195161    -3.081874015849    12.000000000000
         H            0.609511595451    -2.039495195161    -1.079874015849     1.007825032230
         H            0.368511595451    -0.633495195161    -2.105874015849     1.007825032230
         H           -1.039488404549    -1.497495195161    -1.457874015849     1.007825032230
         H            1.003511595451    -2.676495195161    -3.404874015849     1.007825032230
         H           -0.534693404549    -3.460645195161    -2.912444015849     1.007825032230
         H           -0.564460404549    -1.961245195161    -3.872744015849     1.007825032230
         C            0.605511595451    -0.788495195161     2.366125984151    12.000000000000
         C            0.147511595451     0.252504804839     1.388125984151    12.000000000000
         C           -0.991488404549     0.991504804839     1.349125984151    12.000000000000
         C            0.285511595451     1.592504804839    -0.344874015849    12.000000000000
         N            0.944511595451     0.658504804839     0.348125984151    14.003074004430
         N           -0.892488404549     1.819504804839     0.244125984151    14.003074004430
         H            0.378511595451    -0.448495195161     3.368125984151     1.007825032230
         H            1.691511595451    -0.864495195161     2.293125984151     1.007825032230
         H           -1.818488404549     0.929504804839     2.044125984151     1.007825032230
         H            0.654511595451     2.098504804839    -1.230874015849     1.007825032230
         H           -1.581488404549     2.493504804839    -0.066874015849     1.007825032230
         H            0.180333595451    -1.794635195161     2.236071984151     1.007825032230

  Running in c1 symmetry.

  Rotational constants: A =      0.08767  B =      0.03353  C =      0.02784 [cm^-1]
  Rotational constants: A =   2628.42775  B =   1005.28749  C =    834.57115 [MHz]
  Nuclear repulsion =  359.547683988218409

  Charge       = 0
  Multiplicity = 1
  Electrons    = 62
  Nalpha       = 31
  Nbeta        = 31

  ==> Algorithm <==

  SCF Algorithm Type is PK.
  DIIS enabled.
  MOM disabled.
  Fractional occupation disabled.
  Guess Type is SAD.
  Energy threshold   = 1.00e-06
  Density threshold  = 1.00e-10
  Integral threshold = 0.00e+00

  ==> Primary Basis <==

  Basis Set: CC-PVDZ
    Blend: CC-PVDZ
    Number of shells: 84
    Number of basis function: 172
    Number of Cartesian functions: 180
    Spherical Harmonics?: true
    Max angular momentum: 2

  ==> Pre-Iterations <==

   -------------------------------------------------------
    Irrep   Nso     Nmo     Nalpha   Nbeta   Ndocc  Nsocc
   -------------------------------------------------------
     A        172     172       0       0       0       0
   -------------------------------------------------------
    Total     172     172      31      31      31       0
   -------------------------------------------------------

  ==> Integral Setup <==

  Using integral reordering PK algorithm.
  Sizing the integral batches needed.
  Building batch lookup table.
   Calculation information:
      Number of atoms:                  20
      Number of AO shells:              84
      Number of primitives:            236
      Number of atomic orbitals:       180
      Number of basis functions:       172

      Integral cutoff                 1.00e-12
      Number of threads:                 1

	Batch   1 pq = [       0,    9405] index = [             0,44231715] size =     44231715
	Batch   2 pq = [    9405,   13301] index = [      44231715,88464951] size =     44233236
	Batch   3 pq = [   13301,   14878] index = [      88464951,110684881] size =     22219930
  Task number: 11
  Buffer size: 11059200
  Buffer per thread: 2
  We computed 5607572 shell quartets total.
  Whereas there are 6374235 unique shell quartets.

  ==> DiskJK: Disk-Based J/K Matrices <==

    J tasked:                  Yes
    K tasked:                  Yes
    wK tasked:                  No
    Memory [MiB]:              375
    Schwarz Cutoff:          1E-12

    OpenMP threads:              1

  Minimum eigenvalue in the overlap matrix is 1.2074026634E-03.
  Using Symmetric Orthogonalization.

  SCF Guess: Superposition of Atomic Densities via on-the-fly atomic UHF.

  ==> Iterations <==

                        Total Energy        Delta E     RMS |[F,P]|

   @RHF iter SAD:  -342.19155721150150   -3.42192e+02   0.00000e+00
   @RHF iter   1:  -342.88414627564089   -6.92589e-01   3.37342e-03 DIIS
   @RHF iter   2:  -343.05653414921113   -1.72388e-01   1.72728e-03 DIIS
   @RHF iter   3:  -343.09830439910331   -4.17702e-02   4.43586e-04 DIIS
   @RHF iter   4:  -343.10186921232008   -3.56481e-03   1.83106e-04 DIIS
   @RHF iter   5:  -343.10244443249962   -5.75220e-04   2.65630e-05 DIIS
   @RHF iter   6:  -343.10246439436531   -1.99619e-05   1.14626e-05 DIIS
   @RHF iter   7:  -343.10246755258680   -3.15822e-06   3.83203e-06 DIIS
   @RHF iter   8:  -343.10246818574632   -6.33160e-07   1.58309e-06 DIIS
   @RHF iter   9:  -343.10246832955175   -1.43805e-07   5.96223e-07 DIIS
   @RHF iter  10:  -343.10246834676457   -1.72128e-08   1.84602e-07 DIIS
   @RHF iter  11:  -343.10246834870316   -1.93859e-09   7.93567e-08 DIIS
   @RHF iter  12:  -343.10246834896412   -2.60968e-10   3.17570e-08 DIIS
   @RHF iter  13:  -343.10246834900897   -4.48495e-11   8.73273e-09 DIIS
   @RHF iter  14:  -343.10246834901483   -5.85487e-12   3.31471e-09 DIIS
   @RHF iter  15:  -343.10246834901585   -1.02318e-12   1.33519e-09 DIIS
   @RHF iter  16:  -343.10246834901477    1.08002e-12   4.29563e-10 DIIS
   @RHF iter  17:  -343.10246834901545   -6.82121e-13   1.27825e-10 DIIS
   @RHF iter  18:  -343.10246834901454    9.09495e-13   4.86346e-11 DIIS
  Energy and wave function converged.

  ==> Post-Iterations <==

    Orbital Energies [Eh]
    ---------------------

    Doubly Occupied:

       1A    -15.623194     2A    -15.529485     3A    -11.294357
       4A    -11.250571     5A    -11.241406     6A    -11.220999
       7A    -11.207508     8A    -11.198560     9A     -1.337754
      10A     -1.154639    11A     -1.028118    12A     -1.006647
      13A     -0.940170    14A     -0.822645    15A     -0.820385
      16A     -0.759716    17A     -0.740227    18A     -0.610541
      19A     -0.601812    20A     -0.596459    21A     -0.587891
      22A     -0.583671    23A     -0.551572    24A     -0.538541
      25A     -0.517924    26A     -0.488524    27A     -0.475574
      28A     -0.467451    29A     -0.412752    30A     -0.378337
      31A     -0.307643

    Virtual:

      32A      0.171718    33A      0.178438    34A      0.192619
      35A      0.204568    36A      0.220942    37A      0.227412
      38A      0.238806    39A      0.258757    40A      0.271921
      41A      0.272434    42A      0.279527    43A      0.298958
      44A      0.308912    45A      0.319694    46A      0.377033
      47A      0.393080    48A      0.401106    49A      0.422178
      50A      0.480179    51A      0.488415    52A      0.596447
      53A      0.602863    54A      0.613150    55A      0.615355
      56A      0.632761    57A      0.655664    58A      0.663930
      59A      0.681592    60A      0.697802    61A      0.720805
      62A      0.740619    63A      0.767698    64A      0.768420
      65A      0.797752    66A      0.819248    67A      0.842440
      68A      0.852196    69A      0.881180    70A      0.899662
      71A      0.904691    72A      0.907598    73A      0.911932
      74A      0.924681    75A      0.927358    76A      0.936088
      77A      0.955277    78A      0.960729    79A      0.964215
      80A      0.984037    81A      1.006153    82A      1.031481
      83A      1.058165    84A      1.089655    85A      1.098804
      86A      1.126465    87A      1.138209    88A      1.146941
      89A      1.163605    90A      1.204489    91A      1.244198
      92A      1.266868    93A      1.294688    94A      1.320991
      95A      1.321652    96A      1.339049    97A      1.434349
      98A      1.453509    99A      1.471987   100A      1.486451
     101A      1.499608   102A      1.528514   103A      1.567552
     104A      1.606303   105A      1.608739   106A      1.658209
     107A      1.691085   108A      1.699818   109A      1.709815
     110A      1.727109   111A      1.773745   112A      1.808131
     113A      1.833534   114A      1.856026   115A      1.882529
     116A      1.888767   117A      1.897615   118A      1.914411
     119A      1.930778   120A      1.941389   121A      1.953694
     122A      1.954221   123A      1.963169   124A      1.973911
     125A      1.976069   126A      1.985692   127A      1.995651
     128A      2.025089   129A      2.062714   130A      2.088967
     131A      2.098246   132A      2.111378   133A      2.146186
     134A      2.154885   135A      2.204326   136A      2.235546
     137A      2.266061   138A      2.298411   139A      2.324999
     140A      2.338825   141A      2.359775   142A      2.381096
     143A      2.419237   144A      2.450265   145A      2.471290
     146A      2.483296   147A      2.491157   148A      2.575085
     149A      2.582123   150A      2.594978   151A      2.603578
     152A      2.674364   153A      2.743000   154A      2.759525
     155A      2.773026   156A      2.786445   157A      2.793153
     158A      2.813184   159A      2.833949   160A      2.854049
     161A      2.880545   162A      2.886740   163A      2.891420
     164A      2.929963   165A      2.965707   166A      2.968394
     167A      2.988496   168A      3.057035   169A      3.143236
     170A      3.228236   171A      3.458451   172A      3.786608

    Final Occupation by Irrep:
              A
    DOCC [    31 ]

  @RHF Final Energy:  -343.10246834901454

   => Energetics <=

    Nuclear Repulsion Energy =            359.5476839882184095
    One-Electron Energy =               -1176.7101525504849633
    Two-Electron Energy =                 474.0600002132520103
    Total Energy =                       -343.1024683490145435

Computation Completed

Properties will be evaluated at   0.000000,   0.000000,   0.000000 [a0]

Properties computed using the SCF density matrix

  Nuclear Dipole Moment: [e a0]
     X:    -0.6116      Y:    -9.2459      Z:    -5.8046

  Electronic Dipole Moment: [e a0]
     X:    -0.4716      Y:    10.0837      Z:     5.8027

  Dipole Moment: [e a0]
     X:    -1.0832      Y:     0.8378      Z:    -0.0019     Total:     1.3694

  Dipole Moment: [D]
     X:    -2.7532      Y:     2.1294      Z:    -0.0049     Total:     3.4806

*** tstop() called on ds3 at Tue Apr 28 20:03:32 2020
Module time:
	user time   =      40.38 seconds =       0.67 minutes
	system time =      16.83 seconds =       0.28 minutes
	total time  =         56 seconds =       0.93 minutes
Total time:
	user time   =      40.38 seconds =       0.67 minutes
	system time =      16.83 seconds =       0.28 minutes
	total time  =         56 seconds =       0.93 minutes
                                     G D M A

                                 by Anthony Stone

                           version 2.2.06, 22 June 2011

               Distributed Multipoles from Gaussian wavefunctions

Starting at 20:3:32 on 28 Apr 2020

Using SCF density matrix from file ./SSI/SSI-042LEU-103HIE-1-dimer.test.13505.fchk

                         Distributed Multipole Analysis

Standard DMA

Positions and radii in angstrom
Multipole moments in atomic units, ea_0^k for rank k

C          x = -0.029488  y = -1.610495  z = -1.847874 angstrom
           Maximum rank =  0   Radius =  0.650 angstrom
                   Q00  =  -0.221436

C          x = -0.023488  y = -2.501495  z = -3.081874 angstrom
           Maximum rank =  0   Radius =  0.650 angstrom
                   Q00  =  -0.235790

H          x =  0.609512  y = -2.039495  z = -1.079874 angstrom
           Maximum rank =  0   Radius =  0.325 angstrom
                   Q00  =   0.082149

H          x =  0.368512  y = -0.633495  z = -2.105874 angstrom
           Maximum rank =  0   Radius =  0.325 angstrom
                   Q00  =   0.077581

H          x = -1.039488  y = -1.497495  z = -1.457874 angstrom
           Maximum rank =  0   Radius =  0.325 angstrom
                   Q00  =   0.070991

H          x =  1.003512  y = -2.676495  z = -3.404874 angstrom
           Maximum rank =  0   Radius =  0.325 angstrom
                   Q00  =   0.079096

H          x = -0.534693  y = -3.460645  z = -2.912444 angstrom
           Maximum rank =  0   Radius =  0.325 angstrom
                   Q00  =   0.075581

H          x = -0.564460  y = -1.961245  z = -3.872744 angstrom
           Maximum rank =  0   Radius =  0.325 angstrom
                   Q00  =   0.065851

C          x =  0.605512  y = -0.788495  z =  2.366126 angstrom
           Maximum rank =  0   Radius =  0.650 angstrom
                   Q00  =  -0.207135

C          x =  0.147512  y =  0.252505  z =  1.388126 angstrom
           Maximum rank =  0   Radius =  0.650 angstrom
                   Q00  =   0.239927

C          x = -0.991488  y =  0.991505  z =  1.349126 angstrom
           Maximum rank =  0   Radius =  0.650 angstrom
                   Q00  =  -0.005437

C          x =  0.285512  y =  1.592505  z = -0.344874 angstrom
           Maximum rank =  0   Radius =  0.650 angstrom
                   Q00  =   0.455508

N          x =  0.944512  y =  0.658505  z =  0.348126 angstrom
           Maximum rank =  0   Radius =  0.650 angstrom
                   Q00  =  -0.769130

N          x = -0.892488  y =  1.819505  z =  0.244126 angstrom
           Maximum rank =  0   Radius =  0.650 angstrom
                   Q00  =  -0.471341

H          x =  0.378512  y = -0.448495  z =  3.368126 angstrom
           Maximum rank =  0   Radius =  0.325 angstrom
                   Q00  =   0.096754

H          x =  1.691512  y = -0.864495  z =  2.293126 angstrom
           Maximum rank =  0   Radius =  0.325 angstrom
                   Q00  =   0.120522

H          x = -1.818488  y =  0.929505  z =  2.044126 angstrom
           Maximum rank =  0   Radius =  0.325 angstrom
                   Q00  =   0.100613

H          x =  0.654512  y =  2.098505  z = -1.230874 angstrom
           Maximum rank =  0   Radius =  0.325 angstrom
                   Q00  =   0.123445

H          x = -1.581488  y =  2.493505  z = -0.066874 angstrom
           Maximum rank =  0   Radius =  0.325 angstrom
                   Q00  =   0.221692

H          x =  0.180334  y = -1.794635  z =  2.236072 angstrom
           Maximum rank =  0   Radius =  0.325 angstrom
                   Q00  =   0.100559

Total multipoles referred to origin at
           x =   0.000000,  y =    0.000000,  z =    0.000000 angstrom
                   Q00  =  -0.000000

Finished at 20:3:32 on 28 Apr 2020

  DMA results are available in the Python driver through the
	  variable('DMA DISTRIBUTED MULTIPOLES')
  and
	  variable('DMA TOTAL MULTIPOLES')
  commands.

    Psi4 stopped on: Tuesday, 28 April 2020 08:03PM
    Psi4 wall time for execution: 0:00:56.05

*** Psi4 exiting successfully. Buy a developer a beer!
