                               Psi4 1.3.2 release

  ==> Input File <==

--------------------------------------------------------------------------
import numpy as np
set {scf_type pk
basis cc-pvdz
d_convergence 10
gdma_switch   0
gdma_limit    0
gdma_origin   [ 0.0,  0.0,  0.0 ]
}
molecule test {
    units Angstrom
    0 1
    --
    0 1
    C               -0.911775121589747    -5.223878827690876    -1.469145635043140
    C                0.519224878410253    -1.363878827690875    -0.416145635043140
    C                1.398224878410253    -2.280878827690875    -0.996145635043140
    C               -0.801775121589747    -1.707878827690875    -0.217145635043140
    C                0.923224878410253    -3.549878827690875    -1.353145635043140
    C               -1.261775121589747    -2.949878827690875    -0.569145635043140
    C               -0.408775121589747    -3.872878827690875    -1.140145635043140
    H                0.872224878410253    -0.381878827690875    -0.129145635043140
    H                2.435224878410253    -2.017878827690875    -1.156145635043139
    H               -1.478775121589747    -0.990878827690875     0.225854364956860
    H                1.596224878410253    -4.273878827690876    -1.791145635043140
    H               -2.296775121589747    -3.201878827690876    -0.386145635043140
    H               -0.506775121589747    -5.524878827690876    -2.431145635043139
    H               -1.996775121589747    -5.198878827690876    -1.568145635043139
    H               -0.648736121589747    -5.966748827690876    -0.701705635043140
    C               -1.232775121589747     1.888121172309125    -1.772145635043139
    C               -0.529775121589747     2.228121172309125    -0.484145635043140
    C               -1.233775121589747     2.222121172309124     0.709854364956860
    C                0.808224878410253     2.623121172309125    -0.459145635043140
    C               -0.607775121589747     2.547121172309124     1.901854364956861
    C                1.422224878410253     2.962121172309125     0.755854364956860
    C                0.705224878410253     2.907121172309125     1.927854364956860
    O                1.241224878410252     3.222121172309125     3.152854364956860
    H               -1.687775121589747     0.904121172309125    -1.651145635043139
    H               -0.507775121589747     1.823121172309125    -2.583145635043139
    H               -2.285775121589747     1.964121172309125     0.714854364956860
    H                1.378224878410253     2.664121172309125    -1.377145635043139
    H               -1.168775121589748     2.625121172309124     2.808854364956860
    H                2.457224878410253     3.265121172309125     0.777854364956860
    H                0.585224878410253     3.076121172309125     3.864854364956860
    H               -2.016241121589748     2.620551172309125    -2.016525635043140

}
e, wfn = energy('scf', return_wfn=True)
gdma(wfn)
dmavals = variable('DMA DISTRIBUTED MULTIPOLES')
charges = np.array(dmavals)
print(charges)
np.save('SSI-042PHE-092TYR-1-dimer.npy', np.array(charges))--------------------------------------------------------------------------

*** tstart() called on ds3
*** at Mon Apr 27 22:08:33 2020

   => Loading Basis Set <=

    Name: CC-PVDZ
    Role: ORBITAL
    Keyword: BASIS
    atoms 1-7, 16-22  entry C          line   138 file /theoryfs2/ds/metcalf/miniconda2/envs/tf2gpu/share/psi4/basis/cc-pvdz.gbs
    atoms 8-15, 24-31 entry H          line    22 file /theoryfs2/ds/metcalf/miniconda2/envs/tf2gpu/share/psi4/basis/cc-pvdz.gbs
    atoms 23          entry O          line   198 file /theoryfs2/ds/metcalf/miniconda2/envs/tf2gpu/share/psi4/basis/cc-pvdz.gbs

         ---------------------------------------------------------
                                   SCF
               by Justin Turney, Rob Parrish, Andy Simmonett
                          and Daniel G. A. Smith
                              RHF Reference
                        1 Threads,    500 MiB Core
         ---------------------------------------------------------

  ==> Geometry <==

    Molecular point group: c1
    Full point group: C1

    Geometry (in Angstrom), charge = 0, multiplicity = 1:

       Center              X                  Y                   Z               Mass
    ------------   -----------------  -----------------  -----------------  -----------------
         C           -0.911775121590    -5.223878827691    -1.469145635043    12.000000000000
         C            0.519224878410    -1.363878827691    -0.416145635043    12.000000000000
         C            1.398224878410    -2.280878827691    -0.996145635043    12.000000000000
         C           -0.801775121590    -1.707878827691    -0.217145635043    12.000000000000
         C            0.923224878410    -3.549878827691    -1.353145635043    12.000000000000
         C           -1.261775121590    -2.949878827691    -0.569145635043    12.000000000000
         C           -0.408775121590    -3.872878827691    -1.140145635043    12.000000000000
         H            0.872224878410    -0.381878827691    -0.129145635043     1.007825032230
         H            2.435224878410    -2.017878827691    -1.156145635043     1.007825032230
         H           -1.478775121590    -0.990878827691     0.225854364957     1.007825032230
         H            1.596224878410    -4.273878827691    -1.791145635043     1.007825032230
         H           -2.296775121590    -3.201878827691    -0.386145635043     1.007825032230
         H           -0.506775121590    -5.524878827691    -2.431145635043     1.007825032230
         H           -1.996775121590    -5.198878827691    -1.568145635043     1.007825032230
         H           -0.648736121590    -5.966748827691    -0.701705635043     1.007825032230
         C           -1.232775121590     1.888121172309    -1.772145635043    12.000000000000
         C           -0.529775121590     2.228121172309    -0.484145635043    12.000000000000
         C           -1.233775121590     2.222121172309     0.709854364957    12.000000000000
         C            0.808224878410     2.623121172309    -0.459145635043    12.000000000000
         C           -0.607775121590     2.547121172309     1.901854364957    12.000000000000
         C            1.422224878410     2.962121172309     0.755854364957    12.000000000000
         C            0.705224878410     2.907121172309     1.927854364957    12.000000000000
         O            1.241224878410     3.222121172309     3.152854364957    15.994914619570
         H           -1.687775121590     0.904121172309    -1.651145635043     1.007825032230
         H           -0.507775121590     1.823121172309    -2.583145635043     1.007825032230
         H           -2.285775121590     1.964121172309     0.714854364957     1.007825032230
         H            1.378224878410     2.664121172309    -1.377145635043     1.007825032230
         H           -1.168775121590     2.625121172309     2.808854364957     1.007825032230
         H            2.457224878410     3.265121172309     0.777854364957     1.007825032230
         H            0.585224878410     3.076121172309     3.864854364957     1.007825032230
         H           -2.016241121590     2.620551172309    -2.016525635043     1.007825032230

  Running in c1 symmetry.

  Rotational constants: A =      0.03867  B =      0.00781  C =      0.00751 [cm^-1]
  Rotational constants: A =   1159.16979  B =    234.08795  C =    225.19274 [MHz]
  Nuclear repulsion =  877.304417921018398

  Charge       = 0
  Multiplicity = 1
  Electrons    = 108
  Nalpha       = 54
  Nbeta        = 54

  ==> Algorithm <==

  SCF Algorithm Type is PK.
  DIIS enabled.
  MOM disabled.
  Fractional occupation disabled.
  Guess Type is SAD.
  Energy threshold   = 1.00e-06
  Density threshold  = 1.00e-10
  Integral threshold = 0.00e+00

  ==> Primary Basis <==

  Basis Set: CC-PVDZ
    Blend: CC-PVDZ
    Number of shells: 138
    Number of basis function: 290
    Number of Cartesian functions: 305
    Spherical Harmonics?: true
    Max angular momentum: 2

  ==> Pre-Iterations <==

   -------------------------------------------------------
    Irrep   Nso     Nmo     Nalpha   Nbeta   Ndocc  Nsocc
   -------------------------------------------------------
     A        290     290       0       0       0       0
   -------------------------------------------------------
    Total     290     290      54      54      54       0
   -------------------------------------------------------

  ==> Integral Setup <==

  Using integral reordering PK algorithm.
  Sizing the integral batches needed.
  Building batch lookup table.
   Calculation information:
      Number of atoms:                  31
      Number of AO shells:             138
      Number of primitives:            410
      Number of atomic orbitals:       305
      Number of basis functions:       290

      Integral cutoff                 1.00e-12
      Number of threads:                 1

	Batch   1 pq = [       0,    9405] index = [             0,44231715] size =     44231715
	Batch   2 pq = [    9405,   13301] index = [      44231715,88464951] size =     44233236
	Batch   3 pq = [   13301,   16290] index = [      88464951,132690195] size =     44225244
	Batch   4 pq = [   16290,   18810] index = [     132690195,176917455] size =     44227260
	Batch   5 pq = [   18810,   21030] index = [     176917455,221140965] size =     44223510
	Batch   6 pq = [   21030,   23037] index = [     221140965,265363203] size =     44222238
	Batch   7 pq = [   23037,   24883] index = [     265363203,309594286] size =     44231083
	Batch   8 pq = [   24883,   26601] index = [     309594286,353819901] size =     44225615
	Batch   9 pq = [   26601,   28214] index = [     353819901,398029005] size =     44209104
	Batch  10 pq = [   28214,   29740] index = [     398029005,442248670] size =     44219665
	Batch  11 pq = [   29740,   31191] index = [     442248670,486454836] size =     44206166
	Batch  12 pq = [   31191,   32578] index = [     486454836,530679331] size =     44224495
	Batch  13 pq = [   32578,   33908] index = [     530679331,574893186] size =     44213855
	Batch  14 pq = [   33908,   35188] index = [     574893186,619115266] size =     44222080
	Batch  15 pq = [   35188,   36423] index = [     619115266,663335676] size =     44220410
	Batch  16 pq = [   36423,   37617] index = [     663335676,707538153] size =     44202477
	Batch  17 pq = [   37617,   38775] index = [     707538153,751769700] size =     44231547
	Batch  18 pq = [   38775,   39899] index = [     751769700,795985050] size =     44215350
	Batch  19 pq = [   39899,   40992] index = [     795985050,840192528] size =     44207478
	Batch  20 pq = [   40992,   42057] index = [     840192528,884416653] size =     44224125
	Batch  21 pq = [   42057,   42195] index = [     884416653,890230110] size =      5813457
  Task number: 81
  Buffer size: 11059200
  Buffer per thread: 2
  We computed 41137257 shell quartets total.
  Whereas there are 45998436 unique shell quartets.

  ==> DiskJK: Disk-Based J/K Matrices <==

    J tasked:                  Yes
    K tasked:                  Yes
    wK tasked:                  No
    Memory [MiB]:              375
    Schwarz Cutoff:          1E-12

    OpenMP threads:              1

  Minimum eigenvalue in the overlap matrix is 2.9162629403E-04.
  Using Symmetric Orthogonalization.

  SCF Guess: Superposition of Atomic Densities via on-the-fly atomic UHF.

  ==> Iterations <==

                        Total Energy        Delta E     RMS |[F,P]|

   @RHF iter SAD:  -613.41795358108664   -6.13418e+02   0.00000e+00
   @RHF iter   1:  -614.05215126998860   -6.34198e-01   2.39301e-03 DIIS
   @RHF iter   2:  -614.33224627258369   -2.80095e-01   9.88376e-04 DIIS
   @RHF iter   3:  -614.37409371023682   -4.18474e-02   2.28397e-04 DIIS
   @RHF iter   4:  -614.37761565117671   -3.52194e-03   8.08018e-05 DIIS
   @RHF iter   5:  -614.37793393902803   -3.18288e-04   1.79047e-05 DIIS
   @RHF iter   6:  -614.37795505841325   -2.11194e-05   5.76155e-06 DIIS
   @RHF iter   7:  -614.37795735620671   -2.29779e-06   1.57663e-06 DIIS
   @RHF iter   8:  -614.37795760555787   -2.49351e-07   6.03069e-07 DIIS
   @RHF iter   9:  -614.37795763576264   -3.02048e-08   2.00288e-07 DIIS
   @RHF iter  10:  -614.37795763961697   -3.85432e-09   6.37146e-08 DIIS
   @RHF iter  11:  -614.37795764025100   -6.34031e-10   2.79877e-08 DIIS
   @RHF iter  12:  -614.37795764039993   -1.48930e-10   1.51436e-08 DIIS
   @RHF iter  13:  -614.37795764045472   -5.47971e-11   5.89462e-09 DIIS
   @RHF iter  14:  -614.37795764046530   -1.05729e-11   1.84817e-09 DIIS
   @RHF iter  15:  -614.37795764046280    2.50111e-12   6.02038e-10 DIIS
   @RHF iter  16:  -614.37795764046791   -5.11591e-12   2.24075e-10 DIIS
   @RHF iter  17:  -614.37795764046666    1.25056e-12   8.44311e-11 DIIS
  Energy and wave function converged.

  ==> Post-Iterations <==

    Orbital Energies [Eh]
    ---------------------

    Doubly Occupied:

       1A    -20.581648     2A    -11.294060     3A    -11.241374
       4A    -11.238275     5A    -11.234704     6A    -11.232998
       7A    -11.232663     8A    -11.231961     9A    -11.229191
      10A    -11.226937    11A    -11.226802    12A    -11.226288
      13A    -11.223265    14A    -11.223179    15A    -11.222148
      16A     -1.392162    17A     -1.157696    18A     -1.154339
      19A     -1.045966    20A     -1.042780    21A     -1.020490
      22A     -1.010657    23A     -0.928502    24A     -0.928001
      25A     -0.849722    26A     -0.823010    27A     -0.800827
      28A     -0.792013    29A     -0.729013    30A     -0.687953
      31A     -0.673124    32A     -0.642271    33A     -0.631187
      34A     -0.626117    35A     -0.609880    36A     -0.589308
      37A     -0.585799    38A     -0.580872    39A     -0.578093
      40A     -0.570584    41A     -0.565519    42A     -0.558333
      43A     -0.530478    44A     -0.528362    45A     -0.499087
      46A     -0.486614    47A     -0.484905    48A     -0.482374
      49A     -0.478389    50A     -0.468476    51A     -0.340402
      52A     -0.330615    53A     -0.317996    54A     -0.307383

    Virtual:

      55A      0.125540    56A      0.139095    57A      0.146054
      58A      0.157462    59A      0.174945    60A      0.180374
      61A      0.193632    62A      0.209850    63A      0.216762
      64A      0.223364    65A      0.229946    66A      0.253826
      67A      0.257520    68A      0.262104    69A      0.272926
      70A      0.276844    71A      0.287841    72A      0.290073
      73A      0.298783    74A      0.320996    75A      0.368540
      76A      0.373906    77A      0.379623    78A      0.384451
      79A      0.422734    80A      0.450515    81A      0.459860
      82A      0.466728    83A      0.482270    84A      0.484868
      85A      0.495787    86A      0.499422    87A      0.509119
      88A      0.567471    89A      0.593522    90A      0.612661
      91A      0.621885    92A      0.638458    93A      0.642834
      94A      0.660660    95A      0.679064    96A      0.681900
      97A      0.694148    98A      0.704024    99A      0.709197
     100A      0.718569   101A      0.726617   102A      0.733539
     103A      0.736821   104A      0.738798   105A      0.746697
     106A      0.749112   107A      0.754422   108A      0.760372
     109A      0.765731   110A      0.768084   111A      0.776678
     112A      0.783846   113A      0.795406   114A      0.809660
     115A      0.817766   116A      0.828929   117A      0.840409
     118A      0.846419   119A      0.859344   120A      0.872384
     121A      0.876789   122A      0.882801   123A      0.883396
     124A      0.893423   125A      0.899844   126A      0.904938
     127A      0.905707   128A      0.913253   129A      0.927789
     130A      0.936281   131A      0.939354   132A      0.944872
     133A      0.945822   134A      0.954846   135A      0.975455
     136A      0.995084   137A      1.010646   138A      1.021601
     139A      1.026772   140A      1.046959   141A      1.064776
     142A      1.076079   143A      1.115426   144A      1.140729
     145A      1.143964   146A      1.149301   147A      1.151617
     148A      1.164104   149A      1.186551   150A      1.189084
     151A      1.204146   152A      1.218163   153A      1.229388
     154A      1.244715   155A      1.251805   156A      1.256955
     157A      1.263139   158A      1.273703   159A      1.286874
     160A      1.292628   161A      1.305898   162A      1.309317
     163A      1.312037   164A      1.320682   165A      1.329840
     166A      1.335502   167A      1.343236   168A      1.358129
     169A      1.365786   170A      1.398507   171A      1.418359
     172A      1.489463   173A      1.507894   174A      1.522620
     175A      1.530830   176A      1.542008   177A      1.567692
     178A      1.579415   179A      1.615507   180A      1.620641
     181A      1.630119   182A      1.672902   183A      1.680051
     184A      1.688489   185A      1.704017   186A      1.734218
     187A      1.738995   188A      1.747681   189A      1.758759
     190A      1.765804   191A      1.792256   192A      1.801981
     193A      1.812022   194A      1.815950   195A      1.822994
     196A      1.859200   197A      1.871939   198A      1.882168
     199A      1.898271   200A      1.901944   201A      1.907831
     202A      1.908389   203A      1.918244   204A      1.924435
     205A      1.928025   206A      1.932163   207A      1.946516
     208A      1.950707   209A      1.957330   210A      1.960408
     211A      1.973119   212A      1.974694   213A      1.983916
     214A      2.002663   215A      2.007021   216A      2.022563
     217A      2.026304   218A      2.035728   219A      2.047448
     220A      2.072388   221A      2.076827   222A      2.081289
     223A      2.085129   224A      2.099696   225A      2.120316
     226A      2.121930   227A      2.153933   228A      2.156523
     229A      2.172929   230A      2.178119   231A      2.190770
     232A      2.195267   233A      2.200452   234A      2.216581
     235A      2.232144   236A      2.261312   237A      2.263550
     238A      2.275485   239A      2.287010   240A      2.302050
     241A      2.304467   242A      2.315734   243A      2.332716
     244A      2.356375   245A      2.367404   246A      2.376762
     247A      2.406943   248A      2.439326   249A      2.474880
     250A      2.482170   251A      2.489408   252A      2.516607
     253A      2.518461   254A      2.525654   255A      2.541067
     256A      2.557184   257A      2.617740   258A      2.641813
     259A      2.669286   260A      2.754481   261A      2.757920
     262A      2.771710   263A      2.776073   264A      2.783076
     265A      2.799775   266A      2.813999   267A      2.817049
     268A      2.824504   269A      2.850461   270A      2.858480
     271A      2.890152   272A      2.899725   273A      2.970301
     274A      2.999021   275A      3.016319   276A      3.023577
     277A      3.050575   278A      3.091266   279A      3.122931
     280A      3.178438   281A      3.230234   282A      3.254165
     283A      3.301881   284A      3.321919   285A      3.336015
     286A      3.581048   287A      3.656611   288A      4.003457
     289A      4.008734   290A      4.165080

    Final Occupation by Irrep:
              A
    DOCC [    54 ]

  @RHF Final Energy:  -614.37795764046666

   => Energetics <=

    Nuclear Repulsion Energy =            877.3044179210183984
    One-Electron Energy =               -2573.9751681881666627
    Two-Electron Energy =                1082.2927926266818304
    Total Energy =                       -614.3779576404665477

Computation Completed

Properties will be evaluated at   0.000000,   0.000000,   0.000000 [a0]

Properties computed using the SCF density matrix

  Nuclear Dipole Moment: [e a0]
     X:    -4.9343      Y:    -8.0603      Z:    -6.9214

  Electronic Dipole Moment: [e a0]
     X:     4.3411      Y:     7.8746      Z:     6.9505

  Dipole Moment: [e a0]
     X:    -0.5933      Y:    -0.1857      Z:     0.0291     Total:     0.6224

  Dipole Moment: [D]
     X:    -1.5080      Y:    -0.4721      Z:     0.0739     Total:     1.5819

*** tstop() called on ds3 at Mon Apr 27 22:19:00 2020
Module time:
	user time   =     361.00 seconds =       6.02 minutes
	system time =     134.13 seconds =       2.24 minutes
	total time  =        627 seconds =      10.45 minutes
Total time:
	user time   =     361.00 seconds =       6.02 minutes
	system time =     134.13 seconds =       2.24 minutes
	total time  =        627 seconds =      10.45 minutes
                                     G D M A

                                 by Anthony Stone

                           version 2.2.06, 22 June 2011

               Distributed Multipoles from Gaussian wavefunctions

Starting at 22:19:0 on 27 Apr 2020

Using SCF density matrix from file ./SSI/SSI-042PHE-092TYR-1-dimer.test.348.fchk

                         Distributed Multipole Analysis

Standard DMA

Positions and radii in angstrom
Multipole moments in atomic units, ea_0^k for rank k

C          x = -0.911775  y = -5.223879  z = -1.469146 angstrom
           Maximum rank =  0   Radius =  0.650 angstrom
                   Q00  =  -0.195017

C          x =  0.519225  y = -1.363879  z = -0.416146 angstrom
           Maximum rank =  0   Radius =  0.650 angstrom
                   Q00  =  -0.090446

C          x =  1.398225  y = -2.280879  z = -0.996146 angstrom
           Maximum rank =  0   Radius =  0.650 angstrom
                   Q00  =  -0.072258

C          x = -0.801775  y = -1.707879  z = -0.217146 angstrom
           Maximum rank =  0   Radius =  0.650 angstrom
                   Q00  =   0.007940

C          x =  0.923225  y = -3.549879  z = -1.353146 angstrom
           Maximum rank =  0   Radius =  0.650 angstrom
                   Q00  =  -0.100724

C          x = -1.261775  y = -2.949879  z = -0.569146 angstrom
           Maximum rank =  0   Radius =  0.650 angstrom
                   Q00  =  -0.089126

C          x = -0.408775  y = -3.872879  z = -1.140146 angstrom
           Maximum rank =  0   Radius =  0.650 angstrom
                   Q00  =  -0.054647

H          x =  0.872225  y = -0.381879  z = -0.129146 angstrom
           Maximum rank =  0   Radius =  0.325 angstrom
                   Q00  =   0.072582

H          x =  2.435225  y = -2.017879  z = -1.156146 angstrom
           Maximum rank =  0   Radius =  0.325 angstrom
                   Q00  =   0.064879

H          x = -1.478775  y = -0.990879  z =  0.225854 angstrom
           Maximum rank =  0   Radius =  0.325 angstrom
                   Q00  =   0.056187

H          x =  1.596225  y = -4.273879  z = -1.791146 angstrom
           Maximum rank =  0   Radius =  0.325 angstrom
                   Q00  =   0.055047

H          x = -2.296775  y = -3.201879  z = -0.386146 angstrom
           Maximum rank =  0   Radius =  0.325 angstrom
                   Q00  =   0.050358

H          x = -0.506775  y = -5.524879  z = -2.431146 angstrom
           Maximum rank =  0   Radius =  0.325 angstrom
                   Q00  =   0.096709

H          x = -1.996775  y = -5.198879  z = -1.568146 angstrom
           Maximum rank =  0   Radius =  0.325 angstrom
                   Q00  =   0.093261

H          x = -0.648736  y = -5.966749  z = -0.701706 angstrom
           Maximum rank =  0   Radius =  0.325 angstrom
                   Q00  =   0.101993

C          x = -1.232775  y =  1.888121  z = -1.772146 angstrom
           Maximum rank =  0   Radius =  0.650 angstrom
                   Q00  =  -0.190590

C          x = -0.529775  y =  2.228121  z = -0.484146 angstrom
           Maximum rank =  0   Radius =  0.650 angstrom
                   Q00  =  -0.142076

C          x = -1.233775  y =  2.222121  z =  0.709854 angstrom
           Maximum rank =  0   Radius =  0.650 angstrom
                   Q00  =  -0.013971

C          x =  0.808225  y =  2.623121  z = -0.459146 angstrom
           Maximum rank =  0   Radius =  0.650 angstrom
                   Q00  =  -0.055819

C          x = -0.607775  y =  2.547121  z =  1.901854 angstrom
           Maximum rank =  0   Radius =  0.650 angstrom
                   Q00  =  -0.108851

C          x =  1.422225  y =  2.962121  z =  0.755854 angstrom
           Maximum rank =  0   Radius =  0.650 angstrom
                   Q00  =  -0.075904

C          x =  0.705225  y =  2.907121  z =  1.927854 angstrom
           Maximum rank =  0   Radius =  0.650 angstrom
                   Q00  =   0.263235

O          x =  1.241225  y =  3.222121  z =  3.152854 angstrom
           Maximum rank =  0   Radius =  0.650 angstrom
                   Q00  =  -0.661099

H          x = -1.687775  y =  0.904121  z = -1.651146 angstrom
           Maximum rank =  0   Radius =  0.325 angstrom
                   Q00  =   0.099988

H          x = -0.507775  y =  1.823121  z = -2.583146 angstrom
           Maximum rank =  0   Radius =  0.325 angstrom
                   Q00  =   0.101088

H          x = -2.285775  y =  1.964121  z =  0.714854 angstrom
           Maximum rank =  0   Radius =  0.325 angstrom
                   Q00  =   0.065282

H          x =  1.378225  y =  2.664121  z = -1.377146 angstrom
           Maximum rank =  0   Radius =  0.325 angstrom
                   Q00  =   0.067684

H          x = -1.168775  y =  2.625121  z =  2.808854 angstrom
           Maximum rank =  0   Radius =  0.325 angstrom
                   Q00  =   0.063554

H          x =  2.457225  y =  3.265121  z =  0.777854 angstrom
           Maximum rank =  0   Radius =  0.325 angstrom
                   Q00  =   0.081758

H          x =  0.585225  y =  3.076121  z =  3.864854 angstrom
           Maximum rank =  0   Radius =  0.325 angstrom
                   Q00  =   0.411909

H          x = -2.016241  y =  2.620551  z = -2.016526 angstrom
           Maximum rank =  0   Radius =  0.325 angstrom
                   Q00  =   0.097075

Total multipoles referred to origin at
           x =   0.000000,  y =    0.000000,  z =    0.000000 angstrom
                   Q00  =  -0.000000

Finished at 22:19:0 on 27 Apr 2020

  DMA results are available in the Python driver through the
	  variable('DMA DISTRIBUTED MULTIPOLES')
  and
	  variable('DMA TOTAL MULTIPOLES')
  commands.

    Psi4 stopped on: Monday, 27 April 2020 10:19PM
    Psi4 wall time for execution: 0:10:26.72

*** Psi4 exiting successfully. Buy a developer a beer!
