                               Psi4 1.3.2 release

  ==> Input File <==

--------------------------------------------------------------------------
import numpy as np
set {scf_type pk
basis cc-pvdz
d_convergence 10
gdma_switch   0
gdma_limit    0
gdma_origin   [ 0.0,  0.0,  0.0 ]
}
molecule test {
    units Angstrom
    0 1
    --
    0 1
    C               -0.627347580739642     1.233160908209038    -1.206849561715822
    C                0.849652419260358     1.100160908209038    -1.529849561715823
    C               -1.266347580739642     0.070160908209038    -1.949849561715822
    H               -1.000347580739642     2.174160908209038    -1.608849561715822
    H               -0.813347580739642     1.182160908209038    -0.133849561715823
    H                1.303652419260358     2.089160908209038    -1.592849561715822
    H                1.341652419260358     0.492160908209038    -0.771849561715822
    H               -2.326347580739642     0.236160908209038    -2.141849561715822
    H               -1.132347580739641    -0.841839091790962    -1.366849561715823
    H                0.868362419260358     0.568000908209038    -2.492375561715823
    H               -0.679437580739642    -0.000589091790962    -2.877499561715823
    C                0.738652419260358    -0.679839091790962     1.770150438284178
    C                0.256652419260358    -1.633839091790962     2.849150438284177
    H                1.826652419260358    -0.653839091790962     1.746150438284177
    H                0.372652419260358    -1.013839091790962     0.799150438284178
    H                0.366652419260358     0.327160908209038     1.967150438284177
    H                0.600652419260358    -2.631839091790962     2.587150438284177
    H                0.694842419260358    -1.344579091790962     3.815749438284177
    H               -0.842977580739642    -1.651729091790962     2.871329438284178

}
e, wfn = energy('scf', return_wfn=True)
gdma(wfn)
dmavals = variable('DMA DISTRIBUTED MULTIPOLES')
charges = np.array(dmavals)
print(charges)
np.save('SSI-028PRO-111LEU-1-dimer.npy', np.array(charges))--------------------------------------------------------------------------

*** tstart() called on ds3
*** at Tue Apr 28 00:40:24 2020

   => Loading Basis Set <=

    Name: CC-PVDZ
    Role: ORBITAL
    Keyword: BASIS
    atoms 1-3, 12-13  entry C          line   138 file /theoryfs2/ds/metcalf/miniconda2/envs/tf2gpu/share/psi4/basis/cc-pvdz.gbs
    atoms 4-11, 14-19 entry H          line    22 file /theoryfs2/ds/metcalf/miniconda2/envs/tf2gpu/share/psi4/basis/cc-pvdz.gbs

         ---------------------------------------------------------
                                   SCF
               by Justin Turney, Rob Parrish, Andy Simmonett
                          and Daniel G. A. Smith
                              RHF Reference
                        1 Threads,    500 MiB Core
         ---------------------------------------------------------

  ==> Geometry <==

    Molecular point group: c1
    Full point group: C1

    Geometry (in Angstrom), charge = 0, multiplicity = 1:

       Center              X                  Y                   Z               Mass
    ------------   -----------------  -----------------  -----------------  -----------------
         C           -0.627347580740     1.233160908209    -1.206849561716    12.000000000000
         C            0.849652419260     1.100160908209    -1.529849561716    12.000000000000
         C           -1.266347580740     0.070160908209    -1.949849561716    12.000000000000
         H           -1.000347580740     2.174160908209    -1.608849561716     1.007825032230
         H           -0.813347580740     1.182160908209    -0.133849561716     1.007825032230
         H            1.303652419260     2.089160908209    -1.592849561716     1.007825032230
         H            1.341652419260     0.492160908209    -0.771849561716     1.007825032230
         H           -2.326347580740     0.236160908209    -2.141849561716     1.007825032230
         H           -1.132347580740    -0.841839091791    -1.366849561716     1.007825032230
         H            0.868362419260     0.568000908209    -2.492375561716     1.007825032230
         H           -0.679437580740    -0.000589091791    -2.877499561716     1.007825032230
         C            0.738652419260    -0.679839091791     1.770150438284    12.000000000000
         C            0.256652419260    -1.633839091791     2.849150438284    12.000000000000
         H            1.826652419260    -0.653839091791     1.746150438284     1.007825032230
         H            0.372652419260    -1.013839091791     0.799150438284     1.007825032230
         H            0.366652419260     0.327160908209     1.967150438284     1.007825032230
         H            0.600652419260    -2.631839091791     2.587150438284     1.007825032230
         H            0.694842419260    -1.344579091791     3.815749438284     1.007825032230
         H           -0.842977580740    -1.651729091791     2.871329438284     1.007825032230

  Running in c1 symmetry.

  Rotational constants: A =      0.23055  B =      0.04345  C =      0.03944 [cm^-1]
  Rotational constants: A =   6911.73896  B =   1302.61351  C =   1182.51436 [MHz]
  Nuclear repulsion =  181.871494446979710

  Charge       = 0
  Multiplicity = 1
  Electrons    = 44
  Nalpha       = 22
  Nbeta        = 22

  ==> Algorithm <==

  SCF Algorithm Type is PK.
  DIIS enabled.
  MOM disabled.
  Fractional occupation disabled.
  Guess Type is SAD.
  Energy threshold   = 1.00e-06
  Density threshold  = 1.00e-10
  Integral threshold = 0.00e+00

  ==> Primary Basis <==

  Basis Set: CC-PVDZ
    Blend: CC-PVDZ
    Number of shells: 72
    Number of basis function: 140
    Number of Cartesian functions: 145
    Spherical Harmonics?: true
    Max angular momentum: 2

  ==> Pre-Iterations <==

   -------------------------------------------------------
    Irrep   Nso     Nmo     Nalpha   Nbeta   Ndocc  Nsocc
   -------------------------------------------------------
     A        140     140       0       0       0       0
   -------------------------------------------------------
    Total     140     140      22      22      22       0
   -------------------------------------------------------

  ==> Integral Setup <==

  Using integral reordering PK algorithm.
  Sizing the integral batches needed.
  Building batch lookup table.
   Calculation information:
      Number of atoms:                  19
      Number of AO shells:              72
      Number of primitives:            180
      Number of atomic orbitals:       145
      Number of basis functions:       140

      Integral cutoff                 1.00e-12
      Number of threads:                 1

	Batch   1 pq = [       0,    9405] index = [             0,44231715] size =     44231715
	Batch   2 pq = [    9405,    9870] index = [      44231715,48713385] size =      4481670
  Task number: 5
  Buffer size: 11059200
  Buffer per thread: 2
  We computed 2946665 shell quartets total.
  Whereas there are 3454506 unique shell quartets.

  ==> DiskJK: Disk-Based J/K Matrices <==

    J tasked:                  Yes
    K tasked:                  Yes
    wK tasked:                  No
    Memory [MiB]:              375
    Schwarz Cutoff:          1E-12

    OpenMP threads:              1

  Minimum eigenvalue in the overlap matrix is 5.0622147906E-03.
  Using Symmetric Orthogonalization.

  SCF Guess: Superposition of Atomic Densities via on-the-fly atomic UHF.

  ==> Iterations <==

                        Total Energy        Delta E     RMS |[F,P]|

   @RHF iter SAD:  -196.53778148036091   -1.96538e+02   0.00000e+00
   @RHF iter   1:  -197.28968883845587   -7.51907e-01   3.86407e-03 DIIS
   @RHF iter   2:  -197.45238454867240   -1.62696e-01   1.67914e-03 DIIS
   @RHF iter   3:  -197.48200250903258   -2.96180e-02   3.30152e-04 DIIS
   @RHF iter   4:  -197.48423844885298   -2.23594e-03   5.01982e-05 DIIS
   @RHF iter   5:  -197.48427979982452   -4.13510e-05   1.55987e-05 DIIS
   @RHF iter   6:  -197.48428355610872   -3.75628e-06   2.55463e-06 DIIS
   @RHF iter   7:  -197.48428367767985   -1.21571e-07   4.73362e-07 DIIS
   @RHF iter   8:  -197.48428368204199   -4.36214e-09   1.08995e-07 DIIS
   @RHF iter   9:  -197.48428368226661   -2.24617e-10   3.41026e-08 DIIS
   @RHF iter  10:  -197.48428368229062   -2.40163e-11   7.59543e-09 DIIS
   @RHF iter  11:  -197.48428368229204   -1.42109e-12   1.48559e-09 DIIS
   @RHF iter  12:  -197.48428368229207   -2.84217e-14   3.00416e-10 DIIS
   @RHF iter  13:  -197.48428368229247   -3.97904e-13   6.38403e-11 DIIS
  Energy and wave function converged.

  ==> Post-Iterations <==

    Orbital Energies [Eh]
    ---------------------

    Doubly Occupied:

       1A    -11.219745     2A    -11.217633     3A    -11.213602
       4A    -11.212859     5A    -11.209672     6A     -1.065297
       7A     -1.023252     8A     -0.913167     9A     -0.837050
      10A     -0.797738    11A     -0.636299    12A     -0.612792
      13A     -0.602812    14A     -0.600212    15A     -0.541934
      16A     -0.512607    17A     -0.500258    18A     -0.489745
      19A     -0.487499    20A     -0.480045    21A     -0.465937
      22A     -0.457101

    Virtual:

      23A      0.172228    24A      0.198624    25A      0.219320
      26A      0.225535    27A      0.230411    28A      0.244135
      29A      0.252528    30A      0.270373    31A      0.280059
      32A      0.282852    33A      0.314819    34A      0.317672
      35A      0.329710    36A      0.350875    37A      0.399181
      38A      0.414226    39A      0.436325    40A      0.570873
      41A      0.592304    42A      0.597960    43A      0.603600
      44A      0.621641    45A      0.634818    46A      0.649434
      47A      0.680647    48A      0.695287    49A      0.733342
      50A      0.809605    51A      0.831601    52A      0.845974
      53A      0.855934    54A      0.877742    55A      0.888211
      56A      0.892288    57A      0.894187    58A      0.897263
      59A      0.899641    60A      0.913514    61A      0.914623
      62A      0.921956    63A      0.934497    64A      0.954479
      65A      0.957998    66A      0.965911    67A      0.999795
      68A      1.035565    69A      1.085686    70A      1.116716
      71A      1.128894    72A      1.152840    73A      1.232119
      74A      1.252580    75A      1.402624    76A      1.459684
      77A      1.477751    78A      1.490246    79A      1.497245
      80A      1.583869    81A      1.614072    82A      1.629243
      83A      1.638094    84A      1.674297    85A      1.691322
      86A      1.727453    87A      1.735026    88A      1.798667
      89A      1.844496    90A      1.868308    91A      1.875948
      92A      1.887296    93A      1.912636    94A      1.917523
      95A      1.929570    96A      1.937211    97A      1.947711
      98A      1.949168    99A      1.957267   100A      1.965634
     101A      1.976381   102A      1.987641   103A      2.002221
     104A      2.018335   105A      2.032809   106A      2.066280
     107A      2.098152   108A      2.099371   109A      2.121517
     110A      2.172408   111A      2.219183   112A      2.231525
     113A      2.296241   114A      2.304424   115A      2.337195
     116A      2.362192   117A      2.427848   118A      2.453181
     119A      2.467537   120A      2.484267   121A      2.511378
     122A      2.558086   123A      2.565853   124A      2.575050
     125A      2.640980   126A      2.700496   127A      2.755638
     128A      2.763920   129A      2.788540   130A      2.796938
     131A      2.812184   132A      2.841710   133A      2.848071
     134A      2.854710   135A      2.867700   136A      2.926149
     137A      2.943830   138A      2.961729   139A      2.980125
     140A      3.051223

    Final Occupation by Irrep:
              A
    DOCC [    22 ]

  @RHF Final Energy:  -197.48428368229247

   => Energetics <=

    Nuclear Repulsion Energy =            181.8714944469797103
    One-Electron Energy =                -624.5170466247816421
    Two-Electron Energy =                 245.1612684955094892
    Total Energy =                       -197.4842836822924710

Computation Completed

Properties will be evaluated at   0.000000,   0.000000,   0.000000 [a0]

Properties computed using the SCF density matrix

  Nuclear Dipole Moment: [e a0]
     X:     0.5440      Y:    -1.0024      Z:     0.7506

  Electronic Dipole Moment: [e a0]
     X:    -0.5427      Y:     1.0092      Z:    -0.7057

  Dipole Moment: [e a0]
     X:     0.0013      Y:     0.0068      Z:     0.0449     Total:     0.0455

  Dipole Moment: [D]
     X:     0.0033      Y:     0.0172      Z:     0.1143     Total:     0.1156

*** tstop() called on ds3 at Tue Apr 28 00:40:46 2020
Module time:
	user time   =      15.73 seconds =       0.26 minutes
	system time =       6.28 seconds =       0.10 minutes
	total time  =         22 seconds =       0.37 minutes
Total time:
	user time   =      15.73 seconds =       0.26 minutes
	system time =       6.28 seconds =       0.10 minutes
	total time  =         22 seconds =       0.37 minutes
                                     G D M A

                                 by Anthony Stone

                           version 2.2.06, 22 June 2011

               Distributed Multipoles from Gaussian wavefunctions

Starting at 0:40:46 on 28 Apr 2020

Using SCF density matrix from file ./SSI/SSI-028PRO-111LEU-1-dimer.test.7925.fchk

                         Distributed Multipole Analysis

Standard DMA

Positions and radii in angstrom
Multipole moments in atomic units, ea_0^k for rank k

C          x = -0.627348  y =  1.233161  z = -1.206850 angstrom
           Maximum rank =  0   Radius =  0.650 angstrom
                   Q00  =  -0.106196

C          x =  0.849652  y =  1.100161  z = -1.529850 angstrom
           Maximum rank =  0   Radius =  0.650 angstrom
                   Q00  =  -0.231927

C          x = -1.266348  y =  0.070161  z = -1.949850 angstrom
           Maximum rank =  0   Radius =  0.650 angstrom
                   Q00  =  -0.209610

H          x = -1.000348  y =  2.174161  z = -1.608850 angstrom
           Maximum rank =  0   Radius =  0.325 angstrom
                   Q00  =   0.054096

H          x = -0.813348  y =  1.182161  z = -0.133850 angstrom
           Maximum rank =  0   Radius =  0.325 angstrom
                   Q00  =   0.056912

H          x =  1.303652  y =  2.089161  z = -1.592850 angstrom
           Maximum rank =  0   Radius =  0.325 angstrom
                   Q00  =   0.085464

H          x =  1.341652  y =  0.492161  z = -0.771850 angstrom
           Maximum rank =  0   Radius =  0.325 angstrom
                   Q00  =   0.082602

H          x = -2.326348  y =  0.236161  z = -2.141850 angstrom
           Maximum rank =  0   Radius =  0.325 angstrom
                   Q00  =   0.081740

H          x = -1.132348  y = -0.841839  z = -1.366850 angstrom
           Maximum rank =  0   Radius =  0.325 angstrom
                   Q00  =   0.075384

H          x =  0.868362  y =  0.568001  z = -2.492376 angstrom
           Maximum rank =  0   Radius =  0.325 angstrom
                   Q00  =   0.058942

H          x = -0.679438  y = -0.000589  z = -2.877500 angstrom
           Maximum rank =  0   Radius =  0.325 angstrom
                   Q00  =   0.052001

C          x =  0.738652  y = -0.679839  z =  1.770150 angstrom
           Maximum rank =  0   Radius =  0.650 angstrom
                   Q00  =  -0.242007

C          x =  0.256652  y = -1.633839  z =  2.849150 angstrom
           Maximum rank =  0   Radius =  0.650 angstrom
                   Q00  =  -0.227805

H          x =  1.826652  y = -0.653839  z =  1.746150 angstrom
           Maximum rank =  0   Radius =  0.325 angstrom
                   Q00  =   0.079281

H          x =  0.372652  y = -1.013839  z =  0.799150 angstrom
           Maximum rank =  0   Radius =  0.325 angstrom
                   Q00  =   0.074805

H          x =  0.366652  y =  0.327161  z =  1.967150 angstrom
           Maximum rank =  0   Radius =  0.325 angstrom
                   Q00  =   0.078518

H          x =  0.600652  y = -2.631839  z =  2.587150 angstrom
           Maximum rank =  0   Radius =  0.325 angstrom
                   Q00  =   0.077368

H          x =  0.694842  y = -1.344579  z =  3.815749 angstrom
           Maximum rank =  0   Radius =  0.325 angstrom
                   Q00  =   0.080370

H          x = -0.842978  y = -1.651729  z =  2.871329 angstrom
           Maximum rank =  0   Radius =  0.325 angstrom
                   Q00  =   0.080063

Total multipoles referred to origin at
           x =   0.000000,  y =    0.000000,  z =    0.000000 angstrom
                   Q00  =  -0.000000

Finished at 0:40:46 on 28 Apr 2020

  DMA results are available in the Python driver through the
	  variable('DMA DISTRIBUTED MULTIPOLES')
  and
	  variable('DMA TOTAL MULTIPOLES')
  commands.

    Psi4 stopped on: Tuesday, 28 April 2020 12:40AM
    Psi4 wall time for execution: 0:00:21.76

*** Psi4 exiting successfully. Buy a developer a beer!
