                               Psi4 1.3.2 release

  ==> Input File <==

--------------------------------------------------------------------------
import numpy as np
set {scf_type pk
basis cc-pvdz
d_convergence 10
gdma_switch   0
gdma_limit    0
gdma_origin   [ 0.0,  0.0,  0.0 ]
}
molecule test {
    units Angstrom
    0 1
    --
    0 1
    C               -1.163047926324923    -0.119697362366155    -1.165342806557762
    C               -1.215047926324923    -1.282697362366155    -2.168342806557761
    O               -1.814047926324923    -0.418697362366155     0.047657193442239
    H               -0.122047926324923     0.134302637633845    -0.966342806557761
    H               -1.647047926324923     0.755302637633845    -1.601342806557762
    H               -2.256047926324924    -1.526697362366155    -2.374342806557761
    H               -1.537047926324923    -1.298697362366155     0.341657193442239
    H               -0.688377926324923    -2.154929562366156    -1.753822806557761
    H               -0.731457926324923    -0.926522362366155    -3.089912806557761
    C                1.508952073675077     0.946302637633845     1.203657193442239
    C                2.790952073675077     0.949302637633845     2.044657193442239
    H                0.639952073675077     1.167302637633845     1.823657193442239
    H                1.371952073675077    -0.017697362366155     0.716657193442239
    H                1.583952073675077     1.691302637633845     0.416657193442239
    H                2.839952073675077     1.901302637633845     2.573657193442239
    H                2.782412073675077     0.137748637633845     2.787157193442239
    H                3.671422073675076     0.909739637633845     1.386467193442239

}
e, wfn = energy('scf', return_wfn=True)
gdma(wfn)
dmavals = variable('DMA DISTRIBUTED MULTIPOLES')
charges = np.array(dmavals)
print(charges)
np.save('SSI-004SER-027VAL-1-dimer.npy', np.array(charges))--------------------------------------------------------------------------

*** tstart() called on ds3
*** at Mon Apr 27 13:59:31 2020

   => Loading Basis Set <=

    Name: CC-PVDZ
    Role: ORBITAL
    Keyword: BASIS
    atoms 1-2, 10-11 entry C          line   138 file /theoryfs2/ds/metcalf/miniconda2/envs/tf2gpu/share/psi4/basis/cc-pvdz.gbs
    atoms 3          entry O          line   198 file /theoryfs2/ds/metcalf/miniconda2/envs/tf2gpu/share/psi4/basis/cc-pvdz.gbs
    atoms 4-9, 12-17 entry H          line    22 file /theoryfs2/ds/metcalf/miniconda2/envs/tf2gpu/share/psi4/basis/cc-pvdz.gbs

         ---------------------------------------------------------
                                   SCF
               by Justin Turney, Rob Parrish, Andy Simmonett
                          and Daniel G. A. Smith
                              RHF Reference
                        1 Threads,    500 MiB Core
         ---------------------------------------------------------

  ==> Geometry <==

    Molecular point group: c1
    Full point group: C1

    Geometry (in Angstrom), charge = 0, multiplicity = 1:

       Center              X                  Y                   Z               Mass
    ------------   -----------------  -----------------  -----------------  -----------------
         C           -1.163047926325    -0.119697362366    -1.165342806558    12.000000000000
         C           -1.215047926325    -1.282697362366    -2.168342806558    12.000000000000
         O           -1.814047926325    -0.418697362366     0.047657193442    15.994914619570
         H           -0.122047926325     0.134302637634    -0.966342806558     1.007825032230
         H           -1.647047926325     0.755302637634    -1.601342806558     1.007825032230
         H           -2.256047926325    -1.526697362366    -2.374342806558     1.007825032230
         H           -1.537047926325    -1.298697362366     0.341657193442     1.007825032230
         H           -0.688377926325    -2.154929562366    -1.753822806558     1.007825032230
         H           -0.731457926325    -0.926522362366    -3.089912806558     1.007825032230
         C            1.508952073675     0.946302637634     1.203657193442    12.000000000000
         C            2.790952073675     0.949302637634     2.044657193442    12.000000000000
         H            0.639952073675     1.167302637634     1.823657193442     1.007825032230
         H            1.371952073675    -0.017697362366     0.716657193442     1.007825032230
         H            1.583952073675     1.691302637634     0.416657193442     1.007825032230
         H            2.839952073675     1.901302637634     2.573657193442     1.007825032230
         H            2.782412073675     0.137748637634     2.787157193442     1.007825032230
         H            3.671422073675     0.909739637634     1.386467193442     1.007825032230

  Running in c1 symmetry.

  Rotational constants: A =      0.28793  B =      0.03708  C =      0.03476 [cm^-1]
  Rotational constants: A =   8631.90959  B =   1111.50278  C =   1042.21125 [MHz]
  Nuclear repulsion =  176.967836356896896

  Charge       = 0
  Multiplicity = 1
  Electrons    = 44
  Nalpha       = 22
  Nbeta        = 22

  ==> Algorithm <==

  SCF Algorithm Type is PK.
  DIIS enabled.
  MOM disabled.
  Fractional occupation disabled.
  Guess Type is SAD.
  Energy threshold   = 1.00e-06
  Density threshold  = 1.00e-10
  Integral threshold = 0.00e+00

  ==> Primary Basis <==

  Basis Set: CC-PVDZ
    Blend: CC-PVDZ
    Number of shells: 66
    Number of basis function: 130
    Number of Cartesian functions: 135
    Spherical Harmonics?: true
    Max angular momentum: 2

  ==> Pre-Iterations <==

   -------------------------------------------------------
    Irrep   Nso     Nmo     Nalpha   Nbeta   Ndocc  Nsocc
   -------------------------------------------------------
     A        130     130       0       0       0       0
   -------------------------------------------------------
    Total     130     130      22      22      22       0
   -------------------------------------------------------

  ==> Integral Setup <==

  Using integral reordering PK algorithm.
  Sizing the integral batches needed.
  Building batch lookup table.
   Calculation information:
      Number of atoms:                  17
      Number of AO shells:              66
      Number of primitives:            170
      Number of atomic orbitals:       135
      Number of basis functions:       130

      Integral cutoff                 1.00e-12
      Number of threads:                 1

	Batch   1 pq = [       0,    8515] index = [             0,36256870] size =     36256870
  Task number: 4
  Buffer size: 11059200
  Buffer per thread: 2
  We computed 1887673 shell quartets total.
  Whereas there are 2445366 unique shell quartets.

  ==> DiskJK: Disk-Based J/K Matrices <==

    J tasked:                  Yes
    K tasked:                  Yes
    wK tasked:                  No
    Memory [MiB]:              375
    Schwarz Cutoff:          1E-12

    OpenMP threads:              1

  Minimum eigenvalue in the overlap matrix is 5.9450681862E-03.
  Using Symmetric Orthogonalization.

  SCF Guess: Superposition of Atomic Densities via on-the-fly atomic UHF.

  ==> Iterations <==

                        Total Energy        Delta E     RMS |[F,P]|

   @RHF iter SAD:  -232.08159225057773   -2.32082e+02   0.00000e+00
   @RHF iter   1:  -233.14456823814663   -1.06298e+00   4.17640e-03 DIIS
   @RHF iter   2:  -233.29307993134069   -1.48512e-01   1.91621e-03 DIIS
   @RHF iter   3:  -233.32066484828135   -2.75849e-02   3.83847e-04 DIIS
   @RHF iter   4:  -233.32275167240778   -2.08682e-03   1.23687e-04 DIIS
   @RHF iter   5:  -233.32289656846797   -1.44896e-04   2.54249e-05 DIIS
   @RHF iter   6:  -233.32290536683826   -8.79837e-06   4.87268e-06 DIIS
   @RHF iter   7:  -233.32290584922023   -4.82382e-07   1.18187e-06 DIIS
   @RHF iter   8:  -233.32290587937524   -3.01550e-08   4.00050e-07 DIIS
   @RHF iter   9:  -233.32290588255796   -3.18272e-09   1.05558e-07 DIIS
   @RHF iter  10:  -233.32290588280745   -2.49486e-10   2.08125e-08 DIIS
   @RHF iter  11:  -233.32290588281751   -1.00613e-11   5.10195e-09 DIIS
   @RHF iter  12:  -233.32290588281739    1.13687e-13   1.46786e-09 DIIS
   @RHF iter  13:  -233.32290588281742   -2.84217e-14   3.99068e-10 DIIS
   @RHF iter  14:  -233.32290588281822   -7.95808e-13   1.29204e-10 DIIS
   @RHF iter  15:  -233.32290588281774    4.83169e-13   3.87688e-11 DIIS
  Energy and wave function converged.

  ==> Post-Iterations <==

    Orbital Energies [Eh]
    ---------------------

    Doubly Occupied:

       1A    -20.547565     2A    -11.272235     3A    -11.227072
       4A    -11.219397     5A    -11.215512     6A     -1.352763
       7A     -1.016713     8A     -1.007076     9A     -0.844929
      10A     -0.836423    11A     -0.674685    12A     -0.622192
      13A     -0.607735    14A     -0.599234    15A     -0.593892
      16A     -0.538607    17A     -0.526973    18A     -0.498596
      19A     -0.488865    20A     -0.482904    21A     -0.472052
      22A     -0.429607

    Virtual:

      23A      0.169131    24A      0.193370    25A      0.213612
      26A      0.226588    27A      0.247486    28A      0.255445
      29A      0.260508    30A      0.262759    31A      0.276841
      32A      0.289305    33A      0.295361    34A      0.324767
      35A      0.376838    36A      0.398502    37A      0.419219
      38A      0.588560    39A      0.595169    40A      0.599608
      41A      0.607769    42A      0.644619    43A      0.667580
      44A      0.680197    45A      0.709619    46A      0.745523
      47A      0.784463    48A      0.806259    49A      0.854243
      50A      0.878327    51A      0.885832    52A      0.889663
      53A      0.893536    54A      0.899968    55A      0.902157
      56A      0.906793    57A      0.914439    58A      0.923778
      59A      0.930387    60A      0.967485    61A      0.980877
      62A      1.113615    63A      1.123876    64A      1.132393
      65A      1.155896    66A      1.223505    67A      1.234544
      68A      1.278720    69A      1.335125    70A      1.411536
      71A      1.463099    72A      1.469393    73A      1.481440
      74A      1.489867    75A      1.568175    76A      1.583174
      77A      1.660197    78A      1.678630    79A      1.679924
      80A      1.697656    81A      1.761738    82A      1.848858
      83A      1.863918    84A      1.870903    85A      1.877491
      86A      1.891631    87A      1.908551    88A      1.929074
      89A      1.930860    90A      1.944224    91A      1.946117
      92A      1.950904    93A      1.957001    94A      1.978041
      95A      1.992347    96A      2.028753    97A      2.039474
      98A      2.095438    99A      2.111738   100A      2.123883
     101A      2.169943   102A      2.264870   103A      2.275594
     104A      2.310401   105A      2.324495   106A      2.345877
     107A      2.431359   108A      2.446609   109A      2.470278
     110A      2.503335   111A      2.535983   112A      2.555620
     113A      2.561236   114A      2.576782   115A      2.757307
     116A      2.758575   117A      2.772553   118A      2.790928
     119A      2.814374   120A      2.842715   121A      2.864268
     122A      2.878559   123A      2.927241   124A      2.939765
     125A      2.978536   126A      3.309706   127A      3.414353
     128A      3.454185   129A      3.657560   130A      4.100838

    Final Occupation by Irrep:
              A
    DOCC [    22 ]

  @RHF Final Energy:  -233.32290588281774

   => Energetics <=

    Nuclear Repulsion Energy =            176.9678363568968962
    One-Electron Energy =                -666.4314312575979784
    Two-Electron Energy =                 256.1406890178833464
    Total Energy =                       -233.3229058828177358

Computation Completed

Properties will be evaluated at   0.000000,   0.000000,   0.000000 [a0]

Properties computed using the SCF density matrix

  Nuclear Dipole Moment: [e a0]
     X:     5.5295      Y:     0.7221      Z:     0.2441

  Electronic Dipole Moment: [e a0]
     X:    -5.1365      Y:    -1.1007      Z:    -0.5716

  Dipole Moment: [e a0]
     X:     0.3930      Y:    -0.3786      Z:    -0.3275     Total:     0.6364

  Dipole Moment: [D]
     X:     0.9988      Y:    -0.9622      Z:    -0.8324     Total:     1.6175

*** tstop() called on ds3 at Mon Apr 27 13:59:47 2020
Module time:
	user time   =      11.19 seconds =       0.19 minutes
	system time =       5.31 seconds =       0.09 minutes
	total time  =         16 seconds =       0.27 minutes
Total time:
	user time   =      11.19 seconds =       0.19 minutes
	system time =       5.31 seconds =       0.09 minutes
	total time  =         16 seconds =       0.27 minutes
                                     G D M A

                                 by Anthony Stone

                           version 2.2.06, 22 June 2011

               Distributed Multipoles from Gaussian wavefunctions

Starting at 13:59:47 on 27 Apr 2020

Using SCF density matrix from file ./SSI/SSI-004SER-027VAL-1-dimer.test.8444.fchk

                         Distributed Multipole Analysis

Standard DMA

Positions and radii in angstrom
Multipole moments in atomic units, ea_0^k for rank k

C          x = -1.163048  y = -0.119697  z = -1.165343 angstrom
           Maximum rank =  0   Radius =  0.650 angstrom
                   Q00  =   0.134515

C          x = -1.215048  y = -1.282697  z = -2.168343 angstrom
           Maximum rank =  0   Radius =  0.650 angstrom
                   Q00  =  -0.257146

O          x = -1.814048  y = -0.418697  z =  0.047657 angstrom
           Maximum rank =  0   Radius =  0.650 angstrom
                   Q00  =  -0.618082

H          x = -0.122048  y =  0.134303  z = -0.966343 angstrom
           Maximum rank =  0   Radius =  0.325 angstrom
                   Q00  =   0.020233

H          x = -1.647048  y =  0.755303  z = -1.601343 angstrom
           Maximum rank =  0   Radius =  0.325 angstrom
                   Q00  =   0.081483

H          x = -2.256048  y = -1.526697  z = -2.374343 angstrom
           Maximum rank =  0   Radius =  0.325 angstrom
                   Q00  =   0.090253

H          x = -1.537048  y = -1.298697  z =  0.341657 angstrom
           Maximum rank =  0   Radius =  0.325 angstrom
                   Q00  =   0.379789

H          x = -0.688378  y = -2.154930  z = -1.753823 angstrom
           Maximum rank =  0   Radius =  0.325 angstrom
                   Q00  =   0.073233

H          x = -0.731458  y = -0.926522  z = -3.089913 angstrom
           Maximum rank =  0   Radius =  0.325 angstrom
                   Q00  =   0.088682

C          x =  1.508952  y =  0.946303  z =  1.203657 angstrom
           Maximum rank =  0   Radius =  0.650 angstrom
                   Q00  =  -0.233193

C          x =  2.790952  y =  0.949303  z =  2.044657 angstrom
           Maximum rank =  0   Radius =  0.650 angstrom
                   Q00  =  -0.230035

H          x =  0.639952  y =  1.167303  z =  1.823657 angstrom
           Maximum rank =  0   Radius =  0.325 angstrom
                   Q00  =   0.089063

H          x =  1.371952  y = -0.017697  z =  0.716657 angstrom
           Maximum rank =  0   Radius =  0.325 angstrom
                   Q00  =   0.065292

H          x =  1.583952  y =  1.691303  z =  0.416657 angstrom
           Maximum rank =  0   Radius =  0.325 angstrom
                   Q00  =   0.076863

H          x =  2.839952  y =  1.901303  z =  2.573657 angstrom
           Maximum rank =  0   Radius =  0.325 angstrom
                   Q00  =   0.078894

H          x =  2.782412  y =  0.137749  z =  2.787157 angstrom
           Maximum rank =  0   Radius =  0.325 angstrom
                   Q00  =   0.081776

H          x =  3.671422  y =  0.909740  z =  1.386467 angstrom
           Maximum rank =  0   Radius =  0.325 angstrom
                   Q00  =   0.078380

Total multipoles referred to origin at
           x =   0.000000,  y =    0.000000,  z =    0.000000 angstrom
                   Q00  =  -0.000000

Finished at 13:59:47 on 27 Apr 2020

  DMA results are available in the Python driver through the
	  variable('DMA DISTRIBUTED MULTIPOLES')
  and
	  variable('DMA TOTAL MULTIPOLES')
  commands.

    Psi4 stopped on: Monday, 27 April 2020 01:59PM
    Psi4 wall time for execution: 0:00:16.20

*** Psi4 exiting successfully. Buy a developer a beer!
