                               Psi4 1.3.2 release

  ==> Input File <==

--------------------------------------------------------------------------
import numpy as np
set {scf_type pk
basis cc-pvdz
d_convergence 10
gdma_switch   0
gdma_limit    0
gdma_origin   [ 0.0,  0.0,  0.0 ]
}
molecule test {
    units Angstrom
    0 1
    --
    0 1
    C               -0.187676946095521     0.570476431265818    -1.516303086984387
    C                0.907323053904479     0.946476431265818    -2.514303086984387
    C                0.280323053904479    -0.264523568734182    -0.362303086984387
    C                0.005323053904479     0.139476431265818     0.933696913015613
    C                0.949323053904479    -1.461523568734182    -0.549303086984387
    C                0.425323053904479    -0.609523568734182     2.019696913015613
    C                1.366323053904479    -2.220523568734182     0.545696913015613
    C                1.115323053904479    -1.784523568734182     1.824696913015613
    O                1.534323053904479    -2.538523568734182     2.883696913015614
    H               -0.641676946095521     1.482476431265818    -1.134303086984387
    H               -0.964676946095521     0.012476431265818    -2.039303086984387
    H                1.326323053904479     0.029476431265818    -2.920303086984387
    H               -0.521676946095521     1.068476431265818     1.109696913015613
    H                1.149323053904479    -1.816523568734182    -1.550303086984387
    H                0.213323053904479    -0.266523568734182     3.021696913015613
    H                1.894323053904479    -3.149523568734182     0.398696913015613
    H                1.285323053904479    -2.146523568734182     3.727696913015614
    H                1.691795053904479     1.531251431265818    -2.011668086984387
    H                0.455872053904479     1.519667431265818    -3.337495086984386
    C               -3.135676946095521     2.955476431265818    -2.205303086984386
    C               -2.769676946095521     3.610476431265818    -0.857303086984387
    H               -2.307676946095521     2.358476431265818    -2.578303086984386
    H               -3.996676946095520     2.302476431265818    -2.059303086984387
    H               -3.405676946095521     3.707476431265818    -2.942303086984386
    H               -2.654676946095521     2.805476431265818    -0.130303086984387
    H               -3.600676946095521     4.236476431265819    -0.529303086984387
    H               -1.845702946095521     4.207253431265818    -0.868684086984387

}
e, wfn = energy('scf', return_wfn=True)
gdma(wfn)
dmavals = variable('DMA DISTRIBUTED MULTIPOLES')
charges = np.array(dmavals)
print(charges)
np.save('SSI-044TYR-059ILE-1-dimer.npy', np.array(charges))--------------------------------------------------------------------------

*** tstart() called on ds3
*** at Mon Apr 27 16:32:47 2020

   => Loading Basis Set <=

    Name: CC-PVDZ
    Role: ORBITAL
    Keyword: BASIS
    atoms 1-8, 20-21   entry C          line   138 file /theoryfs2/ds/metcalf/miniconda2/envs/tf2gpu/share/psi4/basis/cc-pvdz.gbs
    atoms 9            entry O          line   198 file /theoryfs2/ds/metcalf/miniconda2/envs/tf2gpu/share/psi4/basis/cc-pvdz.gbs
    atoms 10-19, 22-27 entry H          line    22 file /theoryfs2/ds/metcalf/miniconda2/envs/tf2gpu/share/psi4/basis/cc-pvdz.gbs

         ---------------------------------------------------------
                                   SCF
               by Justin Turney, Rob Parrish, Andy Simmonett
                          and Daniel G. A. Smith
                              RHF Reference
                        1 Threads,    500 MiB Core
         ---------------------------------------------------------

  ==> Geometry <==

    Molecular point group: c1
    Full point group: C1

    Geometry (in Angstrom), charge = 0, multiplicity = 1:

       Center              X                  Y                   Z               Mass
    ------------   -----------------  -----------------  -----------------  -----------------
         C           -0.187676946096     0.570476431266    -1.516303086984    12.000000000000
         C            0.907323053904     0.946476431266    -2.514303086984    12.000000000000
         C            0.280323053904    -0.264523568734    -0.362303086984    12.000000000000
         C            0.005323053904     0.139476431266     0.933696913016    12.000000000000
         C            0.949323053904    -1.461523568734    -0.549303086984    12.000000000000
         C            0.425323053904    -0.609523568734     2.019696913016    12.000000000000
         C            1.366323053904    -2.220523568734     0.545696913016    12.000000000000
         C            1.115323053904    -1.784523568734     1.824696913016    12.000000000000
         O            1.534323053904    -2.538523568734     2.883696913016    15.994914619570
         H           -0.641676946096     1.482476431266    -1.134303086984     1.007825032230
         H           -0.964676946096     0.012476431266    -2.039303086984     1.007825032230
         H            1.326323053904     0.029476431266    -2.920303086984     1.007825032230
         H           -0.521676946096     1.068476431266     1.109696913016     1.007825032230
         H            1.149323053904    -1.816523568734    -1.550303086984     1.007825032230
         H            0.213323053904    -0.266523568734     3.021696913016     1.007825032230
         H            1.894323053904    -3.149523568734     0.398696913016     1.007825032230
         H            1.285323053904    -2.146523568734     3.727696913016     1.007825032230
         H            1.691795053904     1.531251431266    -2.011668086984     1.007825032230
         H            0.455872053904     1.519667431266    -3.337495086984     1.007825032230
         C           -3.135676946096     2.955476431266    -2.205303086984    12.000000000000
         C           -2.769676946096     3.610476431266    -0.857303086984    12.000000000000
         H           -2.307676946096     2.358476431266    -2.578303086984     1.007825032230
         H           -3.996676946096     2.302476431266    -2.059303086984     1.007825032230
         H           -3.405676946096     3.707476431266    -2.942303086984     1.007825032230
         H           -2.654676946096     2.805476431266    -0.130303086984     1.007825032230
         H           -3.600676946096     4.236476431266    -0.529303086984     1.007825032230
         H           -1.845702946096     4.207253431266    -0.868684086984     1.007825032230

  Running in c1 symmetry.

  Rotational constants: A =      0.06189  B =      0.01370  C =      0.01172 [cm^-1]
  Rotational constants: A =   1855.40022  B =    410.68658  C =    351.48645 [MHz]
  Nuclear repulsion =  573.642019067964384

  Charge       = 0
  Multiplicity = 1
  Electrons    = 84
  Nalpha       = 42
  Nbeta        = 42

  ==> Algorithm <==

  SCF Algorithm Type is PK.
  DIIS enabled.
  MOM disabled.
  Fractional occupation disabled.
  Guess Type is SAD.
  Energy threshold   = 1.00e-06
  Density threshold  = 1.00e-10
  Integral threshold = 0.00e+00

  ==> Primary Basis <==

  Basis Set: CC-PVDZ
    Blend: CC-PVDZ
    Number of shells: 114
    Number of basis function: 234
    Number of Cartesian functions: 245
    Spherical Harmonics?: true
    Max angular momentum: 2

  ==> Pre-Iterations <==

   -------------------------------------------------------
    Irrep   Nso     Nmo     Nalpha   Nbeta   Ndocc  Nsocc
   -------------------------------------------------------
     A        234     234       0       0       0       0
   -------------------------------------------------------
    Total     234     234      42      42      42       0
   -------------------------------------------------------

  ==> Integral Setup <==

  Using integral reordering PK algorithm.
  Sizing the integral batches needed.
  Building batch lookup table.
   Calculation information:
      Number of atoms:                  27
      Number of AO shells:             114
      Number of primitives:            322
      Number of atomic orbitals:       245
      Number of basis functions:       234

      Integral cutoff                 1.00e-12
      Number of threads:                 1

	Batch   1 pq = [       0,    9405] index = [             0,44231715] size =     44231715
	Batch   2 pq = [    9405,   13301] index = [      44231715,88464951] size =     44233236
	Batch   3 pq = [   13301,   16290] index = [      88464951,132690195] size =     44225244
	Batch   4 pq = [   16290,   18810] index = [     132690195,176917455] size =     44227260
	Batch   5 pq = [   18810,   21030] index = [     176917455,221140965] size =     44223510
	Batch   6 pq = [   21030,   23037] index = [     221140965,265363203] size =     44222238
	Batch   7 pq = [   23037,   24883] index = [     265363203,309594286] size =     44231083
	Batch   8 pq = [   24883,   26601] index = [     309594286,353819901] size =     44225615
	Batch   9 pq = [   26601,   27495] index = [     353819901,378001260] size =     24181359
  Task number: 35
  Buffer size: 11059200
  Buffer per thread: 2
  We computed 18243259 shell quartets total.
  Whereas there are 21487290 unique shell quartets.

  ==> DiskJK: Disk-Based J/K Matrices <==

    J tasked:                  Yes
    K tasked:                  Yes
    wK tasked:                  No
    Memory [MiB]:              375
    Schwarz Cutoff:          1E-12

    OpenMP threads:              1

  Minimum eigenvalue in the overlap matrix is 2.9870323928E-04.
  Using Symmetric Orthogonalization.

  SCF Guess: Superposition of Atomic Densities via on-the-fly atomic UHF.

  ==> Iterations <==

                        Total Energy        Delta E     RMS |[F,P]|

   @RHF iter SAD:  -461.81317688635778   -4.61813e+02   0.00000e+00
   @RHF iter   1:  -462.60762841397906   -7.94452e-01   2.81199e-03 DIIS
   @RHF iter   2:  -462.84882715951073   -2.41199e-01   1.18823e-03 DIIS
   @RHF iter   3:  -462.88799215597737   -3.91650e-02   2.70371e-04 DIIS
   @RHF iter   4:  -462.89123272345455   -3.24057e-03   1.12802e-04 DIIS
   @RHF iter   5:  -462.89163682888483   -4.04105e-04   1.93059e-05 DIIS
   @RHF iter   6:  -462.89165608424378   -1.92554e-05   5.13112e-06 DIIS
   @RHF iter   7:  -462.89165741174384   -1.32750e-06   1.84300e-06 DIIS
   @RHF iter   8:  -462.89165758665786   -1.74914e-07   6.24502e-07 DIIS
   @RHF iter   9:  -462.89165761001584   -2.33580e-08   1.85715e-07 DIIS
   @RHF iter  10:  -462.89165761215077   -2.13493e-09   6.04074e-08 DIIS
   @RHF iter  11:  -462.89165761249524   -3.44471e-10   2.46049e-08 DIIS
   @RHF iter  12:  -462.89165761256203   -6.67910e-11   1.28053e-08 DIIS
   @RHF iter  13:  -462.89165761258334   -2.13163e-11   5.97845e-09 DIIS
   @RHF iter  14:  -462.89165761259352   -1.01750e-11   1.63986e-09 DIIS
   @RHF iter  15:  -462.89165761259335    1.70530e-13   5.63037e-10 DIIS
   @RHF iter  16:  -462.89165761259153    1.81899e-12   1.67520e-10 DIIS
   @RHF iter  17:  -462.89165761259284   -1.30740e-12   6.93827e-11 DIIS
  Energy and wave function converged.

  ==> Post-Iterations <==

    Orbital Energies [Eh]
    ---------------------

    Doubly Occupied:

       1A    -20.581138     2A    -11.293833     3A    -11.236001
       4A    -11.234944     5A    -11.229187     6A    -11.227292
       7A    -11.227091     8A    -11.225578     9A    -11.223101
      10A    -11.222601    11A    -11.220076    12A     -1.396964
      13A     -1.157345    14A     -1.062067    15A     -1.018541
      16A     -1.018174    17A     -0.979517    18A     -0.866900
      19A     -0.843086    20A     -0.839401    21A     -0.792327
      22A     -0.732688    23A     -0.667825    24A     -0.648243
      25A     -0.616530    26A     -0.604641    27A     -0.600292
      28A     -0.597837    29A     -0.585863    30A     -0.582712
      31A     -0.558079    32A     -0.553980    33A     -0.517833
      34A     -0.503494    35A     -0.500207    36A     -0.491595
      37A     -0.488279    38A     -0.476362    39A     -0.474815
      40A     -0.464544    41A     -0.337759    42A     -0.304202

    Virtual:

      43A      0.131450    44A      0.155138    45A      0.169834
      46A      0.180886    47A      0.196669    48A      0.199552
      49A      0.222346    50A      0.229304    51A      0.240433
      52A      0.251325    53A      0.257587    54A      0.268147
      55A      0.271521    56A      0.277002    57A      0.298741
      58A      0.323002    59A      0.329096    60A      0.337306
      61A      0.364698    62A      0.387369    63A      0.409278
      64A      0.424501    65A      0.430854    66A      0.488599
      67A      0.495430    68A      0.512754    69A      0.530005
      70A      0.570841    71A      0.599677    72A      0.607582
      73A      0.613001    74A      0.625662    75A      0.645321
      76A      0.654939    77A      0.664581    78A      0.679008
      79A      0.692064    80A      0.704206    81A      0.709810
      82A      0.714059    83A      0.731577    84A      0.738383
      85A      0.749868    86A      0.769755    87A      0.785055
      88A      0.796728    89A      0.812512    90A      0.822741
      91A      0.835552    92A      0.850079    93A      0.865378
      94A      0.867786    95A      0.873207    96A      0.883644
      97A      0.886241    98A      0.892102    99A      0.897634
     100A      0.900670   101A      0.904624   102A      0.916814
     103A      0.923878   104A      0.930923   105A      0.942727
     106A      0.949050   107A      0.966465   108A      0.978500
     109A      0.993116   110A      1.008361   111A      1.035774
     112A      1.041081   113A      1.074159   114A      1.096113
     115A      1.117604   116A      1.134712   117A      1.144292
     118A      1.152532   119A      1.155694   120A      1.190715
     121A      1.201335   122A      1.234588   123A      1.251786
     124A      1.263763   125A      1.285986   126A      1.295501
     127A      1.312920   128A      1.315813   129A      1.326676
     130A      1.352401   131A      1.364076   132A      1.388823
     133A      1.422734   134A      1.450164   135A      1.465540
     136A      1.478219   137A      1.488801   138A      1.506572
     139A      1.541599   140A      1.572125   141A      1.607867
     142A      1.620530   143A      1.626341   144A      1.669604
     145A      1.683899   146A      1.692248   147A      1.717219
     148A      1.736466   149A      1.744682   150A      1.780254
     151A      1.805489   152A      1.824726   153A      1.847842
     154A      1.857539   155A      1.867370   156A      1.883348
     157A      1.886394   158A      1.894132   159A      1.900757
     160A      1.912020   161A      1.913867   162A      1.925070
     163A      1.935535   164A      1.940432   165A      1.946983
     166A      1.948110   167A      1.955350   168A      1.962666
     169A      1.966651   170A      1.979325   171A      1.988264
     172A      2.010231   173A      2.020996   174A      2.024765
     175A      2.040998   176A      2.061843   177A      2.074968
     178A      2.079746   179A      2.093046   180A      2.105971
     181A      2.129065   182A      2.132206   183A      2.143265
     184A      2.161078   185A      2.200706   186A      2.206242
     187A      2.244248   188A      2.272140   189A      2.278477
     190A      2.302196   191A      2.312707   192A      2.317006
     193A      2.325165   194A      2.329429   195A      2.372535
     196A      2.425941   197A      2.449586   198A      2.459137
     199A      2.459959   200A      2.479274   201A      2.481101
     202A      2.533334   203A      2.546811   204A      2.553229
     205A      2.568644   206A      2.581922   207A      2.597199
     208A      2.651074   209A      2.660441   210A      2.756878
     211A      2.768696   212A      2.772903   213A      2.799178
     214A      2.808912   215A      2.825208   216A      2.854414
     217A      2.858884   218A      2.872072   219A      2.885864
     220A      2.921875   221A      2.953251   222A      2.962621
     223A      2.986896   224A      2.997656   225A      3.040796
     226A      3.115115   227A      3.192757   228A      3.251709
     229A      3.307189   230A      3.350736   231A      3.580121
     232A      3.688806   233A      3.994302   234A      4.204158

    Final Occupation by Irrep:
              A
    DOCC [    42 ]

  @RHF Final Energy:  -462.89165761259284

   => Energetics <=

    Nuclear Repulsion Energy =            573.6420190679643838
    One-Electron Energy =               -1764.6614676474478074
    Two-Electron Energy =                 728.1277909668905295
    Total Energy =                       -462.8916576125928941

Computation Completed

Properties will be evaluated at   0.000000,   0.000000,   0.000000 [a0]

Properties computed using the SCF density matrix

  Nuclear Dipole Moment: [e a0]
     X:   -11.1699      Y:    16.7520      Z:   -12.9643

  Electronic Dipole Moment: [e a0]
     X:    10.8619      Y:   -16.2985      Z:    13.1451

  Dipole Moment: [e a0]
     X:    -0.3080      Y:     0.4535      Z:     0.1808     Total:     0.5772

  Dipole Moment: [D]
     X:    -0.7828      Y:     1.1526      Z:     0.4595     Total:     1.4671

*** tstop() called on ds3 at Mon Apr 27 16:36:15 2020
Module time:
	user time   =     148.38 seconds =       2.47 minutes
	system time =      69.47 seconds =       1.16 minutes
	total time  =        208 seconds =       3.47 minutes
Total time:
	user time   =     148.38 seconds =       2.47 minutes
	system time =      69.47 seconds =       1.16 minutes
	total time  =        208 seconds =       3.47 minutes
                                     G D M A

                                 by Anthony Stone

                           version 2.2.06, 22 June 2011

               Distributed Multipoles from Gaussian wavefunctions

Starting at 16:36:15 on 27 Apr 2020

Using SCF density matrix from file ./SSI/SSI-044TYR-059ILE-1-dimer.test.27164.fchk

                         Distributed Multipole Analysis

Standard DMA

Positions and radii in angstrom
Multipole moments in atomic units, ea_0^k for rank k

C          x = -0.187677  y =  0.570476  z = -1.516303 angstrom
           Maximum rank =  0   Radius =  0.650 angstrom
                   Q00  =  -0.047351

C          x =  0.907323  y =  0.946476  z = -2.514303 angstrom
           Maximum rank =  0   Radius =  0.650 angstrom
                   Q00  =  -0.234515

C          x =  0.280323  y = -0.264524  z = -0.362303 angstrom
           Maximum rank =  0   Radius =  0.650 angstrom
                   Q00  =  -0.128759

C          x =  0.005323  y =  0.139476  z =  0.933697 angstrom
           Maximum rank =  0   Radius =  0.650 angstrom
                   Q00  =   0.041147

C          x =  0.949323  y = -1.461524  z = -0.549303 angstrom
           Maximum rank =  0   Radius =  0.650 angstrom
                   Q00  =  -0.073971

C          x =  0.425323  y = -0.609524  z =  2.019697 angstrom
           Maximum rank =  0   Radius =  0.650 angstrom
                   Q00  =  -0.153778

C          x =  1.366323  y = -2.220524  z =  0.545697 angstrom
           Maximum rank =  0   Radius =  0.650 angstrom
                   Q00  =  -0.110367

C          x =  1.115323  y = -1.784524  z =  1.824697 angstrom
           Maximum rank =  0   Radius =  0.650 angstrom
                   Q00  =   0.328768

O          x =  1.534323  y = -2.538524  z =  2.883697 angstrom
           Maximum rank =  0   Radius =  0.650 angstrom
                   Q00  =  -0.681907

H          x = -0.641677  y =  1.482476  z = -1.134303 angstrom
           Maximum rank =  0   Radius =  0.325 angstrom
                   Q00  =   0.061223

H          x = -0.964677  y =  0.012476  z = -2.039303 angstrom
           Maximum rank =  0   Radius =  0.325 angstrom
                   Q00  =   0.068605

H          x =  1.326323  y =  0.029476  z = -2.920303 angstrom
           Maximum rank =  0   Radius =  0.325 angstrom
                   Q00  =   0.080131

H          x = -0.521677  y =  1.068476  z =  1.109697 angstrom
           Maximum rank =  0   Radius =  0.325 angstrom
                   Q00  =   0.067568

H          x =  1.149323  y = -1.816524  z = -1.550303 angstrom
           Maximum rank =  0   Radius =  0.325 angstrom
                   Q00  =   0.062308

H          x =  0.213323  y = -0.266524  z =  3.021697 angstrom
           Maximum rank =  0   Radius =  0.325 angstrom
                   Q00  =   0.069442

H          x =  1.894323  y = -3.149524  z =  0.398697 angstrom
           Maximum rank =  0   Radius =  0.325 angstrom
                   Q00  =   0.079917

H          x =  1.285323  y = -2.146524  z =  3.727697 angstrom
           Maximum rank =  0   Radius =  0.325 angstrom
                   Q00  =   0.404862

H          x =  1.691795  y =  1.531251  z = -2.011668 angstrom
           Maximum rank =  0   Radius =  0.325 angstrom
                   Q00  =   0.083159

H          x =  0.455872  y =  1.519667  z = -3.337495 angstrom
           Maximum rank =  0   Radius =  0.325 angstrom
                   Q00  =   0.083590

C          x = -3.135677  y =  2.955476  z = -2.205303 angstrom
           Maximum rank =  0   Radius =  0.650 angstrom
                   Q00  =  -0.243134

C          x = -2.769677  y =  3.610476  z = -0.857303 angstrom
           Maximum rank =  0   Radius =  0.650 angstrom
                   Q00  =  -0.245219

H          x = -2.307677  y =  2.358476  z = -2.578303 angstrom
           Maximum rank =  0   Radius =  0.325 angstrom
                   Q00  =   0.084011

H          x = -3.996677  y =  2.302476  z = -2.059303 angstrom
           Maximum rank =  0   Radius =  0.325 angstrom
                   Q00  =   0.081782

H          x = -3.405677  y =  3.707476  z = -2.942303 angstrom
           Maximum rank =  0   Radius =  0.325 angstrom
                   Q00  =   0.081098

H          x = -2.654677  y =  2.805476  z = -0.130303 angstrom
           Maximum rank =  0   Radius =  0.325 angstrom
                   Q00  =   0.075061

H          x = -3.600677  y =  4.236476  z = -0.529303 angstrom
           Maximum rank =  0   Radius =  0.325 angstrom
                   Q00  =   0.083455

H          x = -1.845703  y =  4.207253  z = -0.868684 angstrom
           Maximum rank =  0   Radius =  0.325 angstrom
                   Q00  =   0.082875

Total multipoles referred to origin at
           x =   0.000000,  y =    0.000000,  z =    0.000000 angstrom
                   Q00  =  -0.000000

Finished at 16:36:15 on 27 Apr 2020

  DMA results are available in the Python driver through the
	  variable('DMA DISTRIBUTED MULTIPOLES')
  and
	  variable('DMA TOTAL MULTIPOLES')
  commands.

    Psi4 stopped on: Monday, 27 April 2020 04:36PM
    Psi4 wall time for execution: 0:03:28.61

*** Psi4 exiting successfully. Buy a developer a beer!
