                               Psi4 1.3.2 release

  ==> Input File <==

--------------------------------------------------------------------------
import numpy as np
set {scf_type pk
basis cc-pvdz
d_convergence 10
gdma_switch   0
gdma_limit    0
gdma_origin   [ 0.0,  0.0,  0.0 ]
}
molecule test {
    units Angstrom
    0 1
    --
    0 1
    C                3.005989375038109     0.708482662081610    -0.368269449668616
    C               -0.538010624961891     0.505482662081610     0.880730550331384
    C                0.667989375038109    -0.133517337918390     0.491730550331384
    C                1.606989375038109     0.897482662081610     0.139730550331384
    C                0.932989375038109     2.069482662081610     0.311730550331384
    C               -1.652010624961891    -0.220517337918390     1.283730550331384
    C               -1.553010624961891    -1.597517337918390     1.292730550331384
    C                0.743989375038109    -1.538517337918390     0.507730550331384
    C               -0.385010624961891    -2.268517337918390     0.915730550331384
    N               -0.345010624961891     1.849482662081610     0.761730550331383
    H               -1.077010624961891     2.562482662081610     0.835730550331384
    H               -2.561010624961891     0.278482662081610     1.574730550331384
    H                1.340989375038109     3.050482662081610     0.091730550331384
    H               -2.413010624961891    -2.176517337918390     1.590730550331384
    H                1.652989375038109    -2.044517337918390     0.217730550331384
    H                3.021989375038109     1.028482662081610    -1.410269449668616
    H                3.251989375038109    -0.354517337918390    -0.352269449668616
    H               -0.343010624961891    -3.343517337918390     0.956730550331384
    H                3.783749375038109     1.266394662081610     0.173780550331384
    C               -1.685010624961891     0.328482662081610    -2.542269449668616
    C               -0.704010624961891    -0.808517337918390    -2.781269449668617
    H               -2.528010624961891    -0.044517337918390    -1.967269449668616
    H               -1.195010624961891     1.105482662081610    -1.961269449668616
    H               -2.032010624961891     0.746482662081610    -3.484269449668616
    H               -0.374010624961891    -1.169517337918390    -1.815269449668617
    H               -1.168222624961891    -1.664858337918390    -3.292339449668617
    H                0.183779375038109    -0.437117337918390    -3.314089449668617

}
e, wfn = energy('scf', return_wfn=True)
gdma(wfn)
dmavals = variable('DMA DISTRIBUTED MULTIPOLES')
charges = np.array(dmavals)
print(charges)
np.save('SSI-030TRP-046LEU-1-dimer.npy', np.array(charges))--------------------------------------------------------------------------

*** tstart() called on ds3
*** at Tue Apr 28 22:04:49 2020

   => Loading Basis Set <=

    Name: CC-PVDZ
    Role: ORBITAL
    Keyword: BASIS
    atoms 1-9, 20-21   entry C          line   138 file /theoryfs2/ds/metcalf/miniconda2/envs/tf2gpu/share/psi4/basis/cc-pvdz.gbs
    atoms 10           entry N          line   168 file /theoryfs2/ds/metcalf/miniconda2/envs/tf2gpu/share/psi4/basis/cc-pvdz.gbs
    atoms 11-19, 22-27 entry H          line    22 file /theoryfs2/ds/metcalf/miniconda2/envs/tf2gpu/share/psi4/basis/cc-pvdz.gbs

         ---------------------------------------------------------
                                   SCF
               by Justin Turney, Rob Parrish, Andy Simmonett
                          and Daniel G. A. Smith
                              RHF Reference
                        1 Threads,    500 MiB Core
         ---------------------------------------------------------

  ==> Geometry <==

    Molecular point group: c1
    Full point group: C1

    Geometry (in Angstrom), charge = 0, multiplicity = 1:

       Center              X                  Y                   Z               Mass
    ------------   -----------------  -----------------  -----------------  -----------------
         C            3.005989375038     0.708482662082    -0.368269449669    12.000000000000
         C           -0.538010624962     0.505482662082     0.880730550331    12.000000000000
         C            0.667989375038    -0.133517337918     0.491730550331    12.000000000000
         C            1.606989375038     0.897482662082     0.139730550331    12.000000000000
         C            0.932989375038     2.069482662082     0.311730550331    12.000000000000
         C           -1.652010624962    -0.220517337918     1.283730550331    12.000000000000
         C           -1.553010624962    -1.597517337918     1.292730550331    12.000000000000
         C            0.743989375038    -1.538517337918     0.507730550331    12.000000000000
         C           -0.385010624962    -2.268517337918     0.915730550331    12.000000000000
         N           -0.345010624962     1.849482662082     0.761730550331    14.003074004430
         H           -1.077010624962     2.562482662082     0.835730550331     1.007825032230
         H           -2.561010624962     0.278482662082     1.574730550331     1.007825032230
         H            1.340989375038     3.050482662082     0.091730550331     1.007825032230
         H           -2.413010624962    -2.176517337918     1.590730550331     1.007825032230
         H            1.652989375038    -2.044517337918     0.217730550331     1.007825032230
         H            3.021989375038     1.028482662082    -1.410269449669     1.007825032230
         H            3.251989375038    -0.354517337918    -0.352269449669     1.007825032230
         H           -0.343010624962    -3.343517337918     0.956730550331     1.007825032230
         H            3.783749375038     1.266394662082     0.173780550331     1.007825032230
         C           -1.685010624962     0.328482662082    -2.542269449669    12.000000000000
         C           -0.704010624962    -0.808517337918    -2.781269449669    12.000000000000
         H           -2.528010624962    -0.044517337918    -1.967269449669     1.007825032230
         H           -1.195010624962     1.105482662082    -1.961269449669     1.007825032230
         H           -2.032010624962     0.746482662082    -3.484269449669     1.007825032230
         H           -0.374010624962    -1.169517337918    -1.815269449669     1.007825032230
         H           -1.168222624962    -1.664858337918    -3.292339449669     1.007825032230
         H            0.183779375038    -0.437117337918    -3.314089449669     1.007825032230

  Running in c1 symmetry.

  Rotational constants: A =      0.03242  B =      0.02700  C =      0.02344 [cm^-1]
  Rotational constants: A =    972.05332  B =    809.31237  C =    702.81497 [MHz]
  Nuclear repulsion =  685.390204361762471

  Charge       = 0
  Multiplicity = 1
  Electrons    = 88
  Nalpha       = 44
  Nbeta        = 44

  ==> Algorithm <==

  SCF Algorithm Type is PK.
  DIIS enabled.
  MOM disabled.
  Fractional occupation disabled.
  Guess Type is SAD.
  Energy threshold   = 1.00e-06
  Density threshold  = 1.00e-10
  Integral threshold = 0.00e+00

  ==> Primary Basis <==

  Basis Set: CC-PVDZ
    Blend: CC-PVDZ
    Number of shells: 117
    Number of basis function: 243
    Number of Cartesian functions: 255
    Spherical Harmonics?: true
    Max angular momentum: 2

  ==> Pre-Iterations <==

   -------------------------------------------------------
    Irrep   Nso     Nmo     Nalpha   Nbeta   Ndocc  Nsocc
   -------------------------------------------------------
     A        243     243       0       0       0       0
   -------------------------------------------------------
    Total     243     243      44      44      44       0
   -------------------------------------------------------

  ==> Integral Setup <==

  Using integral reordering PK algorithm.
  Sizing the integral batches needed.
  Building batch lookup table.
   Calculation information:
      Number of atoms:                  27
      Number of AO shells:             117
      Number of primitives:            339
      Number of atomic orbitals:       255
      Number of basis functions:       243

      Integral cutoff                 1.00e-12
      Number of threads:                 1

	Batch   1 pq = [       0,    9405] index = [             0,44231715] size =     44231715
	Batch   2 pq = [    9405,   13301] index = [      44231715,88464951] size =     44233236
	Batch   3 pq = [   13301,   16290] index = [      88464951,132690195] size =     44225244
	Batch   4 pq = [   16290,   18810] index = [     132690195,176917455] size =     44227260
	Batch   5 pq = [   18810,   21030] index = [     176917455,221140965] size =     44223510
	Batch   6 pq = [   21030,   23037] index = [     221140965,265363203] size =     44222238
	Batch   7 pq = [   23037,   24883] index = [     265363203,309594286] size =     44231083
	Batch   8 pq = [   24883,   26601] index = [     309594286,353819901] size =     44225615
	Batch   9 pq = [   26601,   28214] index = [     353819901,398029005] size =     44209104
	Batch  10 pq = [   28214,   29646] index = [     398029005,439457481] size =     41428476
  Task number: 40
  Buffer size: 11059200
  Buffer per thread: 2
  We computed 27936036 shell quartets total.
  Whereas there are 23829156 unique shell quartets.
    17.23 percent of shell quartets recomputed by reordering.

  ==> DiskJK: Disk-Based J/K Matrices <==

    J tasked:                  Yes
    K tasked:                  Yes
    wK tasked:                  No
    Memory [MiB]:              375
    Schwarz Cutoff:          1E-12

    OpenMP threads:              1

  Minimum eigenvalue in the overlap matrix is 2.3940803310E-04.
  Using Symmetric Orthogonalization.

  SCF Guess: Superposition of Atomic Densities via on-the-fly atomic UHF.

  ==> Iterations <==

                        Total Energy        Delta E     RMS |[F,P]|

   @RHF iter SAD:  -479.08393034598174   -4.79084e+02   0.00000e+00
   @RHF iter   1:  -479.48369223402960   -3.99762e-01   2.61435e-03 DIIS
   @RHF iter   2:  -479.71570958096623   -2.32017e-01   1.17682e-03 DIIS
   @RHF iter   3:  -479.75866622333120   -4.29566e-02   3.06087e-04 DIIS
   @RHF iter   4:  -479.76251103587606   -3.84481e-03   1.39883e-04 DIIS
   @RHF iter   5:  -479.76316049528293   -6.49459e-04   2.08240e-05 DIIS
   @RHF iter   6:  -479.76319044117145   -2.99459e-05   9.70143e-06 DIIS
   @RHF iter   7:  -479.76319672320881   -6.28204e-06   3.85489e-06 DIIS
   @RHF iter   8:  -479.76319842305134   -1.69984e-06   1.58330e-06 DIIS
   @RHF iter   9:  -479.76319878183619   -3.58785e-07   6.95029e-07 DIIS
   @RHF iter  10:  -479.76319885454387   -7.27077e-08   3.14770e-07 DIIS
   @RHF iter  11:  -479.76319887239606   -1.78522e-08   1.22265e-07 DIIS
   @RHF iter  12:  -479.76319887491712   -2.52106e-09   3.75321e-08 DIIS
   @RHF iter  13:  -479.76319887508339   -1.66267e-10   1.00733e-08 DIIS
   @RHF iter  14:  -479.76319887509936   -1.59730e-11   4.22262e-09 DIIS
   @RHF iter  15:  -479.76319887510181   -2.44427e-12   1.89396e-09 DIIS
   @RHF iter  16:  -479.76319887510067    1.13687e-12   9.67020e-10 DIIS
   @RHF iter  17:  -479.76319887509453    6.13909e-12   3.71543e-10 DIIS
   @RHF iter  18:  -479.76319887510056   -6.02540e-12   1.56192e-10 DIIS
   @RHF iter  19:  -479.76319887509720    3.35376e-12   5.46488e-11 DIIS
  Energy and wave function converged.

  ==> Post-Iterations <==

    Orbital Energies [Eh]
    ---------------------

    Doubly Occupied:

       1A    -15.604987     2A    -11.264016     3A    -11.263979
       4A    -11.233402     5A    -11.230408     6A    -11.228744
       7A    -11.228474     8A    -11.223236     9A    -11.222834
      10A    -11.220023    11A    -11.201834    12A    -11.198916
      13A     -1.299196    14A     -1.128597    15A     -1.074811
      16A     -1.005501    17A     -0.997301    18A     -0.987542
      19A     -0.933826    20A     -0.841095    21A     -0.822210
      22A     -0.803072    23A     -0.755193    24A     -0.722387
      25A     -0.662716    26A     -0.643162    27A     -0.605584
      28A     -0.600410    29A     -0.593598    30A     -0.586305
      31A     -0.576876    32A     -0.567128    33A     -0.553350
      34A     -0.539812    35A     -0.524572    36A     -0.496974
      37A     -0.487471    38A     -0.477460    39A     -0.473275
      40A     -0.472524    41A     -0.452421    42A     -0.373372
      43A     -0.296847    44A     -0.274585

    Virtual:

      45A      0.123456    46A      0.167235    47A      0.175013
      48A      0.182065    49A      0.200650    50A      0.208815
      51A      0.218520    52A      0.230428    53A      0.231999
      54A      0.247781    55A      0.260514    56A      0.266643
      57A      0.274773    58A      0.280789    59A      0.300622
      60A      0.308829    61A      0.321526    62A      0.335256
      63A      0.373561    64A      0.383182    65A      0.403284
      66A      0.413027    67A      0.423621    68A      0.443585
      69A      0.465554    70A      0.478558    71A      0.517361
      72A      0.526097    73A      0.582589    74A      0.587836
      75A      0.604526    76A      0.609996    77A      0.634919
      78A      0.637109    79A      0.649409    80A      0.652509
      81A      0.671506    82A      0.675997    83A      0.706601
      84A      0.709760    85A      0.730353    86A      0.737803
      87A      0.746523    88A      0.752909    89A      0.757977
      90A      0.761644    91A      0.779023    92A      0.783067
      93A      0.805050    94A      0.821793    95A      0.849496
      96A      0.859915    97A      0.860634    98A      0.866566
      99A      0.878044   100A      0.880128   101A      0.885006
     102A      0.899851   103A      0.901551   104A      0.915617
     105A      0.921179   106A      0.934172   107A      0.938990
     108A      0.949868   109A      0.952443   110A      0.956194
     111A      0.981790   112A      0.985253   113A      0.991246
     114A      1.006044   115A      1.018950   116A      1.051151
     117A      1.077131   118A      1.088587   119A      1.105751
     120A      1.132789   121A      1.137974   122A      1.143084
     123A      1.151085   124A      1.155224   125A      1.170697
     126A      1.188541   127A      1.209674   128A      1.226804
     129A      1.231556   130A      1.242230   131A      1.249684
     132A      1.278941   133A      1.286823   134A      1.297388
     135A      1.327431   136A      1.335137   137A      1.355174
     138A      1.365407   139A      1.419968   140A      1.428491
     141A      1.458515   142A      1.492428   143A      1.496232
     144A      1.514997   145A      1.532437   146A      1.562371
     147A      1.595822   148A      1.609563   149A      1.631598
     150A      1.644261   151A      1.659181   152A      1.687634
     153A      1.705936   154A      1.715717   155A      1.719401
     156A      1.749326   157A      1.762180   158A      1.767974
     159A      1.785407   160A      1.823348   161A      1.832665
     162A      1.847257   163A      1.874499   164A      1.879533
     165A      1.889986   166A      1.900005   167A      1.906186
     168A      1.908608   169A      1.920027   170A      1.932648
     171A      1.944937   172A      1.946347   173A      1.960238
     174A      1.967963   175A      1.973549   176A      1.983078
     177A      1.985900   178A      1.996060   179A      1.999040
     180A      2.001164   181A      2.017730   182A      2.021665
     183A      2.034968   184A      2.068981   185A      2.088416
     186A      2.097826   187A      2.106326   188A      2.109833
     189A      2.127847   190A      2.129042   191A      2.141978
     192A      2.152824   193A      2.178550   194A      2.188783
     195A      2.196430   196A      2.228725   197A      2.263945
     198A      2.271983   199A      2.305884   200A      2.320867
     201A      2.324360   202A      2.335773   203A      2.352244
     204A      2.368930   205A      2.398598   206A      2.412923
     207A      2.452146   208A      2.465703   209A      2.482156
     210A      2.502418   211A      2.544587   212A      2.580431
     213A      2.580795   214A      2.600161   215A      2.614589
     216A      2.634617   217A      2.665976   218A      2.687653
     219A      2.749061   220A      2.769676   221A      2.778261
     222A      2.783986   223A      2.793396   224A      2.800004
     225A      2.805031   226A      2.827266   227A      2.855820
     228A      2.862356   229A      2.892156   230A      2.905835
     231A      2.936883   232A      2.981523   233A      2.986442
     234A      3.018125   235A      3.047731   236A      3.069202
     237A      3.085556   238A      3.121437   239A      3.212531
     240A      3.307832   241A      3.360672   242A      3.735358
     243A      3.951011

    Final Occupation by Irrep:
              A
    DOCC [    44 ]

  @RHF Final Energy:  -479.76319887509720

   => Energetics <=

    Nuclear Repulsion Energy =            685.3902043617624713
    One-Electron Energy =               -2008.8067525981261952
    Two-Electron Energy =                 843.6533493612665779
    Total Energy =                       -479.7631988750971459

Computation Completed

Properties will be evaluated at   0.000000,   0.000000,   0.000000 [a0]

Properties computed using the SCF density matrix

  Nuclear Dipole Moment: [e a0]
     X:    -0.4263      Y:    -1.1273      Z:   -11.3980

  Electronic Dipole Moment: [e a0]
     X:     0.3045      Y:     1.8981      Z:    11.4584

  Dipole Moment: [e a0]
     X:    -0.1219      Y:     0.7707      Z:     0.0604     Total:     0.7826

  Dipole Moment: [D]
     X:    -0.3097      Y:     1.9590      Z:     0.1535     Total:     1.9893

*** tstop() called on ds3 at Tue Apr 28 22:13:15 2020
Module time:
	user time   =     220.35 seconds =       3.67 minutes
	system time =      67.30 seconds =       1.12 minutes
	total time  =        506 seconds =       8.43 minutes
Total time:
	user time   =     220.35 seconds =       3.67 minutes
	system time =      67.30 seconds =       1.12 minutes
	total time  =        506 seconds =       8.43 minutes
                                     G D M A

                                 by Anthony Stone

                           version 2.2.06, 22 June 2011

               Distributed Multipoles from Gaussian wavefunctions

Starting at 22:13:15 on 28 Apr 2020

Using SCF density matrix from file ./SSI/SSI-030TRP-046LEU-1-dimer.test.12415.fchk

                         Distributed Multipole Analysis

Standard DMA

Positions and radii in angstrom
Multipole moments in atomic units, ea_0^k for rank k

C          x =  3.005989  y =  0.708483  z = -0.368269 angstrom
           Maximum rank =  0   Radius =  0.650 angstrom
                   Q00  =  -0.226058

C          x = -0.538011  y =  0.505483  z =  0.880731 angstrom
           Maximum rank =  0   Radius =  0.650 angstrom
                   Q00  =   0.230156

C          x =  0.667989  y = -0.133517  z =  0.491731 angstrom
           Maximum rank =  0   Radius =  0.650 angstrom
                   Q00  =  -0.037246

C          x =  1.606989  y =  0.897483  z =  0.139731 angstrom
           Maximum rank =  0   Radius =  0.650 angstrom
                   Q00  =  -0.111636

C          x =  0.932989  y =  2.069483  z =  0.311731 angstrom
           Maximum rank =  0   Radius =  0.650 angstrom
                   Q00  =   0.066725

C          x = -1.652011  y = -0.220517  z =  1.283731 angstrom
           Maximum rank =  0   Radius =  0.650 angstrom
                   Q00  =  -0.115748

C          x = -1.553011  y = -1.597517  z =  1.292731 angstrom
           Maximum rank =  0   Radius =  0.650 angstrom
                   Q00  =  -0.002251

C          x =  0.743989  y = -1.538517  z =  0.507731 angstrom
           Maximum rank =  0   Radius =  0.650 angstrom
                   Q00  =  -0.108162

C          x = -0.385011  y = -2.268517  z =  0.915731 angstrom
           Maximum rank =  0   Radius =  0.650 angstrom
                   Q00  =  -0.102307

N          x = -0.345011  y =  1.849483  z =  0.761731 angstrom
           Maximum rank =  0   Radius =  0.650 angstrom
                   Q00  =  -0.489945

H          x = -1.077011  y =  2.562483  z =  0.835731 angstrom
           Maximum rank =  0   Radius =  0.325 angstrom
                   Q00  =   0.225053

H          x = -2.561011  y =  0.278483  z =  1.574731 angstrom
           Maximum rank =  0   Radius =  0.325 angstrom
                   Q00  =   0.072031

H          x =  1.340989  y =  3.050483  z =  0.091731 angstrom
           Maximum rank =  0   Radius =  0.325 angstrom
                   Q00  =   0.094810

H          x = -2.413011  y = -2.176517  z =  1.590731 angstrom
           Maximum rank =  0   Radius =  0.325 angstrom
                   Q00  =   0.062095

H          x =  1.652989  y = -2.044517  z =  0.217731 angstrom
           Maximum rank =  0   Radius =  0.325 angstrom
                   Q00  =   0.071678

H          x =  3.021989  y =  1.028483  z = -1.410269 angstrom
           Maximum rank =  0   Radius =  0.325 angstrom
                   Q00  =   0.101546

H          x =  3.251989  y = -0.354517  z = -0.352269 angstrom
           Maximum rank =  0   Radius =  0.325 angstrom
                   Q00  =   0.111179

H          x = -0.343011  y = -3.343517  z =  0.956731 angstrom
           Maximum rank =  0   Radius =  0.325 angstrom
                   Q00  =   0.062952

H          x =  3.783749  y =  1.266395  z =  0.173781 angstrom
           Maximum rank =  0   Radius =  0.325 angstrom
                   Q00  =   0.107307

C          x = -1.685011  y =  0.328483  z = -2.542269 angstrom
           Maximum rank =  0   Radius =  0.650 angstrom
                   Q00  =  -0.228496

C          x = -0.704011  y = -0.808517  z = -2.781269 angstrom
           Maximum rank =  0   Radius =  0.650 angstrom
                   Q00  =  -0.247668

H          x = -2.528011  y = -0.044517  z = -1.967269 angstrom
           Maximum rank =  0   Radius =  0.325 angstrom
                   Q00  =   0.077353

H          x = -1.195011  y =  1.105483  z = -1.961269 angstrom
           Maximum rank =  0   Radius =  0.325 angstrom
                   Q00  =   0.075110

H          x = -2.032011  y =  0.746483  z = -3.484269 angstrom
           Maximum rank =  0   Radius =  0.325 angstrom
                   Q00  =   0.068700

H          x = -0.374011  y = -1.169517  z = -1.815269 angstrom
           Maximum rank =  0   Radius =  0.325 angstrom
                   Q00  =   0.104652

H          x = -1.168223  y = -1.664858  z = -3.292339 angstrom
           Maximum rank =  0   Radius =  0.325 angstrom
                   Q00  =   0.070655

H          x =  0.183779  y = -0.437117  z = -3.314089 angstrom
           Maximum rank =  0   Radius =  0.325 angstrom
                   Q00  =   0.067514

Total multipoles referred to origin at
           x =   0.000000,  y =    0.000000,  z =    0.000000 angstrom
                   Q00  =  -0.000000

Finished at 22:13:15 on 28 Apr 2020

  DMA results are available in the Python driver through the
	  variable('DMA DISTRIBUTED MULTIPOLES')
  and
	  variable('DMA TOTAL MULTIPOLES')
  commands.

    Psi4 stopped on: Tuesday, 28 April 2020 10:13PM
    Psi4 wall time for execution: 0:08:25.43

*** Psi4 exiting successfully. Buy a developer a beer!
