                               Psi4 1.3.2 release

  ==> Input File <==

--------------------------------------------------------------------------
import numpy as np
set {scf_type pk
basis cc-pvdz
d_convergence 10
gdma_switch   0
gdma_limit    0
gdma_origin   [ 0.0,  0.0,  0.0 ]
}
molecule test {
    units Angstrom
    -1 1
    --
    -1 1
    C                0.033732944867069    -1.125511797121888     1.580406987923574
    C                0.784732944867069    -1.165511797121888     0.291406987923574
    O                0.666732944867069    -0.174511797121888    -0.463593012076426
    O                1.521732944867068    -2.153511797121888     0.048406987923574
    H               -1.041267055132931    -1.075511797121888     1.390406987923574
    H                0.317732944867069    -0.230511797121888     2.136406987923574
    H                0.264722944867069    -2.016378797121888     2.182900987923574
    C               -2.103267055132931     2.116488202878112    -0.821593012076426
    O               -0.712267055132931     2.192488202878112    -0.525593012076426
    H               -0.329267055132931     1.293488202878112    -0.603593012076426
    H               -2.471267055132931     1.129488202878112    -0.531593012076426
    H               -2.632087055132931     2.887778202878112    -0.242406012076426
    H               -2.239007055132931     2.240855802878112    -1.906078012076426

}
e, wfn = energy('scf', return_wfn=True)
gdma(wfn)
dmavals = variable('DMA DISTRIBUTED MULTIPOLES')
charges = np.array(dmavals)
print(charges)
np.save('SSI-004GLU-039THR-1-dimer.npy', np.array(charges))--------------------------------------------------------------------------

*** tstart() called on ds3
*** at Mon Apr 27 12:41:54 2020

   => Loading Basis Set <=

    Name: CC-PVDZ
    Role: ORBITAL
    Keyword: BASIS
    atoms 1-2, 8     entry C          line   138 file /theoryfs2/ds/metcalf/miniconda2/envs/tf2gpu/share/psi4/basis/cc-pvdz.gbs
    atoms 3-4, 9     entry O          line   198 file /theoryfs2/ds/metcalf/miniconda2/envs/tf2gpu/share/psi4/basis/cc-pvdz.gbs
    atoms 5-7, 10-13 entry H          line    22 file /theoryfs2/ds/metcalf/miniconda2/envs/tf2gpu/share/psi4/basis/cc-pvdz.gbs

         ---------------------------------------------------------
                                   SCF
               by Justin Turney, Rob Parrish, Andy Simmonett
                          and Daniel G. A. Smith
                              RHF Reference
                        1 Threads,    500 MiB Core
         ---------------------------------------------------------

  ==> Geometry <==

    Molecular point group: c1
    Full point group: C1

    Geometry (in Angstrom), charge = -1, multiplicity = 1:

       Center              X                  Y                   Z               Mass
    ------------   -----------------  -----------------  -----------------  -----------------
         C            0.033732944867    -1.125511797122     1.580406987924    12.000000000000
         C            0.784732944867    -1.165511797122     0.291406987924    12.000000000000
         O            0.666732944867    -0.174511797122    -0.463593012076    15.994914619570
         O            1.521732944867    -2.153511797122     0.048406987924    15.994914619570
         H           -1.041267055133    -1.075511797122     1.390406987924     1.007825032230
         H            0.317732944867    -0.230511797122     2.136406987924     1.007825032230
         H            0.264722944867    -2.016378797122     2.182900987924     1.007825032230
         C           -2.103267055133     2.116488202878    -0.821593012076    12.000000000000
         O           -0.712267055133     2.192488202878    -0.525593012076    15.994914619570
         H           -0.329267055133     1.293488202878    -0.603593012076     1.007825032230
         H           -2.471267055133     1.129488202878    -0.531593012076     1.007825032230
         H           -2.632087055133     2.887778202878    -0.242406012076     1.007825032230
         H           -2.239007055133     2.240855802878    -1.906078012076     1.007825032230

  Running in c1 symmetry.

  Rotational constants: A =      0.25755  B =      0.04191  C =      0.03836 [cm^-1]
  Rotational constants: A =   7721.09462  B =   1256.32776  C =   1150.01411 [MHz]
  Nuclear repulsion =  227.043849783460274

  Charge       = -1
  Multiplicity = 1
  Electrons    = 50
  Nalpha       = 25
  Nbeta        = 25

  ==> Algorithm <==

  SCF Algorithm Type is PK.
  DIIS enabled.
  MOM disabled.
  Fractional occupation disabled.
  Guess Type is SAD.
  Energy threshold   = 1.00e-06
  Density threshold  = 1.00e-10
  Integral threshold = 0.00e+00

  ==> Primary Basis <==

  Basis Set: CC-PVDZ
    Blend: CC-PVDZ
    Number of shells: 57
    Number of basis function: 119
    Number of Cartesian functions: 125
    Spherical Harmonics?: true
    Max angular momentum: 2

  ==> Pre-Iterations <==

   -------------------------------------------------------
    Irrep   Nso     Nmo     Nalpha   Nbeta   Ndocc  Nsocc
   -------------------------------------------------------
     A        119     119       0       0       0       0
   -------------------------------------------------------
    Total     119     119      25      25      25       0
   -------------------------------------------------------

  ==> Integral Setup <==

  Using integral reordering PK algorithm.
  Sizing the integral batches needed.
  Building batch lookup table.
   Calculation information:
      Number of atoms:                  13
      Number of AO shells:              57
      Number of primitives:            167
      Number of atomic orbitals:       125
      Number of basis functions:       119

      Integral cutoff                 1.00e-12
      Number of threads:                 1

	Batch   1 pq = [       0,    7140] index = [             0,25493370] size =     25493370
  Task number: 3
  Buffer size: 11059200
  Buffer per thread: 2
  We computed 1150235 shell quartets total.
  Whereas there are 1367031 unique shell quartets.

  ==> DiskJK: Disk-Based J/K Matrices <==

    J tasked:                  Yes
    K tasked:                  Yes
    wK tasked:                  No
    Memory [MiB]:              375
    Schwarz Cutoff:          1E-12

    OpenMP threads:              1

  Minimum eigenvalue in the overlap matrix is 5.1089299138E-03.
  Using Symmetric Orthogonalization.

  SCF Guess: Superposition of Atomic Densities via on-the-fly atomic UHF.

  ==> Iterations <==

                        Total Energy        Delta E     RMS |[F,P]|

   @RHF iter SAD:  -340.65953197066335   -3.40660e+02   0.00000e+00
   @RHF iter   1:  -342.07689985149653   -1.41737e+00   5.98800e-03 DIIS
   @RHF iter   2:  -342.25067734697126   -1.73777e-01   3.42954e-03 DIIS
   @RHF iter   3:  -342.30858184553972   -5.79045e-02   4.77553e-04 DIIS
   @RHF iter   4:  -342.31071071492585   -2.12887e-03   1.76650e-04 DIIS
   @RHF iter   5:  -342.31101248413734   -3.01769e-04   3.86293e-05 DIIS
   @RHF iter   6:  -342.31102609171194   -1.36076e-05   1.66528e-05 DIIS
   @RHF iter   7:  -342.31102828128678   -2.18957e-06   3.60383e-06 DIIS
   @RHF iter   8:  -342.31102851099342   -2.29707e-07   1.68659e-06 DIIS
   @RHF iter   9:  -342.31102854597930   -3.49859e-08   6.91692e-07 DIIS
   @RHF iter  10:  -342.31102855620958   -1.02303e-08   2.17003e-07 DIIS
   @RHF iter  11:  -342.31102855732365   -1.11407e-09   4.66106e-08 DIIS
   @RHF iter  12:  -342.31102855736805   -4.43947e-11   1.45213e-08 DIIS
   @RHF iter  13:  -342.31102855737061   -2.55795e-12   4.52093e-09 DIIS
   @RHF iter  14:  -342.31102855737061    0.00000e+00   1.31503e-09 DIIS
   @RHF iter  15:  -342.31102855737322   -2.61480e-12   4.39853e-10 DIIS
   @RHF iter  16:  -342.31102855737271    5.11591e-13   1.22082e-10 DIIS
   @RHF iter  17:  -342.31102855737345   -7.38964e-13   5.16431e-11 DIIS
  Energy and wave function converged.

  ==> Post-Iterations <==

    Orbital Energies [Eh]
    ---------------------

    Doubly Occupied:

       1A    -20.372957     2A    -20.281847     3A    -20.273611
       4A    -11.141698     5A    -11.131102     6A    -11.056620
       7A     -1.177452     8A     -1.164612     9A     -1.054593
      10A     -0.810695    11A     -0.776510    12A     -0.537315
      13A     -0.508444    14A     -0.473983    15A     -0.441407
      16A     -0.423740    17A     -0.421363    18A     -0.414688
      19A     -0.357440    20A     -0.335558    21A     -0.316233
      22A     -0.281894    23A     -0.201778    24A     -0.189809
      25A     -0.181052

    Virtual:

      26A      0.307079    27A      0.346029    28A      0.374739
      29A      0.380090    30A      0.408335    31A      0.427578
      32A      0.448456    33A      0.480621    34A      0.564537
      35A      0.582340    36A      0.683012    37A      0.738795
      38A      0.758046    39A      0.779170    40A      0.816629
      41A      0.849683    42A      0.873582    43A      0.933520
      44A      0.954103    45A      0.978343    46A      0.991690
      47A      1.000606    48A      1.018331    49A      1.030500
      50A      1.044242    51A      1.060153    52A      1.085687
      53A      1.126500    54A      1.206840    55A      1.267522
      56A      1.284723    57A      1.314585    58A      1.337427
      59A      1.344053    60A      1.401638    61A      1.494615
      62A      1.504542    63A      1.521515    64A      1.562419
      65A      1.576051    66A      1.609797    67A      1.670854
      68A      1.687056    69A      1.716395    70A      1.785270
      71A      1.797181    72A      1.832416    73A      1.852881
      74A      1.855975    75A      1.883922    76A      1.976446
      77A      2.035114    78A      2.043526    79A      2.055927
      80A      2.083399    81A      2.085083    82A      2.100961
      83A      2.125516    84A      2.199627    85A      2.229729
      86A      2.262227    87A      2.287976    88A      2.313014
      89A      2.406080    90A      2.422217    91A      2.429474
      92A      2.526614    93A      2.548955    94A      2.598366
      95A      2.635417    96A      2.693702    97A      2.744056
      98A      2.841210    99A      2.886184   100A      2.902925
     101A      2.916279   102A      2.938458   103A      2.961588
     104A      3.014229   105A      3.223514   106A      3.274251
     107A      3.280368   108A      3.366096   109A      3.473103
     110A      3.552012   111A      3.602088   112A      3.606120
     113A      3.760545   114A      3.789617   115A      3.817864
     116A      4.026594   117A      4.087299   118A      4.169307
     119A      4.320032

    Final Occupation by Irrep:
              A
    DOCC [    25 ]

  @RHF Final Energy:  -342.31102855737345

   => Energetics <=

    Nuclear Repulsion Energy =            227.0438497834602742
    One-Electron Energy =                -930.0569512631882390
    Two-Electron Energy =                 360.7020729223545459
    Total Energy =                       -342.3110285573734473

Computation Completed

Properties will be evaluated at   0.000000,   0.000000,   0.000000 [a0]

Properties computed using the SCF density matrix

  Nuclear Dipole Moment: [e a0]
     X:    -7.6149      Y:     3.9641      Z:     2.2698

  Electronic Dipole Moment: [e a0]
     X:     5.5521      Y:    -2.9515      Z:    -1.6651

  Dipole Moment: [e a0]
     X:    -2.0629      Y:     1.0126      Z:     0.6048     Total:     2.3763

  Dipole Moment: [D]
     X:    -5.2433      Y:     2.5738      Z:     1.5371     Total:     6.0399

*** tstop() called on ds3 at Mon Apr 27 12:42:10 2020
Module time:
	user time   =      10.51 seconds =       0.18 minutes
	system time =       5.91 seconds =       0.10 minutes
	total time  =         16 seconds =       0.27 minutes
Total time:
	user time   =      10.51 seconds =       0.18 minutes
	system time =       5.91 seconds =       0.10 minutes
	total time  =         16 seconds =       0.27 minutes
                                     G D M A

                                 by Anthony Stone

                           version 2.2.06, 22 June 2011

               Distributed Multipoles from Gaussian wavefunctions

Starting at 12:42:10 on 27 Apr 2020

Using SCF density matrix from file ./SSI/SSI-004GLU-039THR-1-dimer.test.3771.fchk

                         Distributed Multipole Analysis

Standard DMA

Positions and radii in angstrom
Multipole moments in atomic units, ea_0^k for rank k

C          x =  0.033733  y = -1.125512  z =  1.580407 angstrom
           Maximum rank =  0   Radius =  0.650 angstrom
                   Q00  =  -0.279043

C          x =  0.784733  y = -1.165512  z =  0.291407 angstrom
           Maximum rank =  0   Radius =  0.650 angstrom
                   Q00  =   0.969015

O          x =  0.666733  y = -0.174512  z = -0.463593 angstrom
           Maximum rank =  0   Radius =  0.650 angstrom
                   Q00  =  -0.959850

O          x =  1.521733  y = -2.153512  z =  0.048407 angstrom
           Maximum rank =  0   Radius =  0.650 angstrom
                   Q00  =  -0.917842

H          x = -1.041267  y = -1.075512  z =  1.390407 angstrom
           Maximum rank =  0   Radius =  0.325 angstrom
                   Q00  =   0.070633

H          x =  0.317733  y = -0.230512  z =  2.136407 angstrom
           Maximum rank =  0   Radius =  0.325 angstrom
                   Q00  =   0.080295

H          x =  0.264723  y = -2.016379  z =  2.182901 angstrom
           Maximum rank =  0   Radius =  0.325 angstrom
                   Q00  =   0.051241

C          x = -2.103267  y =  2.116488  z = -0.821593 angstrom
           Maximum rank =  0   Radius =  0.650 angstrom
                   Q00  =  -0.009164

O          x = -0.712267  y =  2.192488  z = -0.525593 angstrom
           Maximum rank =  0   Radius =  0.650 angstrom
                   Q00  =  -0.690367

H          x = -0.329267  y =  1.293488  z = -0.603593 angstrom
           Maximum rank =  0   Radius =  0.325 angstrom
                   Q00  =   0.531492

H          x = -2.471267  y =  1.129488  z = -0.531593 angstrom
           Maximum rank =  0   Radius =  0.325 angstrom
                   Q00  =   0.053936

H          x = -2.632087  y =  2.887778  z = -0.242406 angstrom
           Maximum rank =  0   Radius =  0.325 angstrom
                   Q00  =   0.061014

H          x = -2.239007  y =  2.240856  z = -1.906078 angstrom
           Maximum rank =  0   Radius =  0.325 angstrom
                   Q00  =   0.038640

Total multipoles referred to origin at
           x =   0.000000,  y =    0.000000,  z =    0.000000 angstrom
                   Q00  =  -1.000000

Finished at 12:42:10 on 27 Apr 2020

  DMA results are available in the Python driver through the
	  variable('DMA DISTRIBUTED MULTIPOLES')
  and
	  variable('DMA TOTAL MULTIPOLES')
  commands.

    Psi4 stopped on: Monday, 27 April 2020 12:42PM
    Psi4 wall time for execution: 0:00:16.38

*** Psi4 exiting successfully. Buy a developer a beer!
