                               Psi4 1.3.2 release

  ==> Input File <==

--------------------------------------------------------------------------
import numpy as np
set {scf_type pk
basis cc-pvdz
d_convergence 10
gdma_switch   0
gdma_limit    0
gdma_origin   [ 0.0,  0.0,  0.0 ]
}
molecule test {
    units Angstrom
    0 1
    --
    0 1
    C                0.847986292947604     1.699119743779050     0.478456563531129
    C                0.674986292947603     2.343119743779049    -0.895543436468871
    H                1.487986292947604     2.324119743779050     1.103456563531129
    H               -0.125013707052397     1.603119743779049     0.959456563531129
    H                1.305986292947604     0.716119743779049     0.395456563531129
    H                0.010986292947603     1.718119743779049    -1.494543436468871
    H                1.652286292947603     2.434559743779049    -1.392053436468871
    H                0.206746292947603     3.332259743779049    -0.784433436468871
    C               -0.404013707052396    -1.377880256220950     0.017456563531129
    C               -1.115013707052396    -2.663880256220951     0.399456563531129
    H                0.671986292947603    -1.491880256220950     0.161456563531129
    H               -0.599013707052397    -1.146880256220951    -1.030543436468871
    H               -0.781013707052396    -0.556880256220950     0.620456563531129
    H               -2.191013707052397    -2.508880256220951     0.330456563531129
    H               -0.849113707052397    -2.957020256220951     1.425796563531129
    H               -0.837783707052396    -3.472460256220951    -0.292893436468871

}
e, wfn = energy('scf', return_wfn=True)
gdma(wfn)
dmavals = variable('DMA DISTRIBUTED MULTIPOLES')
charges = np.array(dmavals)
print(charges)
np.save('SSI-096VAL-105LEU-1-dimer.npy', np.array(charges))--------------------------------------------------------------------------

*** tstart() called on ds3
*** at Mon Apr 27 13:26:41 2020

   => Loading Basis Set <=

    Name: CC-PVDZ
    Role: ORBITAL
    Keyword: BASIS
    atoms 1-2, 9-10  entry C          line   138 file /theoryfs2/ds/metcalf/miniconda2/envs/tf2gpu/share/psi4/basis/cc-pvdz.gbs
    atoms 3-8, 11-16 entry H          line    22 file /theoryfs2/ds/metcalf/miniconda2/envs/tf2gpu/share/psi4/basis/cc-pvdz.gbs

         ---------------------------------------------------------
                                   SCF
               by Justin Turney, Rob Parrish, Andy Simmonett
                          and Daniel G. A. Smith
                              RHF Reference
                        1 Threads,    500 MiB Core
         ---------------------------------------------------------

  ==> Geometry <==

    Molecular point group: c1
    Full point group: C1

    Geometry (in Angstrom), charge = 0, multiplicity = 1:

       Center              X                  Y                   Z               Mass
    ------------   -----------------  -----------------  -----------------  -----------------
         C            0.847986292948     1.699119743779     0.478456563531    12.000000000000
         C            0.674986292948     2.343119743779    -0.895543436469    12.000000000000
         H            1.487986292948     2.324119743779     1.103456563531     1.007825032230
         H           -0.125013707052     1.603119743779     0.959456563531     1.007825032230
         H            1.305986292948     0.716119743779     0.395456563531     1.007825032230
         H            0.010986292948     1.718119743779    -1.494543436469     1.007825032230
         H            1.652286292948     2.434559743779    -1.392053436469     1.007825032230
         H            0.206746292948     3.332259743779    -0.784433436469     1.007825032230
         C           -0.404013707052    -1.377880256221     0.017456563531    12.000000000000
         C           -1.115013707052    -2.663880256221     0.399456563531    12.000000000000
         H            0.671986292948    -1.491880256221     0.161456563531     1.007825032230
         H           -0.599013707052    -1.146880256221    -1.030543436469     1.007825032230
         H           -0.781013707052    -0.556880256221     0.620456563531     1.007825032230
         H           -2.191013707052    -2.508880256221     0.330456563531     1.007825032230
         H           -0.849113707052    -2.957020256221     1.425796563531     1.007825032230
         H           -0.837783707052    -3.472460256221    -0.292893436469     1.007825032230

  Running in c1 symmetry.

  Rotational constants: A =      0.59557  B =      0.05308  C =      0.05078 [cm^-1]
  Rotational constants: A =  17854.69738  B =   1591.16773  C =   1522.42239 [MHz]
  Nuclear repulsion =  125.014969690810346

  Charge       = 0
  Multiplicity = 1
  Electrons    = 36
  Nalpha       = 18
  Nbeta        = 18

  ==> Algorithm <==

  SCF Algorithm Type is PK.
  DIIS enabled.
  MOM disabled.
  Fractional occupation disabled.
  Guess Type is SAD.
  Energy threshold   = 1.00e-06
  Density threshold  = 1.00e-10
  Integral threshold = 0.00e+00

  ==> Primary Basis <==

  Basis Set: CC-PVDZ
    Blend: CC-PVDZ
    Number of shells: 60
    Number of basis function: 116
    Number of Cartesian functions: 120
    Spherical Harmonics?: true
    Max angular momentum: 2

  ==> Pre-Iterations <==

   -------------------------------------------------------
    Irrep   Nso     Nmo     Nalpha   Nbeta   Ndocc  Nsocc
   -------------------------------------------------------
     A        116     116       0       0       0       0
   -------------------------------------------------------
    Total     116     116      18      18      18       0
   -------------------------------------------------------

  ==> Integral Setup <==

  Using integral reordering PK algorithm.
  Sizing the integral batches needed.
  Building batch lookup table.
   Calculation information:
      Number of atoms:                  16
      Number of AO shells:              60
      Number of primitives:            148
      Number of atomic orbitals:       120
      Number of basis functions:       116

      Integral cutoff                 1.00e-12
      Number of threads:                 1

	Batch   1 pq = [       0,    6786] index = [             0,23028291] size =     23028291
  Task number: 3
  Buffer size: 11059200
  Buffer per thread: 2
  We computed 1491792 shell quartets total.
  Whereas there are 1675365 unique shell quartets.

  ==> DiskJK: Disk-Based J/K Matrices <==

    J tasked:                  Yes
    K tasked:                  Yes
    wK tasked:                  No
    Memory [MiB]:              375
    Schwarz Cutoff:          1E-12

    OpenMP threads:              1

  Minimum eigenvalue in the overlap matrix is 6.0556781026E-03.
  Using Symmetric Orthogonalization.

  SCF Guess: Superposition of Atomic Densities via on-the-fly atomic UHF.

  ==> Iterations <==

                        Total Energy        Delta E     RMS |[F,P]|

   @RHF iter SAD:  -157.40540013301350   -1.57405e+02   0.00000e+00
   @RHF iter   1:  -158.30324132140220   -8.97841e-01   4.23263e-03 DIIS
   @RHF iter   2:  -158.43850319054647   -1.35262e-01   1.79545e-03 DIIS
   @RHF iter   3:  -158.46193416243079   -2.34310e-02   3.52143e-04 DIIS
   @RHF iter   4:  -158.46378636101957   -1.85220e-03   3.86283e-05 DIIS
   @RHF iter   5:  -158.46380969926835   -2.33382e-05   6.52309e-06 DIIS
   @RHF iter   6:  -158.46381032292243   -6.23654e-07   1.11402e-06 DIIS
   @RHF iter   7:  -158.46381033558663   -1.26642e-08   3.16440e-07 DIIS
   @RHF iter   8:  -158.46381033652358   -9.36950e-10   4.93987e-08 DIIS
   @RHF iter   9:  -158.46381033656192   -3.83409e-11   1.16009e-08 DIIS
   @RHF iter  10:  -158.46381033656482   -2.89901e-12   2.63984e-09 DIIS
   @RHF iter  11:  -158.46381033656451    3.12639e-13   4.63765e-10 DIIS
   @RHF iter  12:  -158.46381033656462   -1.13687e-13   1.47565e-10 DIIS
   @RHF iter  13:  -158.46381033656459    2.84217e-14   2.97536e-11 DIIS
  Energy and wave function converged.

  ==> Post-Iterations <==

    Orbital Energies [Eh]
    ---------------------

    Doubly Occupied:

       1A    -11.218316     2A    -11.217775     3A    -11.215169
       4A    -11.213819     5A     -1.022355     6A     -1.016084
       7A     -0.840273     8A     -0.830697     9A     -0.604733
      10A     -0.600559    11A     -0.595797    12A     -0.593680
      13A     -0.506554    14A     -0.495561    15A     -0.491913
      16A     -0.488743    17A     -0.479807    18A     -0.474079

    Virtual:

      19A      0.176151    20A      0.195825    21A      0.228784
      22A      0.231925    23A      0.237631    24A      0.262708
      25A      0.265919    26A      0.275064    27A      0.279576
      28A      0.314300    29A      0.318546    30A      0.358785
      31A      0.396997    32A      0.410087    33A      0.566831
      34A      0.591694    35A      0.599877    36A      0.602994
      37A      0.609272    38A      0.640941    39A      0.677875
      40A      0.689695    41A      0.705910    42A      0.808609
      43A      0.845970    44A      0.865991    45A      0.889187
      46A      0.891802    47A      0.893514    48A      0.895797
      49A      0.907858    50A      0.914551    51A      0.917634
      52A      0.928699    53A      0.962061    54A      0.972448
      55A      0.980703    56A      0.997592    57A      1.122931
      58A      1.127364    59A      1.140240    60A      1.180638
      61A      1.221004    62A      1.274627    63A      1.463883
      64A      1.477512    65A      1.485571    66A      1.500359
      67A      1.584594    68A      1.598205    69A      1.679651
      70A      1.681745    71A      1.693032    72A      1.714083
      73A      1.848769    74A      1.857841    75A      1.871394
      76A      1.891650    77A      1.900602    78A      1.925631
      79A      1.936585    80A      1.942610    81A      1.945563
      82A      1.951034    83A      1.952442    84A      1.964421
      85A      1.967693    86A      1.979110    87A      2.018689
      88A      2.058230    89A      2.097293    90A      2.111977
      91A      2.121571    92A      2.141915    93A      2.289719
      94A      2.306164    95A      2.313083    96A      2.349201
      97A      2.452553    98A      2.462312    99A      2.472201
     100A      2.482585   101A      2.562453   102A      2.569824
     103A      2.578990   104A      2.587920   105A      2.762082
     106A      2.767969   107A      2.788440   108A      2.799573
     109A      2.849287   110A      2.853446   111A      2.857099
     112A      2.863289   113A      2.952376   114A      2.958049
     115A      2.977872   116A      2.991939

    Final Occupation by Irrep:
              A
    DOCC [    18 ]

  @RHF Final Energy:  -158.46381033656459

   => Energetics <=

    Nuclear Repulsion Energy =            125.0149696908103465
    One-Electron Energy =                -459.1457323756019946
    Two-Electron Energy =                 175.6669523482270563
    Total Energy =                       -158.4638103365645918

Computation Completed

Properties will be evaluated at   0.000000,   0.000000,   0.000000 [a0]

Properties computed using the SCF density matrix

  Nuclear Dipole Moment: [e a0]
     X:    -0.0440      Y:    -0.0053      Z:     0.0019

  Electronic Dipole Moment: [e a0]
     X:     0.0376      Y:    -0.0010      Z:     0.0044

  Dipole Moment: [e a0]
     X:    -0.0064      Y:    -0.0063      Z:     0.0064     Total:     0.0111

  Dipole Moment: [D]
     X:    -0.0164      Y:    -0.0161      Z:     0.0162     Total:     0.0281

*** tstop() called on ds3 at Mon Apr 27 13:26:53 2020
Module time:
	user time   =       9.06 seconds =       0.15 minutes
	system time =       3.28 seconds =       0.05 minutes
	total time  =         12 seconds =       0.20 minutes
Total time:
	user time   =       9.06 seconds =       0.15 minutes
	system time =       3.28 seconds =       0.05 minutes
	total time  =         12 seconds =       0.20 minutes
                                     G D M A

                                 by Anthony Stone

                           version 2.2.06, 22 June 2011

               Distributed Multipoles from Gaussian wavefunctions

Starting at 13:26:53 on 27 Apr 2020

Using SCF density matrix from file ./SSI/SSI-096VAL-105LEU-1-dimer.test.6643.fchk

                         Distributed Multipole Analysis

Standard DMA

Positions and radii in angstrom
Multipole moments in atomic units, ea_0^k for rank k

C          x =  0.847986  y =  1.699120  z =  0.478457 angstrom
           Maximum rank =  0   Radius =  0.650 angstrom
                   Q00  =  -0.237851

C          x =  0.674986  y =  2.343120  z = -0.895543 angstrom
           Maximum rank =  0   Radius =  0.650 angstrom
                   Q00  =  -0.235046

H          x =  1.487986  y =  2.324120  z =  1.103457 angstrom
           Maximum rank =  0   Radius =  0.325 angstrom
                   Q00  =   0.075687

H          x = -0.125014  y =  1.603120  z =  0.959457 angstrom
           Maximum rank =  0   Radius =  0.325 angstrom
                   Q00  =   0.075116

H          x =  1.305986  y =  0.716120  z =  0.395457 angstrom
           Maximum rank =  0   Radius =  0.325 angstrom
                   Q00  =   0.086110

H          x =  0.010986  y =  1.718120  z = -1.494543 angstrom
           Maximum rank =  0   Radius =  0.325 angstrom
                   Q00  =   0.078262

H          x =  1.652286  y =  2.434560  z = -1.392053 angstrom
           Maximum rank =  0   Radius =  0.325 angstrom
                   Q00  =   0.078828

H          x =  0.206746  y =  3.332260  z = -0.784433 angstrom
           Maximum rank =  0   Radius =  0.325 angstrom
                   Q00  =   0.077733

C          x = -0.404014  y = -1.377880  z =  0.017457 angstrom
           Maximum rank =  0   Radius =  0.650 angstrom
                   Q00  =  -0.238238

C          x = -1.115014  y = -2.663880  z =  0.399457 angstrom
           Maximum rank =  0   Radius =  0.650 angstrom
                   Q00  =  -0.228560

H          x =  0.671986  y = -1.491880  z =  0.161457 angstrom
           Maximum rank =  0   Radius =  0.325 angstrom
                   Q00  =   0.076096

H          x = -0.599014  y = -1.146880  z = -1.030543 angstrom
           Maximum rank =  0   Radius =  0.325 angstrom
                   Q00  =   0.077910

H          x = -0.781014  y = -0.556880  z =  0.620457 angstrom
           Maximum rank =  0   Radius =  0.325 angstrom
                   Q00  =   0.080219

H          x = -2.191014  y = -2.508880  z =  0.330457 angstrom
           Maximum rank =  0   Radius =  0.325 angstrom
                   Q00  =   0.078429

H          x = -0.849114  y = -2.957020  z =  1.425797 angstrom
           Maximum rank =  0   Radius =  0.325 angstrom
                   Q00  =   0.077924

H          x = -0.837784  y = -3.472460  z = -0.292893 angstrom
           Maximum rank =  0   Radius =  0.325 angstrom
                   Q00  =   0.077382

Total multipoles referred to origin at
           x =   0.000000,  y =    0.000000,  z =    0.000000 angstrom
                   Q00  =  -0.000000

Finished at 13:26:53 on 27 Apr 2020

  DMA results are available in the Python driver through the
	  variable('DMA DISTRIBUTED MULTIPOLES')
  and
	  variable('DMA TOTAL MULTIPOLES')
  commands.

    Psi4 stopped on: Monday, 27 April 2020 01:26PM
    Psi4 wall time for execution: 0:00:12.07

*** Psi4 exiting successfully. Buy a developer a beer!
