                               Psi4 1.3.2 release

  ==> Input File <==

--------------------------------------------------------------------------
import numpy as np
set {scf_type pk
basis cc-pvdz
d_convergence 10
gdma_switch   0
gdma_limit    0
gdma_origin   [ 0.0,  0.0,  0.0 ]
}
molecule test {
    units Angstrom
    0 1
    --
    0 1
    C                0.546712698366016    -2.558739140427083    -1.204359257494328
    C                0.403712698366016    -0.131739140427083    -0.557359257494328
    C                0.876712698366016    -1.409739140427083    -0.288359257494328
    C                0.746712698366017     0.929260859572917     0.273640742505672
    C                1.686712698366017    -1.606739140427083     0.825640742505672
    C                1.547712698366017     0.724260859572917     1.380640742505672
    C                2.019712698366016    -0.547739140427083     1.664640742505672
    H               -0.210287301633984     0.060260859572917    -1.425359257494328
    H                0.373712698366016     1.918260859572917     0.063640742505672
    H                1.166712698366017    -3.409739140427083    -0.916359257494328
    H                0.828712698366016    -2.293739140427083    -2.224359257494328
    H                2.064712698366017    -2.593739140427083     1.050640742505672
    H                1.802712698366016     1.553260859572917     2.026640742505672
    H                2.642712698366017    -0.718739140427083     2.532640742505672
    H               -0.505817301633984    -2.877929140427083    -1.187221257494328
    C               -2.803287301633984     2.008260859572917    -0.360359257494328
    C               -3.999287301633984     2.228260859572917    -1.306359257494328
    H               -2.683287301633984     0.956260859572917    -0.115359257494328
    H               -1.890287301633983     2.361260859572917    -0.835359257494328
    H               -2.961287301633984     2.561260859572917     0.555640742505672
    H               -3.809287301633983     1.683260859572917    -2.228359257494328
    H               -4.925807301633983     1.842450859572917    -0.856127257494328
    H               -4.102647301633984     3.299460859572917    -1.534044257494328

}
e, wfn = energy('scf', return_wfn=True)
gdma(wfn)
dmavals = variable('DMA DISTRIBUTED MULTIPOLES')
charges = np.array(dmavals)
print(charges)
np.save('SSI-129PHE-133VAL-1-dimer.npy', np.array(charges))--------------------------------------------------------------------------

*** tstart() called on ds3
*** at Tue Apr 28 14:31:33 2020

   => Loading Basis Set <=

    Name: CC-PVDZ
    Role: ORBITAL
    Keyword: BASIS
    atoms 1-7, 16-17  entry C          line   138 file /theoryfs2/ds/metcalf/miniconda2/envs/tf2gpu/share/psi4/basis/cc-pvdz.gbs
    atoms 8-15, 18-23 entry H          line    22 file /theoryfs2/ds/metcalf/miniconda2/envs/tf2gpu/share/psi4/basis/cc-pvdz.gbs

         ---------------------------------------------------------
                                   SCF
               by Justin Turney, Rob Parrish, Andy Simmonett
                          and Daniel G. A. Smith
                              RHF Reference
                        1 Threads,    500 MiB Core
         ---------------------------------------------------------

  ==> Geometry <==

    Molecular point group: c1
    Full point group: C1

    Geometry (in Angstrom), charge = 0, multiplicity = 1:

       Center              X                  Y                   Z               Mass
    ------------   -----------------  -----------------  -----------------  -----------------
         C            0.546712698366    -2.558739140427    -1.204359257494    12.000000000000
         C            0.403712698366    -0.131739140427    -0.557359257494    12.000000000000
         C            0.876712698366    -1.409739140427    -0.288359257494    12.000000000000
         C            0.746712698366     0.929260859573     0.273640742506    12.000000000000
         C            1.686712698366    -1.606739140427     0.825640742506    12.000000000000
         C            1.547712698366     0.724260859573     1.380640742506    12.000000000000
         C            2.019712698366    -0.547739140427     1.664640742506    12.000000000000
         H           -0.210287301634     0.060260859573    -1.425359257494     1.007825032230
         H            0.373712698366     1.918260859573     0.063640742506     1.007825032230
         H            1.166712698366    -3.409739140427    -0.916359257494     1.007825032230
         H            0.828712698366    -2.293739140427    -2.224359257494     1.007825032230
         H            2.064712698366    -2.593739140427     1.050640742506     1.007825032230
         H            1.802712698366     1.553260859573     2.026640742506     1.007825032230
         H            2.642712698366    -0.718739140427     2.532640742506     1.007825032230
         H           -0.505817301634    -2.877929140427    -1.187221257494     1.007825032230
         C           -2.803287301634     2.008260859573    -0.360359257494    12.000000000000
         C           -3.999287301634     2.228260859573    -1.306359257494    12.000000000000
         H           -2.683287301634     0.956260859573    -0.115359257494     1.007825032230
         H           -1.890287301634     2.361260859573    -0.835359257494     1.007825032230
         H           -2.961287301634     2.561260859573     0.555640742506     1.007825032230
         H           -3.809287301634     1.683260859573    -2.228359257494     1.007825032230
         H           -4.925807301634     1.842450859573    -0.856127257494     1.007825032230
         H           -4.102647301634     3.299460859573    -1.534044257494     1.007825032230

  Running in c1 symmetry.

  Rotational constants: A =      0.07439  B =      0.02165  C =      0.01755 [cm^-1]
  Rotational constants: A =   2230.24575  B =    649.00077  C =    526.09226 [MHz]
  Nuclear repulsion =  400.223934141461712

  Charge       = 0
  Multiplicity = 1
  Electrons    = 68
  Nalpha       = 34
  Nbeta        = 34

  ==> Algorithm <==

  SCF Algorithm Type is PK.
  DIIS enabled.
  MOM disabled.
  Fractional occupation disabled.
  Guess Type is SAD.
  Energy threshold   = 1.00e-06
  Density threshold  = 1.00e-10
  Integral threshold = 0.00e+00

  ==> Primary Basis <==

  Basis Set: CC-PVDZ
    Blend: CC-PVDZ
    Number of shells: 96
    Number of basis function: 196
    Number of Cartesian functions: 205
    Spherical Harmonics?: true
    Max angular momentum: 2

  ==> Pre-Iterations <==

   -------------------------------------------------------
    Irrep   Nso     Nmo     Nalpha   Nbeta   Ndocc  Nsocc
   -------------------------------------------------------
     A        196     196       0       0       0       0
   -------------------------------------------------------
    Total     196     196      34      34      34       0
   -------------------------------------------------------

  ==> Integral Setup <==

  Using integral reordering PK algorithm.
  Sizing the integral batches needed.
  Building batch lookup table.
   Calculation information:
      Number of atoms:                  23
      Number of AO shells:              96
      Number of primitives:            268
      Number of atomic orbitals:       205
      Number of basis functions:       196

      Integral cutoff                 1.00e-12
      Number of threads:                 1

	Batch   1 pq = [       0,    9405] index = [             0,44231715] size =     44231715
	Batch   2 pq = [    9405,   13301] index = [      44231715,88464951] size =     44233236
	Batch   3 pq = [   13301,   16290] index = [      88464951,132690195] size =     44225244
	Batch   4 pq = [   16290,   18810] index = [     132690195,176917455] size =     44227260
	Batch   5 pq = [   18810,   19306] index = [     176917455,186370471] size =      9453016
  Task number: 17
  Buffer size: 11059200
  Buffer per thread: 2
  We computed 8654837 shell quartets total.
  Whereas there are 10841496 unique shell quartets.

  ==> DiskJK: Disk-Based J/K Matrices <==

    J tasked:                  Yes
    K tasked:                  Yes
    wK tasked:                  No
    Memory [MiB]:              375
    Schwarz Cutoff:          1E-12

    OpenMP threads:              1

  Minimum eigenvalue in the overlap matrix is 3.0161513864E-04.
  Using Symmetric Orthogonalization.

  SCF Guess: Superposition of Atomic Densities via on-the-fly atomic UHF.

  ==> Iterations <==

                        Total Energy        Delta E     RMS |[F,P]|

   @RHF iter SAD:  -347.89713045630788   -3.47897e+02   0.00000e+00
   @RHF iter   1:  -348.76736643610315   -8.70236e-01   2.89923e-03 DIIS
   @RHF iter   2:  -348.96050655101629   -1.93140e-01   1.20123e-03 DIIS
   @RHF iter   3:  -348.99068756391307   -3.01810e-02   2.58580e-04 DIIS
   @RHF iter   4:  -348.99315681952442   -2.46926e-03   5.32469e-05 DIIS
   @RHF iter   5:  -348.99323116966161   -7.43501e-05   1.78609e-05 DIIS
   @RHF iter   6:  -348.99323892922911   -7.75957e-06   4.77045e-06 DIIS
   @RHF iter   7:  -348.99323957171470   -6.42486e-07   1.25631e-06 DIIS
   @RHF iter   8:  -348.99323961999113   -4.82764e-08   2.81900e-07 DIIS
   @RHF iter   9:  -348.99323962451717   -4.52604e-09   1.11053e-07 DIIS
   @RHF iter  10:  -348.99323962533083   -8.13657e-10   4.89896e-08 DIIS
   @RHF iter  11:  -348.99323962560743   -2.76600e-10   1.84389e-08 DIIS
   @RHF iter  12:  -348.99323962565268   -4.52474e-11   8.09866e-09 DIIS
   @RHF iter  13:  -348.99323962566183   -9.15179e-12   3.17149e-09 DIIS
   @RHF iter  14:  -348.99323962566012    1.70530e-12   7.24295e-10 DIIS
   @RHF iter  15:  -348.99323962566274   -2.61480e-12   3.34400e-10 DIIS
   @RHF iter  16:  -348.99323962566166    1.08002e-12   1.21637e-10 DIIS
   @RHF iter  17:  -348.99323962566132    3.41061e-13   5.03027e-11 DIIS
  Energy and wave function converged.

  ==> Post-Iterations <==

    Orbital Energies [Eh]
    ---------------------

    Doubly Occupied:

       1A    -11.239223     2A    -11.233720     3A    -11.232089
       4A    -11.229159     5A    -11.228932     6A    -11.228535
       7A    -11.228249     8A    -11.219905     9A    -11.215420
      10A     -1.154264    11A     -1.044932    12A     -1.016000
      13A     -1.011222    14A     -0.931195    15A     -0.838626
      16A     -0.824958    17A     -0.795246    18A     -0.691336
      19A     -0.631876    20A     -0.628587    21A     -0.598360
      22A     -0.596564    23A     -0.581320    24A     -0.576585
      25A     -0.562851    26A     -0.532404    27A     -0.497855
      28A     -0.489345    29A     -0.487825    30A     -0.486308
      31A     -0.483253    32A     -0.480070    33A     -0.331183
      34A     -0.323059

    Virtual:

      35A      0.135452    36A      0.144379    37A      0.172588
      38A      0.194445    39A      0.201191    40A      0.218234
      41A      0.238513    42A      0.241403    43A      0.251942
      44A      0.258905    45A      0.265080    46A      0.273812
      47A      0.287955    48A      0.291673    49A      0.296531
      50A      0.328916    51A      0.366013    52A      0.381382
      53A      0.397455    54A      0.452681    55A      0.466416
      56A      0.475051    57A      0.507542    58A      0.564949
      59A      0.588664    60A      0.597695    61A      0.605180
      62A      0.618359    63A      0.631375    64A      0.671418
      65A      0.686469    66A      0.693712    67A      0.701075
      68A      0.706086    69A      0.719689    70A      0.742810
      71A      0.743825    72A      0.749957    73A      0.761356
      74A      0.774516    75A      0.783206    76A      0.802589
      77A      0.811095    78A      0.844947    79A      0.861463
      80A      0.872709    81A      0.886543    82A      0.892088
      83A      0.893120    84A      0.894850    85A      0.898933
      86A      0.909914    87A      0.918277    88A      0.922108
      89A      0.926815    90A      0.931219    91A      0.944998
      92A      0.957826    93A      0.985688    94A      0.999605
      95A      1.020445    96A      1.053937    97A      1.121456
      98A      1.128220    99A      1.131333   100A      1.147518
     101A      1.156788   102A      1.164969   103A      1.199248
     104A      1.221439   105A      1.241223   106A      1.252320
     107A      1.254568   108A      1.272323   109A      1.302707
     110A      1.312581   111A      1.326365   112A      1.332215
     113A      1.416121   114A      1.467211   115A      1.483411
     116A      1.515356   117A      1.524742   118A      1.546804
     119A      1.584345   120A      1.611158   121A      1.680296
     122A      1.684042   123A      1.687387   124A      1.700704
     125A      1.738443   126A      1.747375   127A      1.764132
     128A      1.793053   129A      1.819853   130A      1.861241
     131A      1.864535   132A      1.876126   133A      1.891499
     134A      1.899189   135A      1.904340   136A      1.910948
     137A      1.922599   138A      1.927685   139A      1.937776
     140A      1.940924   141A      1.947405   142A      1.951777
     143A      1.958885   144A      1.966982   145A      1.974796
     146A      1.983563   147A      2.000504   148A      2.024143
     149A      2.041866   150A      2.053330   151A      2.079063
     152A      2.091337   153A      2.107866   154A      2.119020
     155A      2.133390   156A      2.162633   157A      2.173438
     158A      2.190470   159A      2.204646   160A      2.248721
     161A      2.272638   162A      2.291729   163A      2.296693
     164A      2.305446   165A      2.315575   166A      2.339425
     167A      2.351812   168A      2.448182   169A      2.459756
     170A      2.468336   171A      2.480871   172A      2.524002
     173A      2.539423   174A      2.559725   175A      2.578109
     176A      2.632176   177A      2.736098   178A      2.759269
     179A      2.765006   180A      2.770455   181A      2.794808
     182A      2.801978   183A      2.820477   184A      2.852376
     185A      2.854375   186A      2.857016   187A      2.871312
     188A      2.957738   189A      2.962983   190A      2.988629
     191A      3.017177   192A      3.036310   193A      3.166577
     194A      3.212123   195A      3.308192   196A      3.983136

    Final Occupation by Irrep:
              A
    DOCC [    34 ]

  @RHF Final Energy:  -348.99323962566132

   => Energetics <=

    Nuclear Repulsion Energy =            400.2239341414617115
    One-Electron Energy =               -1263.1334348715274700
    Two-Electron Energy =                 513.9162611044043842
    Total Energy =                       -348.9932396256613174

Computation Completed

Properties will be evaluated at   0.000000,   0.000000,   0.000000 [a0]

Properties computed using the SCF density matrix

  Nuclear Dipole Moment: [e a0]
     X:   -11.4460      Y:     4.0704      Z:    -4.7749

  Electronic Dipole Moment: [e a0]
     X:    11.4320      Y:    -4.1613      Z:     4.7139

  Dipole Moment: [e a0]
     X:    -0.0139      Y:    -0.0910      Z:    -0.0610     Total:     0.1104

  Dipole Moment: [D]
     X:    -0.0354      Y:    -0.2312      Z:    -0.1550     Total:     0.2806

*** tstop() called on ds3 at Tue Apr 28 14:33:54 2020
Module time:
	user time   =      61.49 seconds =       1.02 minutes
	system time =      25.65 seconds =       0.43 minutes
	total time  =        141 seconds =       2.35 minutes
Total time:
	user time   =      61.49 seconds =       1.02 minutes
	system time =      25.65 seconds =       0.43 minutes
	total time  =        141 seconds =       2.35 minutes
                                     G D M A

                                 by Anthony Stone

                           version 2.2.06, 22 June 2011

               Distributed Multipoles from Gaussian wavefunctions

Starting at 14:33:54 on 28 Apr 2020

Using SCF density matrix from file ./SSI/SSI-129PHE-133VAL-1-dimer.test.26516.fchk

                         Distributed Multipole Analysis

Standard DMA

Positions and radii in angstrom
Multipole moments in atomic units, ea_0^k for rank k

C          x =  0.546713  y = -2.558739  z = -1.204359 angstrom
           Maximum rank =  0   Radius =  0.650 angstrom
                   Q00  =  -0.208641

C          x =  0.403713  y = -0.131739  z = -0.557359 angstrom
           Maximum rank =  0   Radius =  0.650 angstrom
                   Q00  =  -0.092683

C          x =  0.876713  y = -1.409739  z = -0.288359 angstrom
           Maximum rank =  0   Radius =  0.650 angstrom
                   Q00  =  -0.093528

C          x =  0.746713  y =  0.929261  z =  0.273641 angstrom
           Maximum rank =  0   Radius =  0.650 angstrom
                   Q00  =  -0.058434

C          x =  1.686713  y = -1.606739  z =  0.825641 angstrom
           Maximum rank =  0   Radius =  0.650 angstrom
                   Q00  =   0.007075

C          x =  1.547713  y =  0.724261  z =  1.380641 angstrom
           Maximum rank =  0   Radius =  0.650 angstrom
                   Q00  =  -0.085073

C          x =  2.019713  y = -0.547739  z =  1.664641 angstrom
           Maximum rank =  0   Radius =  0.650 angstrom
                   Q00  =  -0.069095

H          x = -0.210287  y =  0.060261  z = -1.425359 angstrom
           Maximum rank =  0   Radius =  0.325 angstrom
                   Q00  =   0.054949

H          x =  0.373713  y =  1.918261  z =  0.063641 angstrom
           Maximum rank =  0   Radius =  0.325 angstrom
                   Q00  =   0.062662

H          x =  1.166713  y = -3.409739  z = -0.916359 angstrom
           Maximum rank =  0   Radius =  0.325 angstrom
                   Q00  =   0.094783

H          x =  0.828713  y = -2.293739  z = -2.224359 angstrom
           Maximum rank =  0   Radius =  0.325 angstrom
                   Q00  =   0.101191

H          x =  2.064713  y = -2.593739  z =  1.050641 angstrom
           Maximum rank =  0   Radius =  0.325 angstrom
                   Q00  =   0.057058

H          x =  1.802713  y =  1.553261  z =  2.026641 angstrom
           Maximum rank =  0   Radius =  0.325 angstrom
                   Q00  =   0.059288

H          x =  2.642713  y = -0.718739  z =  2.532641 angstrom
           Maximum rank =  0   Radius =  0.325 angstrom
                   Q00  =   0.064993

H          x = -0.505817  y = -2.877929  z = -1.187221 angstrom
           Maximum rank =  0   Radius =  0.325 angstrom
                   Q00  =   0.104385

C          x = -2.803287  y =  2.008261  z = -0.360359 angstrom
           Maximum rank =  0   Radius =  0.650 angstrom
                   Q00  =  -0.242294

C          x = -3.999287  y =  2.228261  z = -1.306359 angstrom
           Maximum rank =  0   Radius =  0.650 angstrom
                   Q00  =  -0.235909

H          x = -2.683287  y =  0.956261  z = -0.115359 angstrom
           Maximum rank =  0   Radius =  0.325 angstrom
                   Q00  =   0.086405

H          x = -1.890287  y =  2.361261  z = -0.835359 angstrom
           Maximum rank =  0   Radius =  0.325 angstrom
                   Q00  =   0.072617

H          x = -2.961287  y =  2.561261  z =  0.555641 angstrom
           Maximum rank =  0   Radius =  0.325 angstrom
                   Q00  =   0.081105

H          x = -3.809287  y =  1.683261  z = -2.228359 angstrom
           Maximum rank =  0   Radius =  0.325 angstrom
                   Q00  =   0.077753

H          x = -4.925807  y =  1.842451  z = -0.856127 angstrom
           Maximum rank =  0   Radius =  0.325 angstrom
                   Q00  =   0.081335

H          x = -4.102647  y =  3.299461  z = -1.534044 angstrom
           Maximum rank =  0   Radius =  0.325 angstrom
                   Q00  =   0.080057

Total multipoles referred to origin at
           x =   0.000000,  y =    0.000000,  z =    0.000000 angstrom
                   Q00  =  -0.000000

Finished at 14:33:54 on 28 Apr 2020

  DMA results are available in the Python driver through the
	  variable('DMA DISTRIBUTED MULTIPOLES')
  and
	  variable('DMA TOTAL MULTIPOLES')
  commands.

    Psi4 stopped on: Tuesday, 28 April 2020 02:33PM
    Psi4 wall time for execution: 0:02:21.39

*** Psi4 exiting successfully. Buy a developer a beer!
