                               Psi4 1.3.2 release

  ==> Input File <==

--------------------------------------------------------------------------
import numpy as np
set {scf_type pk
basis cc-pvdz
d_convergence 10
gdma_switch   0
gdma_limit    0
gdma_origin   [ 0.0,  0.0,  0.0 ]
}
molecule test {
    units Angstrom
    0 1
    --
    0 1
    C               -2.493564274869670     3.555319222615805     2.384053863133200
    C               -2.855564274869670     2.831319222615805     3.684053863133200
    H               -1.479564274869670     3.301319222615805     2.079053863133200
    H               -3.178564274869670     3.259319222615805     1.590053863133200
    H               -2.561564274869670     4.635319222615805     2.504053863133201
    H               -3.781564274869670     3.254319222615805     4.071053863133201
    H               -2.059116274869670     2.960473222615805     4.431713863133201
    H               -3.027208274869670     1.760346222615805     3.500873863133200
    C               -0.349564274869670    -2.228680777384195    -3.038946136866800
    C                0.258435725130330    -0.778680777384195    -0.977946136866800
    C                0.549435725130330    -1.789680777384195    -1.945946136866800
    C                1.383435725130330    -0.674680777384195    -0.123946136866800
    C                1.799435725130330    -2.246680777384195    -1.666946136866799
    C               -0.802564274869670     0.952319222615805     0.315053863133200
    C                0.329435725130330     1.030319222615805     1.146053863133200
    C               -0.843564274869670     0.057319222615805    -0.750946136866800
    C                1.432435725130330     0.225319222615805     0.930053863133200
    N                2.299435725130330    -1.591680777384195    -0.567946136866800
    H               -1.653564274869670     1.592319222615805     0.498053863133200
    H                0.337435725130330     1.730319222615805     1.970053863133201
    H               -1.712564274869670    -0.006680777384195    -1.387946136866800
    H                2.305435725130330     0.275319222615805     1.558053863133201
    H                0.248435725130330    -2.560680777384195    -3.885946136866800
    H               -0.939564274869670    -1.370680777384195    -3.365946136866800
    H                2.313435725130330    -3.027680777384195    -2.215946136866800
    H                3.227435725130330    -1.766680777384195    -0.183946136866800
    H               -1.029933274869670    -3.036440777384195    -2.731332136866800

}
e, wfn = energy('scf', return_wfn=True)
gdma(wfn)
dmavals = variable('DMA DISTRIBUTED MULTIPOLES')
charges = np.array(dmavals)
print(charges)
np.save('SSI-008VAL-039TRP-1-dimer.npy', np.array(charges))--------------------------------------------------------------------------

*** tstart() called on ds3
*** at Tue Apr 28 10:05:04 2020

   => Loading Basis Set <=

    Name: CC-PVDZ
    Role: ORBITAL
    Keyword: BASIS
    atoms 1-2, 9-17  entry C          line   138 file /theoryfs2/ds/metcalf/miniconda2/envs/tf2gpu/share/psi4/basis/cc-pvdz.gbs
    atoms 3-8, 19-27 entry H          line    22 file /theoryfs2/ds/metcalf/miniconda2/envs/tf2gpu/share/psi4/basis/cc-pvdz.gbs
    atoms 18         entry N          line   168 file /theoryfs2/ds/metcalf/miniconda2/envs/tf2gpu/share/psi4/basis/cc-pvdz.gbs

         ---------------------------------------------------------
                                   SCF
               by Justin Turney, Rob Parrish, Andy Simmonett
                          and Daniel G. A. Smith
                              RHF Reference
                        1 Threads,    500 MiB Core
         ---------------------------------------------------------

  ==> Geometry <==

    Molecular point group: c1
    Full point group: C1

    Geometry (in Angstrom), charge = 0, multiplicity = 1:

       Center              X                  Y                   Z               Mass
    ------------   -----------------  -----------------  -----------------  -----------------
         C           -2.493564274870     3.555319222616     2.384053863133    12.000000000000
         C           -2.855564274870     2.831319222616     3.684053863133    12.000000000000
         H           -1.479564274870     3.301319222616     2.079053863133     1.007825032230
         H           -3.178564274870     3.259319222616     1.590053863133     1.007825032230
         H           -2.561564274870     4.635319222616     2.504053863133     1.007825032230
         H           -3.781564274870     3.254319222616     4.071053863133     1.007825032230
         H           -2.059116274870     2.960473222616     4.431713863133     1.007825032230
         H           -3.027208274870     1.760346222616     3.500873863133     1.007825032230
         C           -0.349564274870    -2.228680777384    -3.038946136867    12.000000000000
         C            0.258435725130    -0.778680777384    -0.977946136867    12.000000000000
         C            0.549435725130    -1.789680777384    -1.945946136867    12.000000000000
         C            1.383435725130    -0.674680777384    -0.123946136867    12.000000000000
         C            1.799435725130    -2.246680777384    -1.666946136867    12.000000000000
         C           -0.802564274870     0.952319222616     0.315053863133    12.000000000000
         C            0.329435725130     1.030319222616     1.146053863133    12.000000000000
         C           -0.843564274870     0.057319222616    -0.750946136867    12.000000000000
         C            1.432435725130     0.225319222616     0.930053863133    12.000000000000
         N            2.299435725130    -1.591680777384    -0.567946136867    14.003074004430
         H           -1.653564274870     1.592319222616     0.498053863133     1.007825032230
         H            0.337435725130     1.730319222616     1.970053863133     1.007825032230
         H           -1.712564274870    -0.006680777384    -1.387946136867     1.007825032230
         H            2.305435725130     0.275319222616     1.558053863133     1.007825032230
         H            0.248435725130    -2.560680777384    -3.885946136867     1.007825032230
         H           -0.939564274870    -1.370680777384    -3.365946136867     1.007825032230
         H            2.313435725130    -3.027680777384    -2.215946136867     1.007825032230
         H            3.227435725130    -1.766680777384    -0.183946136867     1.007825032230
         H           -1.029933274870    -3.036440777384    -2.731332136867     1.007825032230

  Running in c1 symmetry.

  Rotational constants: A =      0.06862  B =      0.01228  C =      0.01074 [cm^-1]
  Rotational constants: A =   2057.18216  B =    368.06112  C =    322.08301 [MHz]
  Nuclear repulsion =  638.471017106463592

  Charge       = 0
  Multiplicity = 1
  Electrons    = 88
  Nalpha       = 44
  Nbeta        = 44

  ==> Algorithm <==

  SCF Algorithm Type is PK.
  DIIS enabled.
  MOM disabled.
  Fractional occupation disabled.
  Guess Type is SAD.
  Energy threshold   = 1.00e-06
  Density threshold  = 1.00e-10
  Integral threshold = 0.00e+00

  ==> Primary Basis <==

  Basis Set: CC-PVDZ
    Blend: CC-PVDZ
    Number of shells: 117
    Number of basis function: 243
    Number of Cartesian functions: 255
    Spherical Harmonics?: true
    Max angular momentum: 2

  ==> Pre-Iterations <==

   -------------------------------------------------------
    Irrep   Nso     Nmo     Nalpha   Nbeta   Ndocc  Nsocc
   -------------------------------------------------------
     A        243     243       0       0       0       0
   -------------------------------------------------------
    Total     243     243      44      44      44       0
   -------------------------------------------------------

  ==> Integral Setup <==

  Using integral reordering PK algorithm.
  Sizing the integral batches needed.
  Building batch lookup table.
   Calculation information:
      Number of atoms:                  27
      Number of AO shells:             117
      Number of primitives:            339
      Number of atomic orbitals:       255
      Number of basis functions:       243

      Integral cutoff                 1.00e-12
      Number of threads:                 1

	Batch   1 pq = [       0,    9405] index = [             0,44231715] size =     44231715
	Batch   2 pq = [    9405,   13301] index = [      44231715,88464951] size =     44233236
	Batch   3 pq = [   13301,   16290] index = [      88464951,132690195] size =     44225244
	Batch   4 pq = [   16290,   18810] index = [     132690195,176917455] size =     44227260
	Batch   5 pq = [   18810,   21030] index = [     176917455,221140965] size =     44223510
	Batch   6 pq = [   21030,   23037] index = [     221140965,265363203] size =     44222238
	Batch   7 pq = [   23037,   24883] index = [     265363203,309594286] size =     44231083
	Batch   8 pq = [   24883,   26601] index = [     309594286,353819901] size =     44225615
	Batch   9 pq = [   26601,   28214] index = [     353819901,398029005] size =     44209104
	Batch  10 pq = [   28214,   29646] index = [     398029005,439457481] size =     41428476
  Task number: 40
  Buffer size: 11059200
  Buffer per thread: 2
  We computed 19598990 shell quartets total.
  Whereas there are 23829156 unique shell quartets.

  ==> DiskJK: Disk-Based J/K Matrices <==

    J tasked:                  Yes
    K tasked:                  Yes
    wK tasked:                  No
    Memory [MiB]:              375
    Schwarz Cutoff:          1E-12

    OpenMP threads:              1

  Minimum eigenvalue in the overlap matrix is 2.3647170113E-04.
  Using Symmetric Orthogonalization.

  SCF Guess: Superposition of Atomic Densities via on-the-fly atomic UHF.

  ==> Iterations <==

                        Total Energy        Delta E     RMS |[F,P]|

   @RHF iter SAD:  -479.09723843771542   -4.79097e+02   0.00000e+00
   @RHF iter   1:  -479.48623097186493   -3.88993e-01   2.61515e-03 DIIS
   @RHF iter   2:  -479.72012450452627   -2.33894e-01   1.16913e-03 DIIS
   @RHF iter   3:  -479.76266235991773   -4.25379e-02   3.07734e-04 DIIS
   @RHF iter   4:  -479.76654399779056   -3.88164e-03   1.41089e-04 DIIS
   @RHF iter   5:  -479.76720825274663   -6.64255e-04   1.98220e-05 DIIS
   @RHF iter   6:  -479.76723665353649   -2.84008e-05   9.10950e-06 DIIS
   @RHF iter   7:  -479.76724237357791   -5.72004e-06   3.74509e-06 DIIS
   @RHF iter   8:  -479.76724397013334   -1.59656e-06   1.46737e-06 DIIS
   @RHF iter   9:  -479.76724428287196   -3.12739e-07   6.48896e-07 DIIS
   @RHF iter  10:  -479.76724434477148   -6.18995e-08   2.96577e-07 DIIS
   @RHF iter  11:  -479.76724436018327   -1.54118e-08   1.14088e-07 DIIS
   @RHF iter  12:  -479.76724436246758   -2.28431e-09   3.60852e-08 DIIS
   @RHF iter  13:  -479.76724436262191   -1.54330e-10   9.13377e-09 DIIS
   @RHF iter  14:  -479.76724436263197   -1.00613e-11   3.30839e-09 DIIS
   @RHF iter  15:  -479.76724436263987   -7.90124e-12   1.68215e-09 DIIS
   @RHF iter  16:  -479.76724436263640    3.46745e-12   8.80051e-10 DIIS
   @RHF iter  17:  -479.76724436263947   -3.06954e-12   3.16008e-10 DIIS
   @RHF iter  18:  -479.76724436263640    3.06954e-12   1.42596e-10 DIIS
   @RHF iter  19:  -479.76724436264334   -6.93490e-12   4.58927e-11 DIIS
  Energy and wave function converged.

  ==> Post-Iterations <==

    Orbital Energies [Eh]
    ---------------------

    Doubly Occupied:

       1A    -15.600973     2A    -11.261895     3A    -11.261854
       4A    -11.229310     5A    -11.229278     6A    -11.228047
       7A    -11.223966     8A    -11.220031     9A    -11.217772
      10A    -11.217690    11A    -11.215524    12A    -11.213721
      13A     -1.294816    14A     -1.127433    15A     -1.074860
      16A     -1.016246    17A     -0.997031    18A     -0.986744
      19A     -0.930963    20A     -0.840327    21A     -0.835614
      22A     -0.803840    23A     -0.751448    24A     -0.718203
      25A     -0.662612    26A     -0.643225    27A     -0.602406
      28A     -0.596845    29A     -0.595434    30A     -0.592247
      31A     -0.589414    32A     -0.567726    33A     -0.551961
      34A     -0.538802    35A     -0.525512    36A     -0.500809
      37A     -0.494665    38A     -0.485291    39A     -0.481149
      40A     -0.470401    41A     -0.460422    42A     -0.371899
      43A     -0.294419    44A     -0.273565

    Virtual:

      45A      0.125914    46A      0.170024    47A      0.176846
      48A      0.181606    49A      0.193007    50A      0.216731
      51A      0.220655    52A      0.223378    53A      0.238142
      54A      0.244352    55A      0.246593    56A      0.260713
      57A      0.282004    58A      0.289069    59A      0.289804
      60A      0.294841    61A      0.334732    62A      0.343186
      63A      0.375352    64A      0.384802    65A      0.395724
      66A      0.408410    67A      0.429093    68A      0.451764
      69A      0.479852    70A      0.483610    71A      0.510467
      72A      0.520459    73A      0.592776    74A      0.599344
      75A      0.606282    76A      0.611979    77A      0.626686
      78A      0.641672    79A      0.660515    80A      0.669017
      81A      0.684645    82A      0.695519    83A      0.701251
      84A      0.719776    85A      0.727346    86A      0.736585
      87A      0.741817    88A      0.742459    89A      0.751938
      90A      0.759599    91A      0.770439    92A      0.780405
      93A      0.790576    94A      0.798874    95A      0.823034
      96A      0.841642    97A      0.845942    98A      0.850438
      99A      0.867439   100A      0.881897   101A      0.886988
     102A      0.890416   103A      0.896749   104A      0.899167
     105A      0.905231   106A      0.919989   107A      0.926122
     108A      0.937441   109A      0.947130   110A      0.956749
     111A      0.957621   112A      0.968475   113A      0.980435
     114A      0.995458   115A      1.010462   116A      1.023856
     117A      1.055039   118A      1.074324   119A      1.099923
     120A      1.117930   121A      1.123269   122A      1.138565
     123A      1.145351   124A      1.157338   125A      1.168821
     126A      1.211168   127A      1.217850   128A      1.230407
     129A      1.236737   130A      1.251551   131A      1.268000
     132A      1.270977   133A      1.276724   134A      1.292364
     135A      1.303874   136A      1.328653   137A      1.339446
     138A      1.362226   139A      1.393179   140A      1.429895
     141A      1.450285   142A      1.477268   143A      1.486848
     144A      1.525167   145A      1.559557   146A      1.578775
     147A      1.585887   148A      1.601555   149A      1.630194
     150A      1.640186   151A      1.650657   152A      1.687111
     153A      1.691825   154A      1.701893   155A      1.723707
     156A      1.739000   157A      1.760164   158A      1.767979
     159A      1.791767   160A      1.809211   161A      1.824431
     162A      1.835371   163A      1.874809   164A      1.882535
     165A      1.885857   166A      1.892034   167A      1.893350
     168A      1.902878   169A      1.909927   170A      1.921080
     171A      1.928202   172A      1.933713   173A      1.945053
     174A      1.950054   175A      1.951710   176A      1.957475
     177A      1.964208   178A      1.984947   179A      1.992849
     180A      2.008980   181A      2.013478   182A      2.023270
     183A      2.053256   184A      2.074599   185A      2.087216
     186A      2.089961   187A      2.102965   188A      2.112370
     189A      2.119098   190A      2.129246   191A      2.129893
     192A      2.157758   193A      2.175569   194A      2.190965
     195A      2.207282   196A      2.235572   197A      2.267261
     198A      2.287017   199A      2.301187   200A      2.308672
     201A      2.316182   202A      2.330077   203A      2.349545
     204A      2.356623   205A      2.405530   206A      2.417532
     207A      2.449844   208A      2.452275   209A      2.465090
     210A      2.471808   211A      2.537615   212A      2.576156
     213A      2.588988   214A      2.590876   215A      2.607347
     216A      2.638990   217A      2.673780   218A      2.689726
     219A      2.714991   220A      2.761809   221A      2.770993
     222A      2.786037   223A      2.790663   224A      2.799571
     225A      2.806001   226A      2.834108   227A      2.856420
     228A      2.857616   229A      2.863913   230A      2.884379
     231A      2.917600   232A      2.959336   233A      2.970808
     234A      2.984528   235A      3.036846   236A      3.055732
     237A      3.081183   238A      3.124921   239A      3.212309
     240A      3.318542   241A      3.387441   242A      3.741143
     243A      3.958388

    Final Occupation by Irrep:
              A
    DOCC [    44 ]

  @RHF Final Energy:  -479.76724436264334

   => Energetics <=

    Nuclear Repulsion Energy =            638.4710171064635915
    One-Electron Energy =               -1914.8837383825477900
    Two-Electron Energy =                 796.6454769134406888
    Total Energy =                       -479.7672443626433960

Computation Completed

Properties will be evaluated at   0.000000,   0.000000,   0.000000 [a0]

Properties computed using the SCF density matrix

  Nuclear Dipole Moment: [e a0]
     X:   -12.1854      Y:    10.3170      Z:     7.9063

  Electronic Dipole Moment: [e a0]
     X:    12.8673      Y:   -10.7352      Z:    -7.9501

  Dipole Moment: [e a0]
     X:     0.6819      Y:    -0.4183      Z:    -0.0438     Total:     0.8012

  Dipole Moment: [D]
     X:     1.7333      Y:    -1.0631      Z:    -0.1113     Total:     2.0364

*** tstop() called on ds3 at Tue Apr 28 10:09:09 2020
Module time:
	user time   =     161.18 seconds =       2.69 minutes
	system time =      70.71 seconds =       1.18 minutes
	total time  =        245 seconds =       4.08 minutes
Total time:
	user time   =     161.18 seconds =       2.69 minutes
	system time =      70.71 seconds =       1.18 minutes
	total time  =        245 seconds =       4.08 minutes
                                     G D M A

                                 by Anthony Stone

                           version 2.2.06, 22 June 2011

               Distributed Multipoles from Gaussian wavefunctions

Starting at 10:9:9 on 28 Apr 2020

Using SCF density matrix from file ./SSI/SSI-008VAL-039TRP-1-dimer.test.26772.fchk

                         Distributed Multipole Analysis

Standard DMA

Positions and radii in angstrom
Multipole moments in atomic units, ea_0^k for rank k

C          x = -2.493564  y =  3.555319  z =  2.384054 angstrom
           Maximum rank =  0   Radius =  0.650 angstrom
                   Q00  =  -0.247406

C          x = -2.855564  y =  2.831319  z =  3.684054 angstrom
           Maximum rank =  0   Radius =  0.650 angstrom
                   Q00  =  -0.230426

H          x = -1.479564  y =  3.301319  z =  2.079054 angstrom
           Maximum rank =  0   Radius =  0.325 angstrom
                   Q00  =   0.078507

H          x = -3.178564  y =  3.259319  z =  1.590054 angstrom
           Maximum rank =  0   Radius =  0.325 angstrom
                   Q00  =   0.077958

H          x = -2.561564  y =  4.635319  z =  2.504054 angstrom
           Maximum rank =  0   Radius =  0.325 angstrom
                   Q00  =   0.080464

H          x = -3.781564  y =  3.254319  z =  4.071054 angstrom
           Maximum rank =  0   Radius =  0.325 angstrom
                   Q00  =   0.078420

H          x = -2.059116  y =  2.960473  z =  4.431714 angstrom
           Maximum rank =  0   Radius =  0.325 angstrom
                   Q00  =   0.078350

H          x = -3.027208  y =  1.760346  z =  3.500874 angstrom
           Maximum rank =  0   Radius =  0.325 angstrom
                   Q00  =   0.082399

C          x = -0.349564  y = -2.228681  z = -3.038946 angstrom
           Maximum rank =  0   Radius =  0.650 angstrom
                   Q00  =  -0.212626

C          x =  0.258436  y = -0.778681  z = -0.977946 angstrom
           Maximum rank =  0   Radius =  0.650 angstrom
                   Q00  =  -0.052144

C          x =  0.549436  y = -1.789681  z = -1.945946 angstrom
           Maximum rank =  0   Radius =  0.650 angstrom
                   Q00  =  -0.117738

C          x =  1.383436  y = -0.674681  z = -0.123946 angstrom
           Maximum rank =  0   Radius =  0.650 angstrom
                   Q00  =   0.277725

C          x =  1.799436  y = -2.246681  z = -1.666946 angstrom
           Maximum rank =  0   Radius =  0.650 angstrom
                   Q00  =   0.069281

C          x = -0.802564  y =  0.952319  z =  0.315054 angstrom
           Maximum rank =  0   Radius =  0.650 angstrom
                   Q00  =  -0.097691

C          x =  0.329436  y =  1.030319  z =  1.146054 angstrom
           Maximum rank =  0   Radius =  0.650 angstrom
                   Q00  =  -0.044173

C          x = -0.843564  y =  0.057319  z = -0.750946 angstrom
           Maximum rank =  0   Radius =  0.650 angstrom
                   Q00  =  -0.099035

C          x =  1.432436  y =  0.225319  z =  0.930054 angstrom
           Maximum rank =  0   Radius =  0.650 angstrom
                   Q00  =  -0.114961

N          x =  2.299436  y = -1.591681  z = -0.567946 angstrom
           Maximum rank =  0   Radius =  0.650 angstrom
                   Q00  =  -0.496119

H          x = -1.653564  y =  1.592319  z =  0.498054 angstrom
           Maximum rank =  0   Radius =  0.325 angstrom
                   Q00  =   0.064014

H          x =  0.337436  y =  1.730319  z =  1.970054 angstrom
           Maximum rank =  0   Radius =  0.325 angstrom
                   Q00  =   0.061850

H          x = -1.712564  y = -0.006681  z = -1.387946 angstrom
           Maximum rank =  0   Radius =  0.325 angstrom
                   Q00  =   0.069259

H          x =  2.305436  y =  0.275319  z =  1.558054 angstrom
           Maximum rank =  0   Radius =  0.325 angstrom
                   Q00  =   0.073173

H          x =  0.248436  y = -2.560681  z = -3.885946 angstrom
           Maximum rank =  0   Radius =  0.325 angstrom
                   Q00  =   0.103352

H          x = -0.939564  y = -1.370681  z = -3.365946 angstrom
           Maximum rank =  0   Radius =  0.325 angstrom
                   Q00  =   0.101413

H          x =  2.313436  y = -3.027681  z = -2.215946 angstrom
           Maximum rank =  0   Radius =  0.325 angstrom
                   Q00  =   0.100796

H          x =  3.227436  y = -1.766681  z = -0.183946 angstrom
           Maximum rank =  0   Radius =  0.325 angstrom
                   Q00  =   0.217173

H          x = -1.029933  y = -3.036441  z = -2.731332 angstrom
           Maximum rank =  0   Radius =  0.325 angstrom
                   Q00  =   0.098185

Total multipoles referred to origin at
           x =   0.000000,  y =    0.000000,  z =    0.000000 angstrom
                   Q00  =  -0.000000

Finished at 10:9:9 on 28 Apr 2020

  DMA results are available in the Python driver through the
	  variable('DMA DISTRIBUTED MULTIPOLES')
  and
	  variable('DMA TOTAL MULTIPOLES')
  commands.

    Psi4 stopped on: Tuesday, 28 April 2020 10:09AM
    Psi4 wall time for execution: 0:04:05.22

*** Psi4 exiting successfully. Buy a developer a beer!
