                               Psi4 1.3.2 release

  ==> Input File <==

--------------------------------------------------------------------------
import numpy as np
set {scf_type pk
basis cc-pvdz
d_convergence 10
gdma_switch   0
gdma_limit    0
gdma_origin   [ 0.0,  0.0,  0.0 ]
}
molecule test {
    units Angstrom
    0 1
    --
    0 1
    C                0.960485358944270     0.113526045704495    -1.940590252638230
    C                0.766485358944270     0.116526045704495    -3.453590252638230
    H                1.990485358944270     0.371526045704495    -1.697590252638230
    H                0.305485358944270     0.858526045704495    -1.490590252638230
    H                0.739485358944270    -0.873473954295505    -1.535590252638230
    H                0.995485358944270     1.128526045704495    -3.775590252638231
    H               -0.265864641055730    -0.138181954295505    -3.735334252638230
    H                1.479295358944271    -0.570377954295505    -3.933239252638230
    C               -0.685514641055730     0.773526045704495     2.543409747361769
    C               -0.375514641055730    -0.106473954295505     1.339409747361770
    O                0.692485358944270    -0.710473954295505     1.226409747361769
    N               -1.325514641055729    -0.185473954295505     0.427409747361770
    H               -0.710514641055730     0.130526045704495     3.423409747361769
    H               -1.686514641055729     1.191526045704494     2.449409747361770
    H               -1.203514641055730    -0.809473954295506    -0.363590252638230
    H               -2.195514641055730     0.304526045704495     0.554409747361770
    H                0.049355358944270     1.577463045704494     2.697218747361770

}
e, wfn = energy('scf', return_wfn=True)
gdma(wfn)
dmavals = variable('DMA DISTRIBUTED MULTIPOLES')
charges = np.array(dmavals)
print(charges)
np.save('SSI-028VAL-086ASN-1-dimer.npy', np.array(charges))--------------------------------------------------------------------------

*** tstart() called on ds3
*** at Mon Apr 27 05:57:12 2020

   => Loading Basis Set <=

    Name: CC-PVDZ
    Role: ORBITAL
    Keyword: BASIS
    atoms 1-2, 9-10  entry C          line   138 file /theoryfs2/ds/metcalf/miniconda2/envs/tf2gpu/share/psi4/basis/cc-pvdz.gbs
    atoms 3-8, 13-17 entry H          line    22 file /theoryfs2/ds/metcalf/miniconda2/envs/tf2gpu/share/psi4/basis/cc-pvdz.gbs
    atoms 11         entry O          line   198 file /theoryfs2/ds/metcalf/miniconda2/envs/tf2gpu/share/psi4/basis/cc-pvdz.gbs
    atoms 12         entry N          line   168 file /theoryfs2/ds/metcalf/miniconda2/envs/tf2gpu/share/psi4/basis/cc-pvdz.gbs

         ---------------------------------------------------------
                                   SCF
               by Justin Turney, Rob Parrish, Andy Simmonett
                          and Daniel G. A. Smith
                              RHF Reference
                        1 Threads,    500 MiB Core
         ---------------------------------------------------------

  ==> Geometry <==

    Molecular point group: c1
    Full point group: C1

    Geometry (in Angstrom), charge = 0, multiplicity = 1:

       Center              X                  Y                   Z               Mass
    ------------   -----------------  -----------------  -----------------  -----------------
         C            0.960485358944     0.113526045704    -1.940590252638    12.000000000000
         C            0.766485358944     0.116526045704    -3.453590252638    12.000000000000
         H            1.990485358944     0.371526045704    -1.697590252638     1.007825032230
         H            0.305485358944     0.858526045704    -1.490590252638     1.007825032230
         H            0.739485358944    -0.873473954296    -1.535590252638     1.007825032230
         H            0.995485358944     1.128526045704    -3.775590252638     1.007825032230
         H           -0.265864641056    -0.138181954296    -3.735334252638     1.007825032230
         H            1.479295358944    -0.570377954296    -3.933239252638     1.007825032230
         C           -0.685514641056     0.773526045704     2.543409747362    12.000000000000
         C           -0.375514641056    -0.106473954296     1.339409747362    12.000000000000
         O            0.692485358944    -0.710473954296     1.226409747362    15.994914619570
         N           -1.325514641056    -0.185473954296     0.427409747362    14.003074004430
         H           -0.710514641056     0.130526045704     3.423409747362     1.007825032230
         H           -1.686514641056     1.191526045704     2.449409747362     1.007825032230
         H           -1.203514641056    -0.809473954296    -0.363590252638     1.007825032230
         H           -2.195514641056     0.304526045704     0.554409747362     1.007825032230
         H            0.049355358944     1.577463045704     2.697218747362     1.007825032230

  Running in c1 symmetry.

  Rotational constants: A =      0.23319  B =      0.03826  C =      0.03597 [cm^-1]
  Rotational constants: A =   6990.81520  B =   1147.15466  C =   1078.22885 [MHz]
  Nuclear repulsion =  236.209276513194851

  Charge       = 0
  Multiplicity = 1
  Electrons    = 50
  Nalpha       = 25
  Nbeta        = 25

  ==> Algorithm <==

  SCF Algorithm Type is PK.
  DIIS enabled.
  MOM disabled.
  Fractional occupation disabled.
  Guess Type is SAD.
  Energy threshold   = 1.00e-06
  Density threshold  = 1.00e-10
  Integral threshold = 0.00e+00

  ==> Primary Basis <==

  Basis Set: CC-PVDZ
    Blend: CC-PVDZ
    Number of shells: 69
    Number of basis function: 139
    Number of Cartesian functions: 145
    Spherical Harmonics?: true
    Max angular momentum: 2

  ==> Pre-Iterations <==

   -------------------------------------------------------
    Irrep   Nso     Nmo     Nalpha   Nbeta   Ndocc  Nsocc
   -------------------------------------------------------
     A        139     139       0       0       0       0
   -------------------------------------------------------
    Total     139     139      25      25      25       0
   -------------------------------------------------------

  ==> Integral Setup <==

  Using integral reordering PK algorithm.
  Sizing the integral batches needed.
  Building batch lookup table.
   Calculation information:
      Number of atoms:                  17
      Number of AO shells:              69
      Number of primitives:            187
      Number of atomic orbitals:       145
      Number of basis functions:       139

      Integral cutoff                 1.00e-12
      Number of threads:                 1

	Batch   1 pq = [       0,    9730] index = [             0,47341315] size =     47341315
  Task number: 5
  Buffer size: 11059200
  Buffer per thread: 2
  We computed 2517109 shell quartets total.
  Whereas there are 2917320 unique shell quartets.

  ==> DiskJK: Disk-Based J/K Matrices <==

    J tasked:                  Yes
    K tasked:                  Yes
    wK tasked:                  No
    Memory [MiB]:              375
    Schwarz Cutoff:          1E-12

    OpenMP threads:              1

  Minimum eigenvalue in the overlap matrix is 4.3844813618E-03.
  Using Symmetric Orthogonalization.

  SCF Guess: Superposition of Atomic Densities via on-the-fly atomic UHF.

  ==> Iterations <==

                        Total Energy        Delta E     RMS |[F,P]|

   @RHF iter SAD:  -285.97269198649445   -2.85973e+02   0.00000e+00
   @RHF iter   1:  -286.99259963999771   -1.01991e+00   4.63350e-03 DIIS
   @RHF iter   2:  -287.16836021590262   -1.75761e-01   2.59247e-03 DIIS
   @RHF iter   3:  -287.21814047470082   -4.97803e-02   5.50136e-04 DIIS
   @RHF iter   4:  -287.22156099669610   -3.42052e-03   2.17618e-04 DIIS
   @RHF iter   5:  -287.22216020532244   -5.99209e-04   3.38960e-05 DIIS
   @RHF iter   6:  -287.22218944631345   -2.92410e-05   1.51570e-05 DIIS
   @RHF iter   7:  -287.22219398448698   -4.53817e-06   6.00908e-06 DIIS
   @RHF iter   8:  -287.22219499890372   -1.01442e-06   2.14067e-06 DIIS
   @RHF iter   9:  -287.22219513520514   -1.36301e-07   5.35201e-07 DIIS
   @RHF iter  10:  -287.22219514172866   -6.52352e-09   1.73313e-07 DIIS
   @RHF iter  11:  -287.22219514242067   -6.92012e-10   3.91297e-08 DIIS
   @RHF iter  12:  -287.22219514245910   -3.84262e-11   8.83904e-09 DIIS
   @RHF iter  13:  -287.22219514246268   -3.58114e-12   1.86930e-09 DIIS
   @RHF iter  14:  -287.22219514246228    3.97904e-13   8.42106e-10 DIIS
   @RHF iter  15:  -287.22219514246098    1.30740e-12   3.52139e-10 DIIS
   @RHF iter  16:  -287.22219514246098    0.00000e+00   1.30103e-10 DIIS
   @RHF iter  17:  -287.22219514246109   -1.13687e-13   5.52128e-11 DIIS
  Energy and wave function converged.

  ==> Post-Iterations <==

    Orbital Energies [Eh]
    ---------------------

    Doubly Occupied:

       1A    -20.501371     2A    -15.590290     3A    -11.348143
       4A    -11.244364     5A    -11.212689     6A    -11.204855
       7A     -1.364977     8A     -1.219274     9A     -1.012537
      10A     -0.999356    11A     -0.828016    12A     -0.802524
      13A     -0.729327    14A     -0.653660    15A     -0.612108
      16A     -0.593549    17A     -0.591215    18A     -0.567837
      19A     -0.558155    20A     -0.525380    21A     -0.490818
      22A     -0.477964    23A     -0.476086    24A     -0.407450
      25A     -0.401963

    Virtual:

      26A      0.161837    27A      0.189210    28A      0.198514
      29A      0.217524    30A      0.228759    31A      0.253590
      32A      0.258015    33A      0.275118    34A      0.282470
      35A      0.286540    36A      0.293866    37A      0.321517
      38A      0.386685    39A      0.399548    40A      0.473431
      41A      0.559800    42A      0.609940    43A      0.616673
      44A      0.622203    45A      0.631451    46A      0.669240
      47A      0.682811    48A      0.697240    49A      0.707179
      50A      0.734837    51A      0.744156    52A      0.808638
      53A      0.833910    54A      0.852212    55A      0.875744
      56A      0.888417    57A      0.896678    58A      0.899986
      59A      0.906104    60A      0.920325    61A      0.929989
      62A      0.940682    63A      0.962019    64A      0.982895
      65A      1.002432    66A      1.046333    67A      1.071191
      68A      1.118052    69A      1.130071    70A      1.139800
      71A      1.183905    72A      1.241823    73A      1.332141
      74A      1.372728    75A      1.408387    76A      1.411323
      77A      1.419429    78A      1.444280    79A      1.489018
      80A      1.491419    81A      1.519915    82A      1.596284
      83A      1.624560    84A      1.663044    85A      1.680779
      86A      1.692386    87A      1.724853    88A      1.838499
      89A      1.849541    90A      1.869257    91A      1.877398
      92A      1.887454    93A      1.900235    94A      1.917444
      95A      1.922906    96A      1.930427    97A      1.957315
      98A      1.959940    99A      1.978578   100A      1.988581
     101A      1.996989   102A      2.039327   103A      2.058573
     104A      2.083185   105A      2.108936   106A      2.119671
     107A      2.144065   108A      2.231241   109A      2.301688
     110A      2.312856   111A      2.334826   112A      2.416052
     113A      2.438593   114A      2.455539   115A      2.462208
     116A      2.489606   117A      2.538358   118A      2.565324
     119A      2.579464   120A      2.594828   121A      2.639734
     122A      2.739703   123A      2.767566   124A      2.772470
     125A      2.800791   126A      2.809358   127A      2.845528
     128A      2.856198   129A      2.867536   130A      2.958775
     131A      2.969025   132A      2.990021   133A      3.096477
     134A      3.135363   135A      3.280772   136A      3.503455
     137A      3.524338   138A      3.866570   139A      3.912020

    Final Occupation by Irrep:
              A
    DOCC [    25 ]

  @RHF Final Energy:  -287.22219514246109

   => Energetics <=

    Nuclear Repulsion Energy =            236.2092765131948511
    One-Electron Energy =                -858.0351267559295820
    Two-Electron Energy =                 334.6036551002736701
    Total Energy =                       -287.2221951424610893

Computation Completed

Properties will be evaluated at   0.000000,   0.000000,   0.000000 [a0]

Properties computed using the SCF density matrix

  Nuclear Dipole Moment: [e a0]
     X:    -0.4637      Y:     2.9699      Z:    -6.9393

  Electronic Dipole Moment: [e a0]
     X:    -1.0765      Y:    -2.3243      Z:     6.9654

  Dipole Moment: [e a0]
     X:    -1.5402      Y:     0.6456      Z:     0.0262     Total:     1.6703

  Dipole Moment: [D]
     X:    -3.9149      Y:     1.6410      Z:     0.0665     Total:     4.2455

*** tstop() called on ds3 at Mon Apr 27 05:57:35 2020
Module time:
	user time   =      15.25 seconds =       0.25 minutes
	system time =       7.03 seconds =       0.12 minutes
	total time  =         23 seconds =       0.38 minutes
Total time:
	user time   =      15.25 seconds =       0.25 minutes
	system time =       7.03 seconds =       0.12 minutes
	total time  =         23 seconds =       0.38 minutes
                                     G D M A

                                 by Anthony Stone

                           version 2.2.06, 22 June 2011

               Distributed Multipoles from Gaussian wavefunctions

Starting at 5:57:35 on 27 Apr 2020

Using SCF density matrix from file ./SSI/SSI-028VAL-086ASN-1-dimer.test.32028.fchk

                         Distributed Multipole Analysis

Standard DMA

Positions and radii in angstrom
Multipole moments in atomic units, ea_0^k for rank k

C          x =  0.960485  y =  0.113526  z = -1.940590 angstrom
           Maximum rank =  0   Radius =  0.650 angstrom
                   Q00  =  -0.217183

C          x =  0.766485  y =  0.116526  z = -3.453590 angstrom
           Maximum rank =  0   Radius =  0.650 angstrom
                   Q00  =  -0.243907

H          x =  1.990485  y =  0.371526  z = -1.697590 angstrom
           Maximum rank =  0   Radius =  0.325 angstrom
                   Q00  =   0.087488

H          x =  0.305485  y =  0.858526  z = -1.490590 angstrom
           Maximum rank =  0   Radius =  0.325 angstrom
                   Q00  =   0.064310

H          x =  0.739485  y = -0.873474  z = -1.535590 angstrom
           Maximum rank =  0   Radius =  0.325 angstrom
                   Q00  =   0.072728

H          x =  0.995485  y =  1.128526  z = -3.775590 angstrom
           Maximum rank =  0   Radius =  0.325 angstrom
                   Q00  =   0.074090

H          x = -0.265865  y = -0.138182  z = -3.735334 angstrom
           Maximum rank =  0   Radius =  0.325 angstrom
                   Q00  =   0.069972

H          x =  1.479295  y = -0.570378  z = -3.933239 angstrom
           Maximum rank =  0   Radius =  0.325 angstrom
                   Q00  =   0.079601

C          x = -0.685515  y =  0.773526  z =  2.543410 angstrom
           Maximum rank =  0   Radius =  0.650 angstrom
                   Q00  =  -0.257369

C          x = -0.375515  y = -0.106474  z =  1.339410 angstrom
           Maximum rank =  0   Radius =  0.650 angstrom
                   Q00  =   0.795743

O          x =  0.692485  y = -0.710474  z =  1.226410 angstrom
           Maximum rank =  0   Radius =  0.650 angstrom
                   Q00  =  -0.786755

N          x = -1.325515  y = -0.185474  z =  0.427410 angstrom
           Maximum rank =  0   Radius =  0.650 angstrom
                   Q00  =  -0.508538

H          x = -0.710515  y =  0.130526  z =  3.423410 angstrom
           Maximum rank =  0   Radius =  0.325 angstrom
                   Q00  =   0.134123

H          x = -1.686515  y =  1.191526  z =  2.449410 angstrom
           Maximum rank =  0   Radius =  0.325 angstrom
                   Q00  =   0.069347

H          x = -1.203515  y = -0.809474  z = -0.363590 angstrom
           Maximum rank =  0   Radius =  0.325 angstrom
                   Q00  =   0.230476

H          x = -2.195515  y =  0.304526  z =  0.554410 angstrom
           Maximum rank =  0   Radius =  0.325 angstrom
                   Q00  =   0.202327

H          x =  0.049355  y =  1.577463  z =  2.697219 angstrom
           Maximum rank =  0   Radius =  0.325 angstrom
                   Q00  =   0.133546

Total multipoles referred to origin at
           x =   0.000000,  y =    0.000000,  z =    0.000000 angstrom
                   Q00  =  -0.000000

Finished at 5:57:35 on 27 Apr 2020

  DMA results are available in the Python driver through the
	  variable('DMA DISTRIBUTED MULTIPOLES')
  and
	  variable('DMA TOTAL MULTIPOLES')
  commands.

    Psi4 stopped on: Monday, 27 April 2020 05:57AM
    Psi4 wall time for execution: 0:00:22.62

*** Psi4 exiting successfully. Buy a developer a beer!
