                               Psi4 1.3.2 release

  ==> Input File <==

--------------------------------------------------------------------------
import numpy as np
set {scf_type pk
basis cc-pvdz
d_convergence 10
gdma_switch   0
gdma_limit    0
gdma_origin   [ 0.0,  0.0,  0.0 ]
}
molecule test {
    units Angstrom
    0 1
    --
    0 1
    C               -0.407735210859138     1.623780791588625    -0.723248540584878
    C                1.089264789140862     1.634780791588625    -1.052248540584878
    H               -0.929735210859138     0.884780791588625    -1.327248540584878
    H               -0.546735210859138     1.383780791588626     0.329751459415122
    H               -0.844735210859138     2.607780791588625    -0.894248540584878
    H                1.493264789140862     0.625780791588625    -0.973248540584878
    H                1.202184789140862     2.023493791588625    -2.075068540584878
    H                1.640874789140862     2.270204791588625    -0.343758540584878
    C               -0.582735210859138    -1.964219208411375     1.340751459415122
    O               -0.065735210859138    -1.076219208411375     0.387751459415122
    H                0.024264789140862    -1.550219208411375    -0.451248540584878
    H                0.102264789140862    -2.802219208411375     1.483751459415122
    H               -1.541735210859138    -2.345219208411375     0.983751459415122
    H               -0.732975210859138    -1.429297208411374     2.290111459415122

}
e, wfn = energy('scf', return_wfn=True)
gdma(wfn)
dmavals = variable('DMA DISTRIBUTED MULTIPOLES')
charges = np.array(dmavals)
print(charges)
np.save('SSI-015LEU-102SER-1-dimer.npy', np.array(charges))--------------------------------------------------------------------------

*** tstart() called on ds3
*** at Sun Apr 26 19:41:10 2020

   => Loading Basis Set <=

    Name: CC-PVDZ
    Role: ORBITAL
    Keyword: BASIS
    atoms 1-2, 9     entry C          line   138 file /theoryfs2/ds/metcalf/miniconda2/envs/tf2gpu/share/psi4/basis/cc-pvdz.gbs
    atoms 3-8, 11-14 entry H          line    22 file /theoryfs2/ds/metcalf/miniconda2/envs/tf2gpu/share/psi4/basis/cc-pvdz.gbs
    atoms 10         entry O          line   198 file /theoryfs2/ds/metcalf/miniconda2/envs/tf2gpu/share/psi4/basis/cc-pvdz.gbs

         ---------------------------------------------------------
                                   SCF
               by Justin Turney, Rob Parrish, Andy Simmonett
                          and Daniel G. A. Smith
                              RHF Reference
                        1 Threads,    500 MiB Core
         ---------------------------------------------------------

  ==> Geometry <==

    Molecular point group: c1
    Full point group: C1

    Geometry (in Angstrom), charge = 0, multiplicity = 1:

       Center              X                  Y                   Z               Mass
    ------------   -----------------  -----------------  -----------------  -----------------
         C           -0.407735210859     1.623780791589    -0.723248540585    12.000000000000
         C            1.089264789141     1.634780791589    -1.052248540585    12.000000000000
         H           -0.929735210859     0.884780791589    -1.327248540585     1.007825032230
         H           -0.546735210859     1.383780791589     0.329751459415     1.007825032230
         H           -0.844735210859     2.607780791589    -0.894248540585     1.007825032230
         H            1.493264789141     0.625780791589    -0.973248540585     1.007825032230
         H            1.202184789141     2.023493791589    -2.075068540585     1.007825032230
         H            1.640874789141     2.270204791589    -0.343758540585     1.007825032230
         C           -0.582735210859    -1.964219208411     1.340751459415    12.000000000000
         O           -0.065735210859    -1.076219208411     0.387751459415    15.994914619570
         H            0.024264789141    -1.550219208411    -0.451248540585     1.007825032230
         H            0.102264789141    -2.802219208411     1.483751459415     1.007825032230
         H           -1.541735210859    -2.345219208411     0.983751459415     1.007825032230
         H           -0.732975210859    -1.429297208411     2.290111459415     1.007825032230

  Running in c1 symmetry.

  Rotational constants: A =      0.56638  B =      0.07181  C =      0.06718 [cm^-1]
  Rotational constants: A =  16979.72233  B =   2152.81445  C =   2014.02517 [MHz]
  Nuclear repulsion =  129.039418028215039

  Charge       = 0
  Multiplicity = 1
  Electrons    = 36
  Nalpha       = 18
  Nbeta        = 18

  ==> Algorithm <==

  SCF Algorithm Type is PK.
  DIIS enabled.
  MOM disabled.
  Fractional occupation disabled.
  Guess Type is SAD.
  Energy threshold   = 1.00e-06
  Density threshold  = 1.00e-10
  Integral threshold = 0.00e+00

  ==> Primary Basis <==

  Basis Set: CC-PVDZ
    Blend: CC-PVDZ
    Number of shells: 54
    Number of basis function: 106
    Number of Cartesian functions: 110
    Spherical Harmonics?: true
    Max angular momentum: 2

  ==> Pre-Iterations <==

   -------------------------------------------------------
    Irrep   Nso     Nmo     Nalpha   Nbeta   Ndocc  Nsocc
   -------------------------------------------------------
     A        106     106       0       0       0       0
   -------------------------------------------------------
    Total     106     106      18      18      18       0
   -------------------------------------------------------

  ==> Integral Setup <==

  Using in-core PK algorithm.
   Calculation information:
      Number of atoms:                  14
      Number of AO shells:              54
      Number of primitives:            138
      Number of atomic orbitals:       110
      Number of basis functions:       106

      Integral cutoff                 1.00e-12
      Number of threads:                 1

  Performing in-core PK
  Using 32165912 doubles for integral storage.
  We computed 965275 shell quartets total.
  Whereas there are 1103355 unique shell quartets.

  ==> DiskJK: Disk-Based J/K Matrices <==

    J tasked:                  Yes
    K tasked:                  Yes
    wK tasked:                  No
    Memory [MiB]:              375
    Schwarz Cutoff:          1E-12

    OpenMP threads:              1

  Minimum eigenvalue in the overlap matrix is 7.8189077507E-03.
  Using Symmetric Orthogonalization.

  SCF Guess: Superposition of Atomic Densities via on-the-fly atomic UHF.

  ==> Iterations <==

                        Total Energy        Delta E     RMS |[F,P]|

   @RHF iter SAD:  -193.12241920731819   -1.93122e+02   0.00000e+00
   @RHF iter   1:  -194.13305177006509   -1.01063e+00   4.70998e-03 DIIS
   @RHF iter   2:  -194.25308879821480   -1.20037e-01   2.27043e-03 DIIS
   @RHF iter   3:  -194.27812840298881   -2.50396e-02   4.35621e-04 DIIS
   @RHF iter   4:  -194.27983666637536   -1.70826e-03   1.37765e-04 DIIS
   @RHF iter   5:  -194.27995718895005   -1.20523e-04   2.70831e-05 DIIS
   @RHF iter   6:  -194.27996388585782   -6.69691e-06   5.18004e-06 DIIS
   @RHF iter   7:  -194.27996423010353   -3.44246e-07   1.27814e-06 DIIS
   @RHF iter   8:  -194.27996425117732   -2.10738e-08   4.58426e-07 DIIS
   @RHF iter   9:  -194.27996425379493   -2.61761e-09   9.98097e-08 DIIS
   @RHF iter  10:  -194.27996425395324   -1.58309e-10   1.92506e-08 DIIS
   @RHF iter  11:  -194.27996425395870   -5.45697e-12   4.61908e-09 DIIS
   @RHF iter  12:  -194.27996425395844    2.55795e-13   1.07816e-09 DIIS
   @RHF iter  13:  -194.27996425395906   -6.25278e-13   2.18092e-10 DIIS
   @RHF iter  14:  -194.27996425395909   -2.84217e-14   5.71965e-11 DIIS
  Energy and wave function converged.

  ==> Post-Iterations <==

    Orbital Energies [Eh]
    ---------------------

    Doubly Occupied:

       1A    -20.553264     2A    -11.277211     3A    -11.205255
       4A    -11.197841     5A     -1.359677     6A     -1.000691
       7A     -0.922013     8A     -0.820823     9A     -0.688694
      10A     -0.623112    11A     -0.604462    12A     -0.581524
      13A     -0.573075    14A     -0.496621    15A     -0.484201
      16A     -0.472861    17A     -0.466288    18A     -0.439968

    Virtual:

      19A      0.171978    20A      0.205033    21A      0.223044
      22A      0.249304    23A      0.258130    24A      0.265712
      25A      0.275615    26A      0.289586    27A      0.311944
      28A      0.320315    29A      0.369183    30A      0.408730
      31A      0.610317    32A      0.615452    33A      0.626543
      34A      0.633616    35A      0.644370    36A      0.696828
      37A      0.710824    38A      0.747312    39A      0.827584
      40A      0.858927    41A      0.860187    42A      0.892279
      43A      0.902342    44A      0.904601    45A      0.908123
      46A      0.917104    47A      0.937174    48A      0.957820
      49A      0.987149    50A      1.128108    51A      1.135502
      52A      1.139405    53A      1.160643    54A      1.173925
      55A      1.237527    56A      1.350343    57A      1.384162
      58A      1.474107    59A      1.487898    60A      1.511075
      61A      1.569097    62A      1.647071    63A      1.666574
      64A      1.692638    65A      1.708344    66A      1.754608
      67A      1.861239    68A      1.877114    69A      1.893201
      70A      1.903464    71A      1.907666    72A      1.928485
      73A      1.955838    74A      1.960437    75A      1.962942
      76A      1.970158    77A      1.984784    78A      2.011946
      79A      2.072757    80A      2.124995    81A      2.165739
      82A      2.210310    83A      2.287138    84A      2.313771
      85A      2.348549    86A      2.362710    87A      2.377576
      88A      2.467169    89A      2.474603    90A      2.518548
      91A      2.581888    92A      2.601396    93A      2.747630
      94A      2.758332    95A      2.766456    96A      2.783044
      97A      2.812798    98A      2.861698    99A      2.876127
     100A      2.963039   101A      2.991895   102A      3.303306
     103A      3.395241   104A      3.464401   105A      3.605166
     106A      4.093383

    Final Occupation by Irrep:
              A
    DOCC [    18 ]

  @RHF Final Energy:  -194.27996425395909

   => Energetics <=

    Nuclear Repulsion Energy =            129.0394180282150387
    One-Electron Energy =                -519.1036026984213549
    Two-Electron Energy =                 195.7842204162472228
    Total Energy =                       -194.2799642539590934

Computation Completed

Properties will be evaluated at   0.000000,   0.000000,   0.000000 [a0]

Properties computed using the SCF density matrix

  Nuclear Dipole Moment: [e a0]
     X:    -0.1251      Y:     1.5593      Z:    -0.9145

  Electronic Dipole Moment: [e a0]
     X:    -0.0576      Y:    -2.3560      Z:     0.9081

  Dipole Moment: [e a0]
     X:    -0.1826      Y:    -0.7967      Z:    -0.0064     Total:     0.8174

  Dipole Moment: [D]
     X:    -0.4642      Y:    -2.0250      Z:    -0.0162     Total:     2.0776

*** tstop() called on ds3 at Sun Apr 26 19:41:16 2020
Module time:
	user time   =       5.79 seconds =       0.10 minutes
	system time =       0.19 seconds =       0.00 minutes
	total time  =          6 seconds =       0.10 minutes
Total time:
	user time   =       5.79 seconds =       0.10 minutes
	system time =       0.19 seconds =       0.00 minutes
	total time  =          6 seconds =       0.10 minutes
                                     G D M A

                                 by Anthony Stone

                           version 2.2.06, 22 June 2011

               Distributed Multipoles from Gaussian wavefunctions

Starting at 19:41:16 on 26 Apr 2020

Using SCF density matrix from file ./SSI/SSI-015LEU-102SER-1-dimer.test.7898.fchk

                         Distributed Multipole Analysis

Standard DMA

Positions and radii in angstrom
Multipole moments in atomic units, ea_0^k for rank k

C          x = -0.407735  y =  1.623781  z = -0.723249 angstrom
           Maximum rank =  0   Radius =  0.650 angstrom
                   Q00  =  -0.229502

C          x =  1.089265  y =  1.634781  z = -1.052249 angstrom
           Maximum rank =  0   Radius =  0.650 angstrom
                   Q00  =  -0.226414

H          x = -0.929735  y =  0.884781  z = -1.327249 angstrom
           Maximum rank =  0   Radius =  0.325 angstrom
                   Q00  =   0.069061

H          x = -0.546735  y =  1.383781  z =  0.329751 angstrom
           Maximum rank =  0   Radius =  0.325 angstrom
                   Q00  =   0.091612

H          x = -0.844735  y =  2.607781  z = -0.894249 angstrom
           Maximum rank =  0   Radius =  0.325 angstrom
                   Q00  =   0.060974

H          x =  1.493265  y =  0.625781  z = -0.973249 angstrom
           Maximum rank =  0   Radius =  0.325 angstrom
                   Q00  =   0.078397

H          x =  1.202185  y =  2.023494  z = -2.075069 angstrom
           Maximum rank =  0   Radius =  0.325 angstrom
                   Q00  =   0.064345

H          x =  1.640875  y =  2.270205  z = -0.343759 angstrom
           Maximum rank =  0   Radius =  0.325 angstrom
                   Q00  =   0.077176

C          x = -0.582735  y = -1.964219  z =  1.340751 angstrom
           Maximum rank =  0   Radius =  0.650 angstrom
                   Q00  =  -0.037199

O          x = -0.065735  y = -1.076219  z =  0.387751 angstrom
           Maximum rank =  0   Radius =  0.650 angstrom
                   Q00  =  -0.568351

H          x =  0.024265  y = -1.550219  z = -0.451249 angstrom
           Maximum rank =  0   Radius =  0.325 angstrom
                   Q00  =   0.378893

H          x =  0.102265  y = -2.802219  z =  1.483751 angstrom
           Maximum rank =  0   Radius =  0.325 angstrom
                   Q00  =   0.064855

H          x = -1.541735  y = -2.345219  z =  0.983751 angstrom
           Maximum rank =  0   Radius =  0.325 angstrom
                   Q00  =   0.061834

H          x = -0.732975  y = -1.429297  z =  2.290111 angstrom
           Maximum rank =  0   Radius =  0.325 angstrom
                   Q00  =   0.114319

Total multipoles referred to origin at
           x =   0.000000,  y =    0.000000,  z =    0.000000 angstrom
                   Q00  =  -0.000000

Finished at 19:41:16 on 26 Apr 2020

  DMA results are available in the Python driver through the
	  variable('DMA DISTRIBUTED MULTIPOLES')
  and
	  variable('DMA TOTAL MULTIPOLES')
  commands.

    Psi4 stopped on: Sunday, 26 April 2020 07:41PM
    Psi4 wall time for execution: 0:00:06.19

*** Psi4 exiting successfully. Buy a developer a beer!
