                               Psi4 1.3.2 release

  ==> Input File <==

--------------------------------------------------------------------------
import numpy as np
set {scf_type pk
basis cc-pvdz
d_convergence 10
gdma_switch   0
gdma_limit    0
gdma_origin   [ 0.0,  0.0,  0.0 ]
}
molecule test {
    units Angstrom
    0 1
    --
    0 1
    C                0.334105297925565    -1.533788033376434     0.565794342688113
    C                0.287105297925565    -1.584788033376434     2.092794342688113
    C                1.705105297925565    -0.997788033376435     0.134794342688113
    C                0.071105297925565    -2.920788033376434    -0.022205657311887
    H               -0.443894702074435    -0.880788033376435     0.200794342688113
    H                0.774105297925565    -0.685788033376435     2.473794342688113
    H                0.903105297925565    -2.424788033376435     2.418794342688114
    H                2.497105297925565    -1.630788033376434     0.535794342688113
    H                1.759105297925565    -0.990788033376435    -0.954205657311887
    H                1.840105297925565     0.021211966623565     0.502794342688113
    H               -0.903894702074435    -3.284788033376434     0.299794342688113
    H                0.082105297925565    -2.862788033376435    -1.110205657311887
    H                0.844105297925565    -3.617788033376435     0.302794342688113
    H               -0.686594702074435    -1.654544033376434     2.599784342688113
    C               -0.484894702074435     1.888211966623565    -0.759205657311887
    C               -0.739894702074435     3.109211966623566     0.118794342688113
    C               -1.161894702074435     1.966211966623565    -2.114205657311887
    H                0.587105297925565     1.725211966623566    -0.881205657311887
    H               -0.920894702074435     1.042211966623565    -0.244205657311887
    H               -1.818894702074435     3.172211966623566     0.285794342688113
    H               -2.238894702074435     2.045211966623566    -1.983205657311887
    H               -0.816894702074435     2.851211966623566    -2.648205657311887
    H               -0.379314702074435     4.022283766623565    -0.377475657311887
    H               -0.284564702074435     2.944828966623565     1.106544342688113
    H               -0.920844702074435     1.083808966623565    -2.725155657311887

}
e, wfn = energy('scf', return_wfn=True)
gdma(wfn)
dmavals = variable('DMA DISTRIBUTED MULTIPOLES')
charges = np.array(dmavals)
print(charges)
np.save('SSI-095LEU-133LYS-1-dimer.npy', np.array(charges))--------------------------------------------------------------------------

*** tstart() called on ds3
*** at Mon Apr 27 16:40:26 2020

   => Loading Basis Set <=

    Name: CC-PVDZ
    Role: ORBITAL
    Keyword: BASIS
    atoms 1-4, 15-17  entry C          line   138 file /theoryfs2/ds/metcalf/miniconda2/envs/tf2gpu/share/psi4/basis/cc-pvdz.gbs
    atoms 5-14, 18-25 entry H          line    22 file /theoryfs2/ds/metcalf/miniconda2/envs/tf2gpu/share/psi4/basis/cc-pvdz.gbs

         ---------------------------------------------------------
                                   SCF
               by Justin Turney, Rob Parrish, Andy Simmonett
                          and Daniel G. A. Smith
                              RHF Reference
                        1 Threads,    500 MiB Core
         ---------------------------------------------------------

  ==> Geometry <==

    Molecular point group: c1
    Full point group: C1

    Geometry (in Angstrom), charge = 0, multiplicity = 1:

       Center              X                  Y                   Z               Mass
    ------------   -----------------  -----------------  -----------------  -----------------
         C            0.334105297926    -1.533788033376     0.565794342688    12.000000000000
         C            0.287105297926    -1.584788033376     2.092794342688    12.000000000000
         C            1.705105297926    -0.997788033376     0.134794342688    12.000000000000
         C            0.071105297926    -2.920788033376    -0.022205657312    12.000000000000
         H           -0.443894702074    -0.880788033376     0.200794342688     1.007825032230
         H            0.774105297926    -0.685788033376     2.473794342688     1.007825032230
         H            0.903105297926    -2.424788033376     2.418794342688     1.007825032230
         H            2.497105297926    -1.630788033376     0.535794342688     1.007825032230
         H            1.759105297926    -0.990788033376    -0.954205657312     1.007825032230
         H            1.840105297926     0.021211966624     0.502794342688     1.007825032230
         H           -0.903894702074    -3.284788033376     0.299794342688     1.007825032230
         H            0.082105297926    -2.862788033376    -1.110205657312     1.007825032230
         H            0.844105297926    -3.617788033376     0.302794342688     1.007825032230
         H           -0.686594702074    -1.654544033376     2.599784342688     1.007825032230
         C           -0.484894702074     1.888211966624    -0.759205657312    12.000000000000
         C           -0.739894702074     3.109211966624     0.118794342688    12.000000000000
         C           -1.161894702074     1.966211966624    -2.114205657312    12.000000000000
         H            0.587105297926     1.725211966624    -0.881205657312     1.007825032230
         H           -0.920894702074     1.042211966624    -0.244205657312     1.007825032230
         H           -1.818894702074     3.172211966624     0.285794342688     1.007825032230
         H           -2.238894702074     2.045211966624    -1.983205657312     1.007825032230
         H           -0.816894702074     2.851211966624    -2.648205657312     1.007825032230
         H           -0.379314702074     4.022283766624    -0.377475657312     1.007825032230
         H           -0.284564702074     2.944828966624     1.106544342688     1.007825032230
         H           -0.920844702074     1.083808966624    -2.725155657312     1.007825032230

  Running in c1 symmetry.

  Rotational constants: A =      0.10537  B =      0.02727  C =      0.02492 [cm^-1]
  Rotational constants: A =   3158.88849  B =    817.64240  C =    746.97659 [MHz]
  Nuclear repulsion =  314.998433259840908

  Charge       = 0
  Multiplicity = 1
  Electrons    = 60
  Nalpha       = 30
  Nbeta        = 30

  ==> Algorithm <==

  SCF Algorithm Type is PK.
  DIIS enabled.
  MOM disabled.
  Fractional occupation disabled.
  Guess Type is SAD.
  Energy threshold   = 1.00e-06
  Density threshold  = 1.00e-10
  Integral threshold = 0.00e+00

  ==> Primary Basis <==

  Basis Set: CC-PVDZ
    Blend: CC-PVDZ
    Number of shells: 96
    Number of basis function: 188
    Number of Cartesian functions: 195
    Spherical Harmonics?: true
    Max angular momentum: 2

  ==> Pre-Iterations <==

   -------------------------------------------------------
    Irrep   Nso     Nmo     Nalpha   Nbeta   Ndocc  Nsocc
   -------------------------------------------------------
     A        188     188       0       0       0       0
   -------------------------------------------------------
    Total     188     188      30      30      30       0
   -------------------------------------------------------

  ==> Integral Setup <==

  Using integral reordering PK algorithm.
  Sizing the integral batches needed.
  Building batch lookup table.
   Calculation information:
      Number of atoms:                  25
      Number of AO shells:              96
      Number of primitives:            244
      Number of atomic orbitals:       195
      Number of basis functions:       188

      Integral cutoff                 1.00e-12
      Number of threads:                 1

	Batch   1 pq = [       0,    9405] index = [             0,44231715] size =     44231715
	Batch   2 pq = [    9405,   13301] index = [      44231715,88464951] size =     44233236
	Batch   3 pq = [   13301,   16290] index = [      88464951,132690195] size =     44225244
	Batch   4 pq = [   16290,   17766] index = [     132690195,157824261] size =     25134066
  Task number: 15
  Buffer size: 11059200
  Buffer per thread: 2
  We computed 9821203 shell quartets total.
  Whereas there are 10841496 unique shell quartets.

  ==> DiskJK: Disk-Based J/K Matrices <==

    J tasked:                  Yes
    K tasked:                  Yes
    wK tasked:                  No
    Memory [MiB]:              375
    Schwarz Cutoff:          1E-12

    OpenMP threads:              1

  Minimum eigenvalue in the overlap matrix is 4.3916772775E-03.
  Using Symmetric Orthogonalization.

  SCF Guess: Superposition of Atomic Densities via on-the-fly atomic UHF.

  ==> Iterations <==

                        Total Energy        Delta E     RMS |[F,P]|

   @RHF iter SAD:  -274.49156739133616   -2.74492e+02   0.00000e+00
   @RHF iter   1:  -275.31199735390021   -8.20430e-01   3.29174e-03 DIIS
   @RHF iter   2:  -275.53030607094632   -2.18309e-01   1.43586e-03 DIIS
   @RHF iter   3:  -275.56939681978366   -3.90907e-02   2.95860e-04 DIIS
   @RHF iter   4:  -275.57242549861610   -3.02868e-03   6.29748e-05 DIIS
   @RHF iter   5:  -275.57251899729067   -9.34987e-05   1.42136e-05 DIIS
   @RHF iter   6:  -275.57252491316967   -5.91588e-06   2.57530e-06 DIIS
   @RHF iter   7:  -275.57252511159334   -1.98424e-07   6.15732e-07 DIIS
   @RHF iter   8:  -275.57252512462816   -1.30348e-08   1.63127e-07 DIIS
   @RHF iter   9:  -275.57252512546165   -8.33495e-10   4.20421e-08 DIIS
   @RHF iter  10:  -275.57252512553976   -7.81029e-11   8.60094e-09 DIIS
   @RHF iter  11:  -275.57252512554123   -1.47793e-12   2.05366e-09 DIIS
   @RHF iter  12:  -275.57252512554305   -1.81899e-12   5.63940e-10 DIIS
   @RHF iter  13:  -275.57252512554078    2.27374e-12   1.22676e-10 DIIS
   @RHF iter  14:  -275.57252512554271   -1.93268e-12   3.44681e-11 DIIS
  Energy and wave function converged.

  ==> Post-Iterations <==

    Orbital Energies [Eh]
    ---------------------

    Doubly Occupied:

       1A    -11.221925     2A    -11.218143     3A    -11.216523
       4A    -11.215198     5A    -11.214723     6A    -11.213051
       7A    -11.212573     8A     -1.082340     9A     -1.057294
      10A     -0.927866    11A     -0.925198    12A     -0.923097
      13A     -0.796065    14A     -0.767012    15A     -0.634477
      16A     -0.630141    17A     -0.596187    18A     -0.591734
      19A     -0.583309    20A     -0.549614    21A     -0.536982
      22A     -0.532713    23A     -0.529338    24A     -0.506340
      25A     -0.477111    26A     -0.471918    27A     -0.469267
      28A     -0.459366    29A     -0.455182    30A     -0.450245

    Virtual:

      31A      0.164838    32A      0.193614    33A      0.201193
      34A      0.216560    35A      0.224167    36A      0.242642
      37A      0.246141    38A      0.253992    39A      0.261440
      40A      0.266510    41A      0.275387    42A      0.286349
      43A      0.300772    44A      0.306241    45A      0.308700
      46A      0.317204    47A      0.331434    48A      0.354169
      49A      0.369426    50A      0.389811    51A      0.402256
      52A      0.423975    53A      0.438121    54A      0.557641
      55A      0.571859    56A      0.578515    57A      0.601669
      58A      0.606495    59A      0.611730    60A      0.615558
      61A      0.619377    62A      0.643058    63A      0.740588
      64A      0.761373    65A      0.776640    66A      0.796912
      67A      0.802203    68A      0.817922    69A      0.836900
      70A      0.843786    71A      0.859035    72A      0.877526
      73A      0.881648    74A      0.884326    75A      0.891471
      76A      0.899149    77A      0.900207    78A      0.901975
      79A      0.906475    80A      0.911685    81A      0.914265
      82A      0.922363    83A      0.931173    84A      0.942023
      85A      0.958928    86A      0.961715    87A      0.971821
      88A      0.979632    89A      0.984838    90A      1.002303
      91A      1.016091    92A      1.041553    93A      1.123747
      94A      1.131754    95A      1.135213    96A      1.157477
      97A      1.173983    98A      1.247162    99A      1.358613
     100A      1.374055   101A      1.392355   102A      1.410347
     103A      1.474570   104A      1.502392   105A      1.539255
     106A      1.548003   107A      1.570001   108A      1.628086
     109A      1.657772   110A      1.671237   111A      1.677031
     112A      1.682297   113A      1.689206   114A      1.690848
     115A      1.696842   116A      1.709236   117A      1.710218
     118A      1.751543   119A      1.839091   120A      1.841670
     121A      1.858080   122A      1.869401   123A      1.875574
     124A      1.891438   125A      1.909902   126A      1.929294
     127A      1.934439   128A      1.944351   129A      1.949217
     130A      1.951847   131A      1.958428   132A      1.972247
     133A      1.977213   134A      1.981500   135A      1.994930
     136A      2.002016   137A      2.008061   138A      2.019867
     139A      2.025064   140A      2.034428   141A      2.047961
     142A      2.080891   143A      2.085851   144A      2.123080
     145A      2.128917   146A      2.139699   147A      2.155830
     148A      2.165675   149A      2.231783   150A      2.267636
     151A      2.282618   152A      2.298651   153A      2.306329
     154A      2.318702   155A      2.336967   156A      2.345561
     157A      2.352455   158A      2.360310   159A      2.395377
     160A      2.477717   161A      2.511678   162A      2.530374
     163A      2.568103   164A      2.589299   165A      2.593710
     166A      2.623882   167A      2.633496   168A      2.658750
     169A      2.701436   170A      2.727471   171A      2.750264
     172A      2.761313   173A      2.769280   174A      2.784798
     175A      2.786800   176A      2.796933   177A      2.807551
     178A      2.810427   179A      2.842260   180A      2.860601
     181A      2.861065   182A      2.915881   183A      2.974200
     184A      2.976995   185A      3.008876   186A      3.035884
     187A      3.101036   188A      3.143244

    Final Occupation by Irrep:
              A
    DOCC [    30 ]

  @RHF Final Energy:  -275.57252512554271

   => Energetics <=

    Nuclear Repulsion Energy =            314.9984332598409082
    One-Electron Energy =                -994.2120552164005858
    Two-Electron Energy =                 403.6410968310169665
    Total Energy =                       -275.5725251255427111

Computation Completed

Properties will be evaluated at   0.000000,   0.000000,   0.000000 [a0]

Properties computed using the SCF density matrix

  Nuclear Dipole Moment: [e a0]
     X:    -0.1199      Y:     0.8206      Z:    -0.1849

  Electronic Dipole Moment: [e a0]
     X:     0.0978      Y:    -0.8087      Z:     0.1764

  Dipole Moment: [e a0]
     X:    -0.0221      Y:     0.0119      Z:    -0.0085     Total:     0.0265

  Dipole Moment: [D]
     X:    -0.0562      Y:     0.0301      Z:    -0.0215     Total:     0.0673

*** tstop() called on ds3 at Mon Apr 27 16:41:51 2020
Module time:
	user time   =      59.28 seconds =       0.99 minutes
	system time =      28.45 seconds =       0.47 minutes
	total time  =         85 seconds =       1.42 minutes
Total time:
	user time   =      59.28 seconds =       0.99 minutes
	system time =      28.45 seconds =       0.47 minutes
	total time  =         85 seconds =       1.42 minutes
                                     G D M A

                                 by Anthony Stone

                           version 2.2.06, 22 June 2011

               Distributed Multipoles from Gaussian wavefunctions

Starting at 16:41:51 on 27 Apr 2020

Using SCF density matrix from file ./SSI/SSI-095LEU-133LYS-1-dimer.test.27657.fchk

                         Distributed Multipole Analysis

Standard DMA

Positions and radii in angstrom
Multipole moments in atomic units, ea_0^k for rank k

C          x =  0.334105  y = -1.533788  z =  0.565794 angstrom
           Maximum rank =  0   Radius =  0.650 angstrom
                   Q00  =   0.007687

C          x =  0.287105  y = -1.584788  z =  2.092794 angstrom
           Maximum rank =  0   Radius =  0.650 angstrom
                   Q00  =  -0.241567

C          x =  1.705105  y = -0.997788  z =  0.134794 angstrom
           Maximum rank =  0   Radius =  0.650 angstrom
                   Q00  =  -0.249722

C          x =  0.071105  y = -2.920788  z = -0.022206 angstrom
           Maximum rank =  0   Radius =  0.650 angstrom
                   Q00  =  -0.246532

H          x = -0.443895  y = -0.880788  z =  0.200794 angstrom
           Maximum rank =  0   Radius =  0.325 angstrom
                   Q00  =   0.020446

H          x =  0.774105  y = -0.685788  z =  2.473794 angstrom
           Maximum rank =  0   Radius =  0.325 angstrom
                   Q00  =   0.070848

H          x =  0.903105  y = -2.424788  z =  2.418794 angstrom
           Maximum rank =  0   Radius =  0.325 angstrom
                   Q00  =   0.072152

H          x =  2.497105  y = -1.630788  z =  0.535794 angstrom
           Maximum rank =  0   Radius =  0.325 angstrom
                   Q00  =   0.078040

H          x =  1.759105  y = -0.990788  z = -0.954206 angstrom
           Maximum rank =  0   Radius =  0.325 angstrom
                   Q00  =   0.080357

H          x =  1.840105  y =  0.021212  z =  0.502794 angstrom
           Maximum rank =  0   Radius =  0.325 angstrom
                   Q00  =   0.084327

H          x = -0.903895  y = -3.284788  z =  0.299794 angstrom
           Maximum rank =  0   Radius =  0.325 angstrom
                   Q00  =   0.081768

H          x =  0.082105  y = -2.862788  z = -1.110206 angstrom
           Maximum rank =  0   Radius =  0.325 angstrom
                   Q00  =   0.078484

H          x =  0.844105  y = -3.617788  z =  0.302794 angstrom
           Maximum rank =  0   Radius =  0.325 angstrom
                   Q00  =   0.074870

H          x = -0.686595  y = -1.654544  z =  2.599784 angstrom
           Maximum rank =  0   Radius =  0.325 angstrom
                   Q00  =   0.085782

C          x = -0.484895  y =  1.888212  z = -0.759206 angstrom
           Maximum rank =  0   Radius =  0.650 angstrom
                   Q00  =  -0.073358

C          x = -0.739895  y =  3.109212  z =  0.118794 angstrom
           Maximum rank =  0   Radius =  0.650 angstrom
                   Q00  =  -0.237422

C          x = -1.161895  y =  1.966212  z = -2.114206 angstrom
           Maximum rank =  0   Radius =  0.650 angstrom
                   Q00  =  -0.242081

H          x =  0.587105  y =  1.725212  z = -0.881206 angstrom
           Maximum rank =  0   Radius =  0.325 angstrom
                   Q00  =   0.048896

H          x = -0.920895  y =  1.042212  z = -0.244206 angstrom
           Maximum rank =  0   Radius =  0.325 angstrom
                   Q00  =   0.040255

H          x = -1.818895  y =  3.172212  z =  0.285794 angstrom
           Maximum rank =  0   Radius =  0.325 angstrom
                   Q00  =   0.073414

H          x = -2.238895  y =  2.045212  z = -1.983206 angstrom
           Maximum rank =  0   Radius =  0.325 angstrom
                   Q00  =   0.075959

H          x = -0.816895  y =  2.851212  z = -2.648206 angstrom
           Maximum rank =  0   Radius =  0.325 angstrom
                   Q00  =   0.074027

H          x = -0.379315  y =  4.022284  z = -0.377476 angstrom
           Maximum rank =  0   Radius =  0.325 angstrom
                   Q00  =   0.077870

H          x = -0.284565  y =  2.944829  z =  1.106544 angstrom
           Maximum rank =  0   Radius =  0.325 angstrom
                   Q00  =   0.083262

H          x = -0.920845  y =  1.083809  z = -2.725156 angstrom
           Maximum rank =  0   Radius =  0.325 angstrom
                   Q00  =   0.082237

Total multipoles referred to origin at
           x =   0.000000,  y =    0.000000,  z =    0.000000 angstrom
                   Q00  =  -0.000000

Finished at 16:41:51 on 27 Apr 2020

  DMA results are available in the Python driver through the
	  variable('DMA DISTRIBUTED MULTIPOLES')
  and
	  variable('DMA TOTAL MULTIPOLES')
  commands.

    Psi4 stopped on: Monday, 27 April 2020 04:41PM
    Psi4 wall time for execution: 0:01:24.90

*** Psi4 exiting successfully. Buy a developer a beer!
