                               Psi4 1.3.2 release

  ==> Input File <==

--------------------------------------------------------------------------
import numpy as np
set {scf_type pk
basis cc-pvdz
d_convergence 10
gdma_switch   0
gdma_limit    0
gdma_origin   [ 0.0,  0.0,  0.0 ]
}
molecule test {
    units Angstrom
    0 1
    --
    0 1
    C                1.002464476172344     2.787777915990993     3.188522580557961
    C                0.037464476172343     0.556777915990993    -0.384477419442039
    C               -0.972535523827656     1.244777915990993     0.306522580557961
    C                1.358464476172343     0.590777915990993     0.097522580557961
    C               -0.673535523827656     1.960777915990993     1.471522580557961
    C                1.650464476172343     1.315777915990993     1.265522580557961
    C                0.648464476172344     2.002777915990993     1.952522580557961
    H               -0.200535523827657     0.005777915990993    -1.279477419442039
    H               -1.985535523827656     1.233777915990993    -0.070477419442039
    H                2.144464476172343     0.065777915990993    -0.429477419442039
    H               -1.454535523827657     2.499777915990993     1.989522580557961
    H                2.669464476172344     1.344777915990993     1.626522580557961
    H                0.488464476172344     3.731777915990993     3.168522580557961
    H                2.061464476172343     3.043777915990993     3.126522580557961
    H                0.843104476172343     2.252267915990993     4.136065880557961
    C               -0.674535523827657    -2.715222084009007    -2.219477419442039
    C               -2.194535523827656    -2.827222084009007    -2.325477419442039
    C                0.073464476172343    -3.953222084009007    -2.732477419442039
    H               -0.347535523827657    -1.853222084009007    -2.805477419442039
    H               -0.396535523827656    -2.527222084009007    -1.189477419442039
    H               -2.514535523827656    -3.729222084009007    -1.809477419442039
    H               -0.198535523827657    -4.817222084009007    -2.128477419442039
    H               -0.197535523827657    -4.151222084009007    -3.768477419442039
    H               -2.476765523827656    -2.882312084009007    -3.387227419442039
    H               -2.636105523827657    -1.917512084009007    -1.892523419442039
    H                1.157274476172343    -3.775332084009007    -2.671508419442039

}
e, wfn = energy('scf', return_wfn=True)
gdma(wfn)
dmavals = variable('DMA DISTRIBUTED MULTIPOLES')
charges = np.array(dmavals)
print(charges)
np.save('SSI-005PHE-049LYS-1-dimer.npy', np.array(charges))--------------------------------------------------------------------------

*** tstart() called on ds3
*** at Mon Apr 27 01:14:05 2020

   => Loading Basis Set <=

    Name: CC-PVDZ
    Role: ORBITAL
    Keyword: BASIS
    atoms 1-7, 16-18  entry C          line   138 file /theoryfs2/ds/metcalf/miniconda2/envs/tf2gpu/share/psi4/basis/cc-pvdz.gbs
    atoms 8-15, 19-26 entry H          line    22 file /theoryfs2/ds/metcalf/miniconda2/envs/tf2gpu/share/psi4/basis/cc-pvdz.gbs

         ---------------------------------------------------------
                                   SCF
               by Justin Turney, Rob Parrish, Andy Simmonett
                          and Daniel G. A. Smith
                              RHF Reference
                        1 Threads,    500 MiB Core
         ---------------------------------------------------------

  ==> Geometry <==

    Molecular point group: c1
    Full point group: C1

    Geometry (in Angstrom), charge = 0, multiplicity = 1:

       Center              X                  Y                   Z               Mass
    ------------   -----------------  -----------------  -----------------  -----------------
         C            1.002464476172     2.787777915991     3.188522580558    12.000000000000
         C            0.037464476172     0.556777915991    -0.384477419442    12.000000000000
         C           -0.972535523828     1.244777915991     0.306522580558    12.000000000000
         C            1.358464476172     0.590777915991     0.097522580558    12.000000000000
         C           -0.673535523828     1.960777915991     1.471522580558    12.000000000000
         C            1.650464476172     1.315777915991     1.265522580558    12.000000000000
         C            0.648464476172     2.002777915991     1.952522580558    12.000000000000
         H           -0.200535523828     0.005777915991    -1.279477419442     1.007825032230
         H           -1.985535523828     1.233777915991    -0.070477419442     1.007825032230
         H            2.144464476172     0.065777915991    -0.429477419442     1.007825032230
         H           -1.454535523828     2.499777915991     1.989522580558     1.007825032230
         H            2.669464476172     1.344777915991     1.626522580558     1.007825032230
         H            0.488464476172     3.731777915991     3.168522580558     1.007825032230
         H            2.061464476172     3.043777915991     3.126522580558     1.007825032230
         H            0.843104476172     2.252267915991     4.136065880558     1.007825032230
         C           -0.674535523828    -2.715222084009    -2.219477419442    12.000000000000
         C           -2.194535523828    -2.827222084009    -2.325477419442    12.000000000000
         C            0.073464476172    -3.953222084009    -2.732477419442    12.000000000000
         H           -0.347535523828    -1.853222084009    -2.805477419442     1.007825032230
         H           -0.396535523828    -2.527222084009    -1.189477419442     1.007825032230
         H           -2.514535523828    -3.729222084009    -1.809477419442     1.007825032230
         H           -0.198535523828    -4.817222084009    -2.128477419442     1.007825032230
         H           -0.197535523828    -4.151222084009    -3.768477419442     1.007825032230
         H           -2.476765523828    -2.882312084009    -3.387227419442     1.007825032230
         H           -2.636105523828    -1.917512084009    -1.892523419442     1.007825032230
         H            1.157274476172    -3.775332084009    -2.671508419442     1.007825032230

  Running in c1 symmetry.

  Rotational constants: A =      0.09875  B =      0.01280  C =      0.01175 [cm^-1]
  Rotational constants: A =   2960.34280  B =    383.60654  C =    352.12075 [MHz]
  Nuclear repulsion =  466.481929371571425

  Charge       = 0
  Multiplicity = 1
  Electrons    = 76
  Nalpha       = 38
  Nbeta        = 38

  ==> Algorithm <==

  SCF Algorithm Type is PK.
  DIIS enabled.
  MOM disabled.
  Fractional occupation disabled.
  Guess Type is SAD.
  Energy threshold   = 1.00e-06
  Density threshold  = 1.00e-10
  Integral threshold = 0.00e+00

  ==> Primary Basis <==

  Basis Set: CC-PVDZ
    Blend: CC-PVDZ
    Number of shells: 108
    Number of basis function: 220
    Number of Cartesian functions: 230
    Spherical Harmonics?: true
    Max angular momentum: 2

  ==> Pre-Iterations <==

   -------------------------------------------------------
    Irrep   Nso     Nmo     Nalpha   Nbeta   Ndocc  Nsocc
   -------------------------------------------------------
     A        220     220       0       0       0       0
   -------------------------------------------------------
    Total     220     220      38      38      38       0
   -------------------------------------------------------

  ==> Integral Setup <==

  Using integral reordering PK algorithm.
  Sizing the integral batches needed.
  Building batch lookup table.
   Calculation information:
      Number of atoms:                  26
      Number of AO shells:             108
      Number of primitives:            300
      Number of atomic orbitals:       230
      Number of basis functions:       220

      Integral cutoff                 1.00e-12
      Number of threads:                 1

	Batch   1 pq = [       0,    9405] index = [             0,44231715] size =     44231715
	Batch   2 pq = [    9405,   13301] index = [      44231715,88464951] size =     44233236
	Batch   3 pq = [   13301,   16290] index = [      88464951,132690195] size =     44225244
	Batch   4 pq = [   16290,   18810] index = [     132690195,176917455] size =     44227260
	Batch   5 pq = [   18810,   21030] index = [     176917455,221140965] size =     44223510
	Batch   6 pq = [   21030,   23037] index = [     221140965,265363203] size =     44222238
	Batch   7 pq = [   23037,   24310] index = [     265363203,295500205] size =     30137002
  Task number: 27
  Buffer size: 11059200
  Buffer per thread: 2
  We computed 12360454 shell quartets total.
  Whereas there are 17325441 unique shell quartets.

  ==> DiskJK: Disk-Based J/K Matrices <==

    J tasked:                  Yes
    K tasked:                  Yes
    wK tasked:                  No
    Memory [MiB]:              375
    Schwarz Cutoff:          1E-12

    OpenMP threads:              1

  Minimum eigenvalue in the overlap matrix is 3.2487876372E-04.
  Using Symmetric Orthogonalization.

  SCF Guess: Superposition of Atomic Densities via on-the-fly atomic UHF.

  ==> Iterations <==

                        Total Energy        Delta E     RMS |[F,P]|

   @RHF iter SAD:  -386.76447994625494   -3.86764e+02   0.00000e+00
   @RHF iter   1:  -387.77466111043196   -1.01018e+00   2.72575e-03 DIIS
   @RHF iter   2:  -387.99102885158482   -2.16368e-01   1.13541e-03 DIIS
   @RHF iter   3:  -388.02509240414139   -3.40636e-02   2.49416e-04 DIIS
   @RHF iter   4:  -388.02795609607961   -2.86369e-03   5.45908e-05 DIIS
   @RHF iter   5:  -388.02805119035565   -9.50943e-05   1.78489e-05 DIIS
   @RHF iter   6:  -388.02806103414542   -9.84379e-06   5.01819e-06 DIIS
   @RHF iter   7:  -388.02806194249553   -9.08350e-07   1.16024e-06 DIIS
   @RHF iter   8:  -388.02806200531654   -6.28210e-08   3.11029e-07 DIIS
   @RHF iter   9:  -388.02806201465489   -9.33835e-09   1.34931e-07 DIIS
   @RHF iter  10:  -388.02806201693016   -2.27527e-09   6.65681e-08 DIIS
   @RHF iter  11:  -388.02806201765384   -7.23674e-10   2.52156e-08 DIIS
   @RHF iter  12:  -388.02806201775604   -1.02204e-10   8.47206e-09 DIIS
   @RHF iter  13:  -388.02806201776417   -8.12861e-12   2.76679e-09 DIIS
   @RHF iter  14:  -388.02806201776747   -3.29692e-12   8.32535e-10 DIIS
   @RHF iter  15:  -388.02806201776662    8.52651e-13   3.23716e-10 DIIS
   @RHF iter  16:  -388.02806201776684   -2.27374e-13   1.87195e-10 DIIS
   @RHF iter  17:  -388.02806201776752   -6.82121e-13   8.42796e-11 DIIS
  Energy and wave function converged.

  ==> Post-Iterations <==

    Orbital Energies [Eh]
    ---------------------

    Doubly Occupied:

       1A    -11.242374     2A    -11.238820     3A    -11.237868
       4A    -11.233521     5A    -11.233360     6A    -11.232041
       7A    -11.227434     8A    -11.218799     9A    -11.217869
      10A    -11.216630    11A     -1.146062    12A     -1.053557
      13A     -1.041170    14A     -1.007801    15A     -0.930141
      16A     -0.924888    17A     -0.822562    18A     -0.797761
      19A     -0.792684    20A     -0.688214    21A     -0.631927
      22A     -0.626778    23A     -0.626447    24A     -0.595253
      25A     -0.581328    26A     -0.580295    27A     -0.561822
      28A     -0.551717    29A     -0.533622    30A     -0.530158
      31A     -0.484522    32A     -0.484061    33A     -0.481331
      34A     -0.469932    35A     -0.468290    36A     -0.467707
      37A     -0.330018    38A     -0.319678

    Virtual:

      39A      0.133411    40A      0.138578    41A      0.169512
      42A      0.190643    43A      0.201722    44A      0.207288
      45A      0.230205    46A      0.231817    47A      0.237744
      48A      0.252096    49A      0.260120    50A      0.272699
      51A      0.278818    52A      0.280049    53A      0.292011
      54A      0.302708    55A      0.309910    56A      0.337095
      57A      0.361575    58A      0.373033    59A      0.385476
      60A      0.420080    61A      0.450346    62A      0.465420
      63A      0.474470    64A      0.492220    65A      0.555567
      66A      0.582617    67A      0.597820    68A      0.608271
      69A      0.613339    70A      0.621600    71A      0.643619
      72A      0.666623    73A      0.676459    74A      0.686982
      75A      0.709112    76A      0.720812    77A      0.736902
      78A      0.739390    79A      0.744604    80A      0.749552
      81A      0.758155    82A      0.773380    83A      0.786516
      84A      0.795698    85A      0.804371    86A      0.837269
      87A      0.845991    88A      0.858410    89A      0.860572
      90A      0.876998    91A      0.879037    92A      0.892414
      93A      0.894888    94A      0.898251    95A      0.900522
      96A      0.901543    97A      0.905639    98A      0.919521
      99A      0.921828   100A      0.925391   101A      0.941410
     102A      0.948288   103A      0.953343   104A      0.970619
     105A      0.986314   106A      1.002121   107A      1.046109
     108A      1.051068   109A      1.112125   110A      1.124735
     111A      1.140426   112A      1.147630   113A      1.152624
     114A      1.167846   115A      1.193579   116A      1.211130
     117A      1.236757   118A      1.244861   119A      1.251387
     120A      1.254916   121A      1.295491   122A      1.300223
     123A      1.315107   124A      1.321242   125A      1.385937
     126A      1.413643   127A      1.474450   128A      1.487091
     129A      1.508409   130A      1.520779   131A      1.535634
     132A      1.554310   133A      1.597680   134A      1.626684
     135A      1.674386   136A      1.683986   137A      1.686457
     138A      1.695055   139A      1.701585   140A      1.731201
     141A      1.744378   142A      1.754342   143A      1.784741
     144A      1.806117   145A      1.853901   146A      1.866170
     147A      1.871254   148A      1.874831   149A      1.881087
     150A      1.890254   151A      1.903590   152A      1.904505
     153A      1.908037   154A      1.922119   155A      1.927781
     156A      1.942452   157A      1.947397   158A      1.954053
     159A      1.960752   160A      1.969176   161A      1.983015
     162A      1.987448   163A      1.992609   164A      1.995012
     165A      1.998905   166A      2.012534   167A      2.040944
     168A      2.044941   169A      2.059475   170A      2.062107
     171A      2.106322   172A      2.136170   173A      2.139262
     174A      2.148294   175A      2.156450   176A      2.159284
     177A      2.170054   178A      2.177705   179A      2.246164
     180A      2.269072   181A      2.279388   182A      2.289163
     183A      2.299554   184A      2.305044   185A      2.315700
     186A      2.329236   187A      2.337399   188A      2.350246
     189A      2.464846   190A      2.469967   191A      2.497133
     192A      2.503987   193A      2.527570   194A      2.532467
     195A      2.585298   196A      2.615661   197A      2.618944
     198A      2.624629   199A      2.737260   200A      2.744521
     201A      2.756526   202A      2.765793   203A      2.776331
     204A      2.784062   205A      2.796307   206A      2.798213
     207A      2.818633   208A      2.857774   209A      2.884344
     210A      2.911892   211A      2.956992   212A      2.962417
     213A      2.965999   214A      2.994981   215A      3.013521
     216A      3.068118   217A      3.139106   218A      3.188202
     219A      3.275071   220A      3.933555

    Final Occupation by Irrep:
              A
    DOCC [    38 ]

  @RHF Final Energy:  -388.02806201776752

   => Energetics <=

    Nuclear Repulsion Energy =            466.4819293715714252
    One-Electron Energy =               -1447.3631005196286878
    Two-Electron Energy =                 592.8531091302897948
    Total Energy =                       -388.0280620177675246

Computation Completed

Properties will be evaluated at   0.000000,   0.000000,   0.000000 [a0]

Properties computed using the SCF density matrix

  Nuclear Dipole Moment: [e a0]
     X:    -2.8536      Y:   -10.7580      Z:    -6.9231

  Electronic Dipole Moment: [e a0]
     X:     2.9032      Y:    10.8475      Z:     7.0345

  Dipole Moment: [e a0]
     X:     0.0496      Y:     0.0895      Z:     0.1113     Total:     0.1512

  Dipole Moment: [D]
     X:     0.1261      Y:     0.2274      Z:     0.2830     Total:     0.3843

*** tstop() called on ds3 at Mon Apr 27 01:16:08 2020
Module time:
	user time   =      83.05 seconds =       1.38 minutes
	system time =      41.35 seconds =       0.69 minutes
	total time  =        123 seconds =       2.05 minutes
Total time:
	user time   =      83.05 seconds =       1.38 minutes
	system time =      41.35 seconds =       0.69 minutes
	total time  =        123 seconds =       2.05 minutes
                                     G D M A

                                 by Anthony Stone

                           version 2.2.06, 22 June 2011

               Distributed Multipoles from Gaussian wavefunctions

Starting at 1:16:8 on 27 Apr 2020

Using SCF density matrix from file ./SSI/SSI-005PHE-049LYS-1-dimer.test.12153.fchk

                         Distributed Multipole Analysis

Standard DMA

Positions and radii in angstrom
Multipole moments in atomic units, ea_0^k for rank k

C          x =  1.002464  y =  2.787778  z =  3.188523 angstrom
           Maximum rank =  0   Radius =  0.650 angstrom
                   Q00  =  -0.204714

C          x =  0.037464  y =  0.556778  z = -0.384477 angstrom
           Maximum rank =  0   Radius =  0.650 angstrom
                   Q00  =  -0.087296

C          x = -0.972536  y =  1.244778  z =  0.306523 angstrom
           Maximum rank =  0   Radius =  0.650 angstrom
                   Q00  =  -0.072465

C          x =  1.358464  y =  0.590778  z =  0.097523 angstrom
           Maximum rank =  0   Radius =  0.650 angstrom
                   Q00  =  -0.073090

C          x = -0.673536  y =  1.960778  z =  1.471523 angstrom
           Maximum rank =  0   Radius =  0.650 angstrom
                   Q00  =  -0.085215

C          x =  1.650464  y =  1.315778  z =  1.265523 angstrom
           Maximum rank =  0   Radius =  0.650 angstrom
                   Q00  =   0.000266

C          x =  0.648464  y =  2.002778  z =  1.952523 angstrom
           Maximum rank =  0   Radius =  0.650 angstrom
                   Q00  =  -0.098157

H          x = -0.200536  y =  0.005778  z = -1.279477 angstrom
           Maximum rank =  0   Radius =  0.325 angstrom
                   Q00  =   0.066827

H          x = -1.985536  y =  1.233778  z = -0.070477 angstrom
           Maximum rank =  0   Radius =  0.325 angstrom
                   Q00  =   0.064364

H          x =  2.144464  y =  0.065778  z = -0.429477 angstrom
           Maximum rank =  0   Radius =  0.325 angstrom
                   Q00  =   0.067135

H          x = -1.454536  y =  2.499778  z =  1.989523 angstrom
           Maximum rank =  0   Radius =  0.325 angstrom
                   Q00  =   0.059697

H          x =  2.669464  y =  1.344778  z =  1.626523 angstrom
           Maximum rank =  0   Radius =  0.325 angstrom
                   Q00  =   0.058588

H          x =  0.488464  y =  3.731778  z =  3.168523 angstrom
           Maximum rank =  0   Radius =  0.325 angstrom
                   Q00  =   0.103266

H          x =  2.061464  y =  3.043778  z =  3.126523 angstrom
           Maximum rank =  0   Radius =  0.325 angstrom
                   Q00  =   0.093278

H          x =  0.843104  y =  2.252268  z =  4.136066 angstrom
           Maximum rank =  0   Radius =  0.325 angstrom
                   Q00  =   0.105837

C          x = -0.674536  y = -2.715222  z = -2.219477 angstrom
           Maximum rank =  0   Radius =  0.650 angstrom
                   Q00  =  -0.084393

C          x = -2.194536  y = -2.827222  z = -2.325477 angstrom
           Maximum rank =  0   Radius =  0.650 angstrom
                   Q00  =  -0.240717

C          x =  0.073464  y = -3.953222  z = -2.732477 angstrom
           Maximum rank =  0   Radius =  0.650 angstrom
                   Q00  =  -0.239680

H          x = -0.347536  y = -1.853222  z = -2.805477 angstrom
           Maximum rank =  0   Radius =  0.325 angstrom
                   Q00  =   0.037606

H          x = -0.396536  y = -2.527222  z = -1.189477 angstrom
           Maximum rank =  0   Radius =  0.325 angstrom
                   Q00  =   0.053168

H          x = -2.514536  y = -3.729222  z = -1.809477 angstrom
           Maximum rank =  0   Radius =  0.325 angstrom
                   Q00  =   0.079411

H          x = -0.198536  y = -4.817222  z = -2.128477 angstrom
           Maximum rank =  0   Radius =  0.325 angstrom
                   Q00  =   0.078425

H          x = -0.197536  y = -4.151222  z = -3.768477 angstrom
           Maximum rank =  0   Radius =  0.325 angstrom
                   Q00  =   0.077344

H          x = -2.476766  y = -2.882312  z = -3.387227 angstrom
           Maximum rank =  0   Radius =  0.325 angstrom
                   Q00  =   0.074593

H          x = -2.636106  y = -1.917512  z = -1.892523 angstrom
           Maximum rank =  0   Radius =  0.325 angstrom
                   Q00  =   0.082405

H          x =  1.157274  y = -3.775332  z = -2.671508 angstrom
           Maximum rank =  0   Radius =  0.325 angstrom
                   Q00  =   0.083520

Total multipoles referred to origin at
           x =   0.000000,  y =    0.000000,  z =    0.000000 angstrom
                   Q00  =  -0.000000

Finished at 1:16:8 on 27 Apr 2020

  DMA results are available in the Python driver through the
	  variable('DMA DISTRIBUTED MULTIPOLES')
  and
	  variable('DMA TOTAL MULTIPOLES')
  commands.

    Psi4 stopped on: Monday, 27 April 2020 01:16AM
    Psi4 wall time for execution: 0:02:02.55

*** Psi4 exiting successfully. Buy a developer a beer!
