                               Psi4 1.3.2 release

  ==> Input File <==

--------------------------------------------------------------------------
import numpy as np
set {scf_type pk
basis cc-pvdz
d_convergence 10
gdma_switch   0
gdma_limit    0
gdma_origin   [ 0.0,  0.0,  0.0 ]
}
molecule test {
    units Angstrom
    -1 1
    --
    -1 1
    C               -2.945703405579970    -1.036798794940845     0.999981968683863
    C               -1.985703405579969     0.049201205059155     0.632981968683863
    O               -0.907703405579969    -0.294798794940845     0.115981968683863
    O               -2.246703405579969     1.250201205059155     0.819981968683863
    H               -2.439703405579969    -1.800798794940845     1.587981968683863
    H               -3.276703405579969    -1.503798794940845     0.069981968683863
    H               -3.823311405579969    -0.653788794940845     1.541381968683863
    C                2.304296594420031    -0.059798794940845    -0.457018031316137
    C                3.188296594420031    -1.176798794940845    -0.966018031316137
    C                2.597296594420031     1.270201205059155    -1.126018031316137
    H                1.286296594420031    -0.344798794940845    -0.667018031316137
    H                2.428296594420031     0.047201205059155     0.617981968683863
    H                3.008296594420031    -2.067798794940845    -0.362018031316137
    H                4.226296594420030    -0.872798794940845    -0.823018031316137
    H                3.605296594420031     1.596201205059155    -0.860018031316137
    H                2.536296594420030     1.188201205059155    -2.211018031316137
    H                3.029106594420031    -1.431788794940845    -2.024148031316137
    H                1.875041594420030     2.040081205059155    -0.816788031316137

}
e, wfn = energy('scf', return_wfn=True)
gdma(wfn)
dmavals = variable('DMA DISTRIBUTED MULTIPOLES')
charges = np.array(dmavals)
print(charges)
np.save('SSI-033ASP-279LYS-2-dimer.npy', np.array(charges))--------------------------------------------------------------------------

*** tstart() called on ds3
*** at Tue Apr 28 07:30:01 2020

   => Loading Basis Set <=

    Name: CC-PVDZ
    Role: ORBITAL
    Keyword: BASIS
    atoms 1-2, 8-10  entry C          line   138 file /theoryfs2/ds/metcalf/miniconda2/envs/tf2gpu/share/psi4/basis/cc-pvdz.gbs
    atoms 3-4        entry O          line   198 file /theoryfs2/ds/metcalf/miniconda2/envs/tf2gpu/share/psi4/basis/cc-pvdz.gbs
    atoms 5-7, 11-18 entry H          line    22 file /theoryfs2/ds/metcalf/miniconda2/envs/tf2gpu/share/psi4/basis/cc-pvdz.gbs

         ---------------------------------------------------------
                                   SCF
               by Justin Turney, Rob Parrish, Andy Simmonett
                          and Daniel G. A. Smith
                              RHF Reference
                        1 Threads,    500 MiB Core
         ---------------------------------------------------------

  ==> Geometry <==

    Molecular point group: c1
    Full point group: C1

    Geometry (in Angstrom), charge = -1, multiplicity = 1:

       Center              X                  Y                   Z               Mass
    ------------   -----------------  -----------------  -----------------  -----------------
         C           -2.945703405580    -1.036798794941     0.999981968684    12.000000000000
         C           -1.985703405580     0.049201205059     0.632981968684    12.000000000000
         O           -0.907703405580    -0.294798794941     0.115981968684    15.994914619570
         O           -2.246703405580     1.250201205059     0.819981968684    15.994914619570
         H           -2.439703405580    -1.800798794941     1.587981968684     1.007825032230
         H           -3.276703405580    -1.503798794941     0.069981968684     1.007825032230
         H           -3.823311405580    -0.653788794941     1.541381968684     1.007825032230
         C            2.304296594420    -0.059798794941    -0.457018031316    12.000000000000
         C            3.188296594420    -1.176798794941    -0.966018031316    12.000000000000
         C            2.597296594420     1.270201205059    -1.126018031316    12.000000000000
         H            1.286296594420    -0.344798794941    -0.667018031316     1.007825032230
         H            2.428296594420     0.047201205059     0.617981968684     1.007825032230
         H            3.008296594420    -2.067798794941    -0.362018031316     1.007825032230
         H            4.226296594420    -0.872798794941    -0.823018031316     1.007825032230
         H            3.605296594420     1.596201205059    -0.860018031316     1.007825032230
         H            2.536296594420     1.188201205059    -2.211018031316     1.007825032230
         H            3.029106594420    -1.431788794941    -2.024148031316     1.007825032230
         H            1.875041594420     2.040081205059    -0.816788031316     1.007825032230

  Running in c1 symmetry.

  Rotational constants: A =      0.15886  B =      0.02464  C =      0.02183 [cm^-1]
  Rotational constants: A =   4762.48477  B =    738.70046  C =    654.52663 [MHz]
  Nuclear repulsion =  282.171269650917395

  Charge       = -1
  Multiplicity = 1
  Electrons    = 58
  Nalpha       = 29
  Nbeta        = 29

  ==> Algorithm <==

  SCF Algorithm Type is PK.
  DIIS enabled.
  MOM disabled.
  Fractional occupation disabled.
  Guess Type is SAD.
  Energy threshold   = 1.00e-06
  Density threshold  = 1.00e-10
  Integral threshold = 0.00e+00

  ==> Primary Basis <==

  Basis Set: CC-PVDZ
    Blend: CC-PVDZ
    Number of shells: 75
    Number of basis function: 153
    Number of Cartesian functions: 160
    Spherical Harmonics?: true
    Max angular momentum: 2

  ==> Pre-Iterations <==

   -------------------------------------------------------
    Irrep   Nso     Nmo     Nalpha   Nbeta   Ndocc  Nsocc
   -------------------------------------------------------
     A        153     153       0       0       0       0
   -------------------------------------------------------
    Total     153     153      29      29      29       0
   -------------------------------------------------------

  ==> Integral Setup <==

  Using integral reordering PK algorithm.
  Sizing the integral batches needed.
  Building batch lookup table.
   Calculation information:
      Number of atoms:                  18
      Number of AO shells:              75
      Number of primitives:            209
      Number of atomic orbitals:       160
      Number of basis functions:       153

      Integral cutoff                 1.00e-12
      Number of threads:                 1

	Batch   1 pq = [       0,    9405] index = [             0,44231715] size =     44231715
	Batch   2 pq = [    9405,   11781] index = [      44231715,69401871] size =     25170156
  Task number: 7
  Buffer size: 11059200
  Buffer per thread: 2
  We computed 2961443 shell quartets total.
  Whereas there are 4062675 unique shell quartets.

  ==> DiskJK: Disk-Based J/K Matrices <==

    J tasked:                  Yes
    K tasked:                  Yes
    wK tasked:                  No
    Memory [MiB]:              375
    Schwarz Cutoff:          1E-12

    OpenMP threads:              1

  Minimum eigenvalue in the overlap matrix is 5.0618816566E-03.
  Using Symmetric Orthogonalization.

  SCF Guess: Superposition of Atomic Densities via on-the-fly atomic UHF.

  ==> Iterations <==

                        Total Energy        Delta E     RMS |[F,P]|

   @RHF iter SAD:  -343.98439695286078   -3.43984e+02   0.00000e+00
   @RHF iter   1:  -345.20759293941541   -1.22320e+00   5.00239e-03 DIIS
   @RHF iter   2:  -345.44130651674345   -2.33714e-01   2.74924e-03 DIIS
   @RHF iter   3:  -345.50811562702631   -6.68091e-02   4.25025e-04 DIIS
   @RHF iter   4:  -345.51106782469526   -2.95220e-03   1.59172e-04 DIIS
   @RHF iter   5:  -345.51147192687631   -4.04102e-04   2.42495e-05 DIIS
   @RHF iter   6:  -345.51148357416565   -1.16473e-05   6.02843e-06 DIIS
   @RHF iter   7:  -345.51148434745505   -7.73289e-07   1.73386e-06 DIIS
   @RHF iter   8:  -345.51148442021849   -7.27634e-08   5.57945e-07 DIIS
   @RHF iter   9:  -345.51148443309449   -1.28760e-08   2.84550e-07 DIIS
   @RHF iter  10:  -345.51148443539091   -2.29642e-09   1.08939e-07 DIIS
   @RHF iter  11:  -345.51148443584225   -4.51337e-10   3.62688e-08 DIIS
   @RHF iter  12:  -345.51148443587806   -3.58114e-11   6.07797e-09 DIIS
   @RHF iter  13:  -345.51148443587755    5.11591e-13   1.89343e-09 DIIS
   @RHF iter  14:  -345.51148443587823   -6.82121e-13   5.75473e-10 DIIS
   @RHF iter  15:  -345.51148443587897   -7.38964e-13   1.67598e-10 DIIS
   @RHF iter  16:  -345.51148443587937   -3.97904e-13   5.56313e-11 DIIS
  Energy and wave function converged.

  ==> Post-Iterations <==

    Orbital Energies [Eh]
    ---------------------

    Doubly Occupied:

       1A    -20.252122     2A    -20.249938     3A    -11.108006
       4A    -11.102372     5A    -11.094211     6A    -11.077547
       7A    -11.050133     8A     -1.151205     9A     -1.030443
      10A     -0.933062    11A     -0.807587    12A     -0.802337
      13A     -0.670064    14A     -0.507260    15A     -0.498397
      16A     -0.475180    17A     -0.430591    18A     -0.417032
      19A     -0.414163    20A     -0.410174    21A     -0.404186
      22A     -0.351006    23A     -0.348787    24A     -0.345774
      25A     -0.323633    26A     -0.301153    27A     -0.183720
      28A     -0.163619    29A     -0.155573

    Virtual:

      30A      0.295278    31A      0.341097    32A      0.345083
      33A      0.353380    34A      0.362533    35A      0.391643
      36A      0.396088    37A      0.406160    38A      0.407519
      39A      0.414118    40A      0.468949    41A      0.488760
      42A      0.499308    43A      0.554133    44A      0.576260
      45A      0.694799    46A      0.696429    47A      0.705688
      48A      0.731029    49A      0.738240    50A      0.744239
      51A      0.792869    52A      0.817663    53A      0.873814
      54A      0.907871    55A      0.935111    56A      0.946002
      57A      0.977878    58A      0.987530    59A      1.000799
      60A      1.008614    61A      1.012788    62A      1.019488
      63A      1.025647    64A      1.031933    65A      1.033656
      66A      1.034999    67A      1.054042    68A      1.060150
      69A      1.073948    70A      1.086987    71A      1.128584
      72A      1.149438    73A      1.235768    74A      1.246364
      75A      1.256339    76A      1.317117    77A      1.355128
      78A      1.357208    79A      1.491548    80A      1.519621
      81A      1.532434    82A      1.566097    83A      1.575867
      84A      1.591501    85A      1.613440    86A      1.627403
      87A      1.645049    88A      1.668450    89A      1.729669
      90A      1.743443    91A      1.760753    92A      1.798793
      93A      1.807691    94A      1.831114    95A      1.839284
      96A      1.876568    97A      1.990518    98A      2.000044
      99A      2.005305   100A      2.022899   101A      2.042315
     102A      2.052969   103A      2.080774   104A      2.084564
     105A      2.097662   106A      2.103819   107A      2.107230
     108A      2.114349   109A      2.126189   110A      2.135366
     111A      2.160469   112A      2.194208   113A      2.214958
     114A      2.263901   115A      2.274765   116A      2.282603
     117A      2.329476   118A      2.411719   119A      2.424060
     120A      2.431841   121A      2.444762   122A      2.454215
     123A      2.467087   124A      2.607959   125A      2.629938
     126A      2.653167   127A      2.664593   128A      2.706534
     129A      2.724876   130A      2.735579   131A      2.772146
     132A      2.828141   133A      2.869085   134A      2.890488
     135A      2.896513   136A      2.915900   137A      2.943946
     138A      2.965627   139A      2.997796   140A      3.056914
     141A      3.105121   142A      3.117486   143A      3.212149
     144A      3.247898   145A      3.290668   146A      3.300066
     147A      3.371712   148A      3.664304   149A      3.792814
     150A      3.831559   151A      4.080330   152A      4.131144
     153A      4.236834

    Final Occupation by Irrep:
              A
    DOCC [    29 ]

  @RHF Final Energy:  -345.51148443587937

   => Energetics <=

    Nuclear Repulsion Energy =            282.1712696509173952
    One-Electron Energy =               -1041.2469549375873612
    Two-Electron Energy =                 413.5642008507906553
    Total Energy =                       -345.5114844358793675

Computation Completed

Properties will be evaluated at   0.000000,   0.000000,   0.000000 [a0]

Properties computed using the SCF density matrix

  Nuclear Dipole Moment: [e a0]
     X:    11.6612      Y:    -3.5614      Z:    -3.6954

  Electronic Dipole Moment: [e a0]
     X:    -9.5143      Y:     2.4815      Z:     3.0684

  Dipole Moment: [e a0]
     X:     2.1470      Y:    -1.0799      Z:    -0.6271     Total:     2.4837

  Dipole Moment: [D]
     X:     5.4571      Y:    -2.7448      Z:    -1.5938     Total:     6.3130

*** tstop() called on ds3 at Tue Apr 28 07:30:28 2020
Module time:
	user time   =      17.91 seconds =       0.30 minutes
	system time =       9.61 seconds =       0.16 minutes
	total time  =         27 seconds =       0.45 minutes
Total time:
	user time   =      17.91 seconds =       0.30 minutes
	system time =       9.61 seconds =       0.16 minutes
	total time  =         27 seconds =       0.45 minutes
                                     G D M A

                                 by Anthony Stone

                           version 2.2.06, 22 June 2011

               Distributed Multipoles from Gaussian wavefunctions

Starting at 7:30:28 on 28 Apr 2020

Using SCF density matrix from file ./SSI/SSI-033ASP-279LYS-2-dimer.test.6273.fchk

                         Distributed Multipole Analysis

Standard DMA

Positions and radii in angstrom
Multipole moments in atomic units, ea_0^k for rank k

C          x = -2.945703  y = -1.036799  z =  0.999982 angstrom
           Maximum rank =  0   Radius =  0.650 angstrom
                   Q00  =  -0.276008

C          x = -1.985703  y =  0.049201  z =  0.632982 angstrom
           Maximum rank =  0   Radius =  0.650 angstrom
                   Q00  =   0.993617

O          x = -0.907703  y = -0.294799  z =  0.115982 angstrom
           Maximum rank =  0   Radius =  0.650 angstrom
                   Q00  =  -0.955477

O          x = -2.246703  y =  1.250201  z =  0.819982 angstrom
           Maximum rank =  0   Radius =  0.650 angstrom
                   Q00  =  -0.933864

H          x = -2.439703  y = -1.800799  z =  1.587982 angstrom
           Maximum rank =  0   Radius =  0.325 angstrom
                   Q00  =   0.067778

H          x = -3.276703  y = -1.503799  z =  0.069982 angstrom
           Maximum rank =  0   Radius =  0.325 angstrom
                   Q00  =   0.073908

H          x = -3.823311  y = -0.653789  z =  1.541382 angstrom
           Maximum rank =  0   Radius =  0.325 angstrom
                   Q00  =   0.045014

C          x =  2.304297  y = -0.059799  z = -0.457018 angstrom
           Maximum rank =  0   Radius =  0.650 angstrom
                   Q00  =  -0.011093

C          x =  3.188297  y = -1.176799  z = -0.966018 angstrom
           Maximum rank =  0   Radius =  0.650 angstrom
                   Q00  =  -0.261942

C          x =  2.597297  y =  1.270201  z = -1.126018 angstrom
           Maximum rank =  0   Radius =  0.650 angstrom
                   Q00  =  -0.245264

H          x =  1.286297  y = -0.344799  z = -0.667018 angstrom
           Maximum rank =  0   Radius =  0.325 angstrom
                   Q00  =   0.109096

H          x =  2.428297  y =  0.047201  z =  0.617982 angstrom
           Maximum rank =  0   Radius =  0.325 angstrom
                   Q00  =   0.034621

H          x =  3.008297  y = -2.067799  z = -0.362018 angstrom
           Maximum rank =  0   Radius =  0.325 angstrom
                   Q00  =   0.071937

H          x =  4.226297  y = -0.872799  z = -0.823018 angstrom
           Maximum rank =  0   Radius =  0.325 angstrom
                   Q00  =   0.033884

H          x =  3.605297  y =  1.596201  z = -0.860018 angstrom
           Maximum rank =  0   Radius =  0.325 angstrom
                   Q00  =   0.031954

H          x =  2.536297  y =  1.188201  z = -2.211018 angstrom
           Maximum rank =  0   Radius =  0.325 angstrom
                   Q00  =   0.056679

H          x =  3.029107  y = -1.431789  z = -2.024148 angstrom
           Maximum rank =  0   Radius =  0.325 angstrom
                   Q00  =   0.064262

H          x =  1.875042  y =  2.040081  z = -0.816788 angstrom
           Maximum rank =  0   Radius =  0.325 angstrom
                   Q00  =   0.100896

Total multipoles referred to origin at
           x =   0.000000,  y =    0.000000,  z =    0.000000 angstrom
                   Q00  =  -1.000000

Finished at 7:30:28 on 28 Apr 2020

  DMA results are available in the Python driver through the
	  variable('DMA DISTRIBUTED MULTIPOLES')
  and
	  variable('DMA TOTAL MULTIPOLES')
  commands.

    Psi4 stopped on: Tuesday, 28 April 2020 07:30AM
    Psi4 wall time for execution: 0:00:27.38

*** Psi4 exiting successfully. Buy a developer a beer!
