                               Psi4 1.3.2 release

  ==> Input File <==

--------------------------------------------------------------------------
import numpy as np
set {scf_type pk
basis cc-pvdz
d_convergence 10
gdma_switch   0
gdma_limit    0
gdma_origin   [ 0.0,  0.0,  0.0 ]
}
molecule test {
    units Angstrom
    0 1
    --
    0 1
    C               -0.739966314797668     1.256903084166263    -2.678979927000652
    C               -1.988966314797668     0.872903084166263    -3.457979927000652
    H               -0.190966314797668     0.355903084166263    -2.408979927000652
    H               -0.089966314797668     1.880903084166263    -3.290979927000652
    H               -1.012966314797668     1.791903084166263    -1.769979927000652
    H               -1.679966314797668     0.337903084166263    -4.355979927000652
    H               -2.573332314797668     1.759503084166263    -3.745139927000652
    H               -2.608974314797668     0.189007084166263    -2.859749927000653
    C               -0.230966314797668     0.951903084166263     2.961020072999347
    C                0.959033685202332    -1.334096915833737    -0.478979927000652
    C                1.806033685202332    -0.385096915833737     0.068020072999348
    C               -0.273966314797668    -1.539096915833737     0.087020072999348
    C                1.425033685202332     0.353903084166263     1.181020072999348
    C               -0.666966314797668    -0.794096915833737     1.193020072999348
    C                0.180033685202332     0.157903084166263     1.751020072999348
    H                1.271033685202332    -1.922096915833737    -1.332979927000652
    H                2.793033685202333    -0.268096915833737    -0.338979927000652
    H               -0.940966314797668    -2.284096915833736    -0.325979927000652
    H                2.106033685202332     1.076903084166263     1.609020072999348
    H               -1.637966314797668    -0.967096915833737     1.632020072999348
    H               -1.310966314797668     0.888903084166263     3.099020072999348
    H                0.011033685202332     1.997903084166263     2.764020072999348
    H                0.277023685202332     0.626269084166263     3.880750072999348

}
e, wfn = energy('scf', return_wfn=True)
gdma(wfn)
dmavals = variable('DMA DISTRIBUTED MULTIPOLES')
charges = np.array(dmavals)
print(charges)
np.save('SSI-011VAL-144PHE-1-dimer.npy', np.array(charges))--------------------------------------------------------------------------

*** tstart() called on ds3
*** at Tue Apr 28 07:48:04 2020

   => Loading Basis Set <=

    Name: CC-PVDZ
    Role: ORBITAL
    Keyword: BASIS
    atoms 1-2, 9-15  entry C          line   138 file /theoryfs2/ds/metcalf/miniconda2/envs/tf2gpu/share/psi4/basis/cc-pvdz.gbs
    atoms 3-8, 16-23 entry H          line    22 file /theoryfs2/ds/metcalf/miniconda2/envs/tf2gpu/share/psi4/basis/cc-pvdz.gbs

         ---------------------------------------------------------
                                   SCF
               by Justin Turney, Rob Parrish, Andy Simmonett
                          and Daniel G. A. Smith
                              RHF Reference
                        1 Threads,    500 MiB Core
         ---------------------------------------------------------

  ==> Geometry <==

    Molecular point group: c1
    Full point group: C1

    Geometry (in Angstrom), charge = 0, multiplicity = 1:

       Center              X                  Y                   Z               Mass
    ------------   -----------------  -----------------  -----------------  -----------------
         C           -0.739966314798     1.256903084166    -2.678979927001    12.000000000000
         C           -1.988966314798     0.872903084166    -3.457979927001    12.000000000000
         H           -0.190966314798     0.355903084166    -2.408979927001     1.007825032230
         H           -0.089966314798     1.880903084166    -3.290979927001     1.007825032230
         H           -1.012966314798     1.791903084166    -1.769979927001     1.007825032230
         H           -1.679966314798     0.337903084166    -4.355979927001     1.007825032230
         H           -2.573332314798     1.759503084166    -3.745139927001     1.007825032230
         H           -2.608974314798     0.189007084166    -2.859749927001     1.007825032230
         C           -0.230966314798     0.951903084166     2.961020072999    12.000000000000
         C            0.959033685202    -1.334096915834    -0.478979927001    12.000000000000
         C            1.806033685202    -0.385096915834     0.068020072999    12.000000000000
         C           -0.273966314798    -1.539096915834     0.087020072999    12.000000000000
         C            1.425033685202     0.353903084166     1.181020072999    12.000000000000
         C           -0.666966314798    -0.794096915834     1.193020072999    12.000000000000
         C            0.180033685202     0.157903084166     1.751020072999    12.000000000000
         H            1.271033685202    -1.922096915834    -1.332979927001     1.007825032230
         H            2.793033685202    -0.268096915834    -0.338979927001     1.007825032230
         H           -0.940966314798    -2.284096915834    -0.325979927001     1.007825032230
         H            2.106033685202     1.076903084166     1.609020072999     1.007825032230
         H           -1.637966314798    -0.967096915834     1.632020072999     1.007825032230
         H           -1.310966314798     0.888903084166     3.099020072999     1.007825032230
         H            0.011033685202     1.997903084166     2.764020072999     1.007825032230
         H            0.277023685202     0.626269084166     3.880750072999     1.007825032230

  Running in c1 symmetry.

  Rotational constants: A =      0.06831  B =      0.02570  C =      0.02358 [cm^-1]
  Rotational constants: A =   2047.84989  B =    770.47842  C =    706.95711 [MHz]
  Nuclear repulsion =  410.676224777222444

  Charge       = 0
  Multiplicity = 1
  Electrons    = 68
  Nalpha       = 34
  Nbeta        = 34

  ==> Algorithm <==

  SCF Algorithm Type is PK.
  DIIS enabled.
  MOM disabled.
  Fractional occupation disabled.
  Guess Type is SAD.
  Energy threshold   = 1.00e-06
  Density threshold  = 1.00e-10
  Integral threshold = 0.00e+00

  ==> Primary Basis <==

  Basis Set: CC-PVDZ
    Blend: CC-PVDZ
    Number of shells: 96
    Number of basis function: 196
    Number of Cartesian functions: 205
    Spherical Harmonics?: true
    Max angular momentum: 2

  ==> Pre-Iterations <==

   -------------------------------------------------------
    Irrep   Nso     Nmo     Nalpha   Nbeta   Ndocc  Nsocc
   -------------------------------------------------------
     A        196     196       0       0       0       0
   -------------------------------------------------------
    Total     196     196      34      34      34       0
   -------------------------------------------------------

  ==> Integral Setup <==

  Using integral reordering PK algorithm.
  Sizing the integral batches needed.
  Building batch lookup table.
   Calculation information:
      Number of atoms:                  23
      Number of AO shells:              96
      Number of primitives:            268
      Number of atomic orbitals:       205
      Number of basis functions:       196

      Integral cutoff                 1.00e-12
      Number of threads:                 1

	Batch   1 pq = [       0,    9405] index = [             0,44231715] size =     44231715
	Batch   2 pq = [    9405,   13301] index = [      44231715,88464951] size =     44233236
	Batch   3 pq = [   13301,   16290] index = [      88464951,132690195] size =     44225244
	Batch   4 pq = [   16290,   18810] index = [     132690195,176917455] size =     44227260
	Batch   5 pq = [   18810,   19306] index = [     176917455,186370471] size =      9453016
  Task number: 17
  Buffer size: 11059200
  Buffer per thread: 2
  We computed 9678376 shell quartets total.
  Whereas there are 10841496 unique shell quartets.

  ==> DiskJK: Disk-Based J/K Matrices <==

    J tasked:                  Yes
    K tasked:                  Yes
    wK tasked:                  No
    Memory [MiB]:              375
    Schwarz Cutoff:          1E-12

    OpenMP threads:              1

  Minimum eigenvalue in the overlap matrix is 2.9732277584E-04.
  Using Symmetric Orthogonalization.

  SCF Guess: Superposition of Atomic Densities via on-the-fly atomic UHF.

  ==> Iterations <==

                        Total Energy        Delta E     RMS |[F,P]|

   @RHF iter SAD:  -347.95900051229745   -3.47959e+02   0.00000e+00
   @RHF iter   1:  -348.76403666888928   -8.05036e-01   2.92676e-03 DIIS
   @RHF iter   2:  -348.95910448268592   -1.95068e-01   1.22409e-03 DIIS
   @RHF iter   3:  -348.99027035717688   -3.11659e-02   2.59083e-04 DIIS
   @RHF iter   4:  -348.99275017402283   -2.47982e-03   5.27050e-05 DIIS
   @RHF iter   5:  -348.99282365588533   -7.34819e-05   1.75156e-05 DIIS
   @RHF iter   6:  -348.99283119786446   -7.54198e-06   4.81671e-06 DIIS
   @RHF iter   7:  -348.99283185124347   -6.53379e-07   1.26523e-06 DIIS
   @RHF iter   8:  -348.99283190477399   -5.35305e-08   3.12808e-07 DIIS
   @RHF iter   9:  -348.99283191207110   -7.29710e-09   1.41711e-07 DIIS
   @RHF iter  10:  -348.99283191384603   -1.77494e-09   6.74921e-08 DIIS
   @RHF iter  11:  -348.99283191445124   -6.05212e-10   2.63717e-08 DIIS
   @RHF iter  12:  -348.99283191452992   -7.86713e-11   1.23063e-08 DIIS
   @RHF iter  13:  -348.99283191454265   -1.27329e-11   3.58155e-09 DIIS
   @RHF iter  14:  -348.99283191454174    9.09495e-13   8.89977e-10 DIIS
   @RHF iter  15:  -348.99283191454128    4.54747e-13   3.51802e-10 DIIS
   @RHF iter  16:  -348.99283191454219   -9.09495e-13   1.36478e-10 DIIS
   @RHF iter  17:  -348.99283191454180    3.97904e-13   5.77743e-11 DIIS
  Energy and wave function converged.

  ==> Post-Iterations <==

    Orbital Energies [Eh]
    ---------------------

    Doubly Occupied:

       1A    -11.239033     2A    -11.233208     3A    -11.232782
       4A    -11.229871     5A    -11.229216     6A    -11.228860
       7A    -11.228116     8A    -11.212114     9A    -11.205183
      10A     -1.157504    11A     -1.048306    12A     -1.012462
      13A     -1.011624    14A     -0.933289    15A     -0.827609
      16A     -0.827515    17A     -0.795737    18A     -0.693454
      19A     -0.634210    20A     -0.628665    21A     -0.591437
      22A     -0.590126    23A     -0.581864    24A     -0.578676
      25A     -0.564638    26A     -0.536253    27A     -0.497892
      28A     -0.488690    29A     -0.484342    30A     -0.482271
      31A     -0.476572    32A     -0.473680    33A     -0.332664
      34A     -0.324392

    Virtual:

      35A      0.136282    36A      0.142645    37A      0.176271
      38A      0.195209    39A      0.205816    40A      0.216271
      41A      0.241477    42A      0.245223    43A      0.253154
      44A      0.262653    45A      0.265828    46A      0.271912
      47A      0.280243    48A      0.289665    49A      0.299177
      50A      0.319422    51A      0.369420    52A      0.376728
      53A      0.406008    54A      0.453447    55A      0.465737
      56A      0.477371    57A      0.498710    58A      0.562956
      59A      0.585916    60A      0.597781    61A      0.601172
      62A      0.611115    63A      0.633719    64A      0.658761
      65A      0.684581    66A      0.685451    67A      0.693946
      68A      0.703160    69A      0.737680    70A      0.744257
      71A      0.747036    72A      0.751728    73A      0.761638
      74A      0.783538    75A      0.784688    76A      0.822558
      77A      0.839135    78A      0.852528    79A      0.861403
      80A      0.870959    81A      0.874828    82A      0.886813
      83A      0.895279    84A      0.899473    85A      0.900160
      86A      0.904809    87A      0.916198    88A      0.922753
      89A      0.926199    90A      0.939728    91A      0.944658
      92A      0.954634    93A      0.986743    94A      1.008814
      95A      1.037934    96A      1.059387    97A      1.126085
      98A      1.131498    99A      1.136361   100A      1.152984
     101A      1.155734   102A      1.166528   103A      1.191800
     104A      1.232499   105A      1.237315   106A      1.254162
     107A      1.260870   108A      1.293114   109A      1.303895
     110A      1.308592   111A      1.322822   112A      1.341481
     113A      1.414297   114A      1.478996   115A      1.492914
     116A      1.512423   117A      1.521900   118A      1.557627
     119A      1.579564   120A      1.610281   121A      1.671060
     122A      1.688251   123A      1.690297   124A      1.706808
     125A      1.735769   126A      1.750149   127A      1.764711
     128A      1.793809   129A      1.810749   130A      1.858533
     131A      1.870356   132A      1.877956   133A      1.894314
     134A      1.900688   135A      1.901209   136A      1.915589
     137A      1.922221   138A      1.930874   139A      1.945497
     140A      1.954306   141A      1.955371   142A      1.959972
     143A      1.961534   144A      1.967262   145A      1.976031
     146A      1.987776   147A      1.999374   148A      2.003003
     149A      2.049707   150A      2.058988   151A      2.088395
     152A      2.105500   153A      2.116017   154A      2.128358
     155A      2.139331   156A      2.161029   157A      2.178106
     158A      2.180269   159A      2.194842   160A      2.250624
     161A      2.279796   162A      2.294264   163A      2.301535
     164A      2.309840   165A      2.323849   166A      2.333286
     167A      2.339399   168A      2.462358   169A      2.463546
     170A      2.474464   171A      2.479043   172A      2.515158
     173A      2.541827   174A      2.569532   175A      2.583989
     176A      2.632815   177A      2.739399   178A      2.759860
     179A      2.766875   180A      2.770532   181A      2.786150
     182A      2.816921   183A      2.819782   184A      2.845978
     185A      2.859537   186A      2.872236   187A      2.876163
     188A      2.959223   189A      2.964320   190A      3.006494
     191A      3.025594   192A      3.054800   193A      3.168339
     194A      3.214663   195A      3.315709   196A      3.995032

    Final Occupation by Irrep:
              A
    DOCC [    34 ]

  @RHF Final Energy:  -348.99283191454180

   => Energetics <=

    Nuclear Repulsion Energy =            410.6762247772224441
    One-Electron Energy =               -1284.1136033326015422
    Two-Electron Energy =                 524.4445466408374159
    Total Energy =                       -348.9928319145417390

Computation Completed

Properties will be evaluated at   0.000000,   0.000000,   0.000000 [a0]

Properties computed using the SCF density matrix

  Nuclear Dipole Moment: [e a0]
     X:    -5.2385      Y:     5.1221      Z:    -6.9784

  Electronic Dipole Moment: [e a0]
     X:     5.2797      Y:    -5.1027      Z:     7.1701

  Dipole Moment: [e a0]
     X:     0.0412      Y:     0.0194      Z:     0.1917     Total:     0.1970

  Dipole Moment: [D]
     X:     0.1047      Y:     0.0493      Z:     0.4871     Total:     0.5007

*** tstop() called on ds3 at Tue Apr 28 07:49:35 2020
Module time:
	user time   =      64.26 seconds =       1.07 minutes
	system time =      27.36 seconds =       0.46 minutes
	total time  =         91 seconds =       1.52 minutes
Total time:
	user time   =      64.26 seconds =       1.07 minutes
	system time =      27.36 seconds =       0.46 minutes
	total time  =         91 seconds =       1.52 minutes
                                     G D M A

                                 by Anthony Stone

                           version 2.2.06, 22 June 2011

               Distributed Multipoles from Gaussian wavefunctions

Starting at 7:49:35 on 28 Apr 2020

Using SCF density matrix from file ./SSI/SSI-011VAL-144PHE-1-dimer.test.6927.fchk

                         Distributed Multipole Analysis

Standard DMA

Positions and radii in angstrom
Multipole moments in atomic units, ea_0^k for rank k

C          x = -0.739966  y =  1.256903  z = -2.678980 angstrom
           Maximum rank =  0   Radius =  0.650 angstrom
                   Q00  =  -0.232800

C          x = -1.988966  y =  0.872903  z = -3.457980 angstrom
           Maximum rank =  0   Radius =  0.650 angstrom
                   Q00  =  -0.231909

H          x = -0.190966  y =  0.355903  z = -2.408980 angstrom
           Maximum rank =  0   Radius =  0.325 angstrom
                   Q00  =   0.088309

H          x = -0.089966  y =  1.880903  z = -3.290980 angstrom
           Maximum rank =  0   Radius =  0.325 angstrom
                   Q00  =   0.071080

H          x = -1.012966  y =  1.791903  z = -1.769980 angstrom
           Maximum rank =  0   Radius =  0.325 angstrom
                   Q00  =   0.079481

H          x = -1.679966  y =  0.337903  z = -4.355980 angstrom
           Maximum rank =  0   Radius =  0.325 angstrom
                   Q00  =   0.072842

H          x = -2.573332  y =  1.759503  z = -3.745140 angstrom
           Maximum rank =  0   Radius =  0.325 angstrom
                   Q00  =   0.076713

H          x = -2.608974  y =  0.189007  z = -2.859750 angstrom
           Maximum rank =  0   Radius =  0.325 angstrom
                   Q00  =   0.074393

C          x = -0.230966  y =  0.951903  z =  2.961020 angstrom
           Maximum rank =  0   Radius =  0.650 angstrom
                   Q00  =  -0.203787

C          x =  0.959034  y = -1.334097  z = -0.478980 angstrom
           Maximum rank =  0   Radius =  0.650 angstrom
                   Q00  =  -0.092696

C          x =  1.806034  y = -0.385097  z =  0.068020 angstrom
           Maximum rank =  0   Radius =  0.650 angstrom
                   Q00  =  -0.016758

C          x = -0.273966  y = -1.539097  z =  0.087020 angstrom
           Maximum rank =  0   Radius =  0.650 angstrom
                   Q00  =  -0.074029

C          x =  1.425034  y =  0.353903  z =  1.181020 angstrom
           Maximum rank =  0   Radius =  0.650 angstrom
                   Q00  =  -0.083967

C          x = -0.666966  y = -0.794097  z =  1.193020 angstrom
           Maximum rank =  0   Radius =  0.650 angstrom
                   Q00  =  -0.023080

C          x =  0.180034  y =  0.157903  z =  1.751020 angstrom
           Maximum rank =  0   Radius =  0.650 angstrom
                   Q00  =  -0.100883

H          x =  1.271034  y = -1.922097  z = -1.332980 angstrom
           Maximum rank =  0   Radius =  0.325 angstrom
                   Q00  =   0.059337

H          x =  2.793034  y = -0.268097  z = -0.338980 angstrom
           Maximum rank =  0   Radius =  0.325 angstrom
                   Q00  =   0.062635

H          x = -0.940966  y = -2.284097  z = -0.325980 angstrom
           Maximum rank =  0   Radius =  0.325 angstrom
                   Q00  =   0.062202

H          x =  2.106034  y =  1.076903  z =  1.609020 angstrom
           Maximum rank =  0   Radius =  0.325 angstrom
                   Q00  =   0.054827

H          x = -1.637966  y = -0.967097  z =  1.632020 angstrom
           Maximum rank =  0   Radius =  0.325 angstrom
                   Q00  =   0.056050

H          x = -1.310966  y =  0.888903  z =  3.099020 angstrom
           Maximum rank =  0   Radius =  0.325 angstrom
                   Q00  =   0.098738

H          x =  0.011034  y =  1.997903  z =  2.764020 angstrom
           Maximum rank =  0   Radius =  0.325 angstrom
                   Q00  =   0.098148

H          x =  0.277024  y =  0.626269  z =  3.880750 angstrom
           Maximum rank =  0   Radius =  0.325 angstrom
                   Q00  =   0.105155

Total multipoles referred to origin at
           x =   0.000000,  y =    0.000000,  z =    0.000000 angstrom
                   Q00  =  -0.000000

Finished at 7:49:35 on 28 Apr 2020

  DMA results are available in the Python driver through the
	  variable('DMA DISTRIBUTED MULTIPOLES')
  and
	  variable('DMA TOTAL MULTIPOLES')
  commands.

    Psi4 stopped on: Tuesday, 28 April 2020 07:49AM
    Psi4 wall time for execution: 0:01:30.28

*** Psi4 exiting successfully. Buy a developer a beer!
