                               Psi4 1.3.2 release

  ==> Input File <==

--------------------------------------------------------------------------
import numpy as np
set {scf_type pk
basis cc-pvdz
d_convergence 10
gdma_switch   0
gdma_limit    0
gdma_origin   [ 0.0,  0.0,  0.0 ]
}
molecule test {
    units Angstrom
    0 1
    --
    0 1
    C                0.987225850236049     0.920383887097669     2.323188946424584
    C                1.281225850236049     2.226383887097669     3.057188946424584
    C                1.754225850236049    -0.213616112902331     2.909188946424583
    H               -0.084774149763951     0.712383887097669     2.304188946424583
    H                1.328225850236049     1.033383887097669     1.293188946424584
    H                2.339225850236049     2.259383887097669     3.317188946424584
    H                0.710225850236048     2.264383887097669     3.985188946424584
    H                1.945225850236049    -0.956616112902331     2.131188946424584
    H                2.731225850236048     0.119383887097669     3.268188946424583
    H                1.082294850236049     3.106438887097669     2.427959946424584
    H                1.186061850236049    -0.654458112902331     3.741558946424584
    C               -2.468774149763952     0.833383887097669    -1.736811053575416
    C                0.740225850236049    -0.794616112902331    -1.111811053575416
    C               -1.308774149763951    -0.119616112902331    -1.576811053575416
    C               -1.236774149763952    -1.455616112902331    -1.822811053575416
    N               -0.055774149763951     0.270383887097669    -1.133811053575416
    N                0.049225850236049    -1.852616112902331    -1.519811053575416
    H                1.782225850236049    -0.799616112902331    -0.809811053575416
    H                0.417225850236049    -2.795616112902331    -1.588811053575416
    H               -2.043774149763951    -2.082616112902331    -2.182811053575416
    H               -2.670774149763951     1.336383887097669    -0.789811053575416
    H               -3.348774149763951     0.242383887097669    -1.997811053575416
    H               -2.289253149763951     1.568769887097669    -2.534921053575416

}
e, wfn = energy('scf', return_wfn=True)
gdma(wfn)
dmavals = variable('DMA DISTRIBUTED MULTIPOLES')
charges = np.array(dmavals)
print(charges)
np.save('SSI-039LYS-043HIE-1-dimer.npy', np.array(charges))--------------------------------------------------------------------------

*** tstart() called on ds3
*** at Mon Apr 27 16:33:35 2020

   => Loading Basis Set <=

    Name: CC-PVDZ
    Role: ORBITAL
    Keyword: BASIS
    atoms 1-3, 12-15  entry C          line   138 file /theoryfs2/ds/metcalf/miniconda2/envs/tf2gpu/share/psi4/basis/cc-pvdz.gbs
    atoms 4-11, 18-23 entry H          line    22 file /theoryfs2/ds/metcalf/miniconda2/envs/tf2gpu/share/psi4/basis/cc-pvdz.gbs
    atoms 16-17       entry N          line   168 file /theoryfs2/ds/metcalf/miniconda2/envs/tf2gpu/share/psi4/basis/cc-pvdz.gbs

         ---------------------------------------------------------
                                   SCF
               by Justin Turney, Rob Parrish, Andy Simmonett
                          and Daniel G. A. Smith
                              RHF Reference
                        1 Threads,    500 MiB Core
         ---------------------------------------------------------

  ==> Geometry <==

    Molecular point group: c1
    Full point group: C1

    Geometry (in Angstrom), charge = 0, multiplicity = 1:

       Center              X                  Y                   Z               Mass
    ------------   -----------------  -----------------  -----------------  -----------------
         C            0.987225850236     0.920383887098     2.323188946425    12.000000000000
         C            1.281225850236     2.226383887098     3.057188946425    12.000000000000
         C            1.754225850236    -0.213616112902     2.909188946425    12.000000000000
         H           -0.084774149764     0.712383887098     2.304188946425     1.007825032230
         H            1.328225850236     1.033383887098     1.293188946425     1.007825032230
         H            2.339225850236     2.259383887098     3.317188946425     1.007825032230
         H            0.710225850236     2.264383887098     3.985188946425     1.007825032230
         H            1.945225850236    -0.956616112902     2.131188946425     1.007825032230
         H            2.731225850236     0.119383887098     3.268188946425     1.007825032230
         H            1.082294850236     3.106438887098     2.427959946425     1.007825032230
         H            1.186061850236    -0.654458112902     3.741558946425     1.007825032230
         C           -2.468774149764     0.833383887098    -1.736811053575    12.000000000000
         C            0.740225850236    -0.794616112902    -1.111811053575    12.000000000000
         C           -1.308774149764    -0.119616112902    -1.576811053575    12.000000000000
         C           -1.236774149764    -1.455616112902    -1.822811053575    12.000000000000
         N           -0.055774149764     0.270383887098    -1.133811053575    14.003074004430
         N            0.049225850236    -1.852616112902    -1.519811053575    14.003074004430
         H            1.782225850236    -0.799616112902    -0.809811053575     1.007825032230
         H            0.417225850236    -2.795616112902    -1.588811053575     1.007825032230
         H           -2.043774149764    -2.082616112902    -2.182811053575     1.007825032230
         H           -2.670774149764     1.336383887098    -0.789811053575     1.007825032230
         H           -3.348774149764     0.242383887098    -1.997811053575     1.007825032230
         H           -2.289253149764     1.568769887098    -2.534921053575     1.007825032230

  Running in c1 symmetry.

  Rotational constants: A =      0.07809  B =      0.02114  C =      0.01783 [cm^-1]
  Rotational constants: A =   2341.00567  B =    633.84415  C =    534.50068 [MHz]
  Nuclear repulsion =  425.213424006890364

  Charge       = 0
  Multiplicity = 1
  Electrons    = 70
  Nalpha       = 35
  Nbeta        = 35

  ==> Algorithm <==

  SCF Algorithm Type is PK.
  DIIS enabled.
  MOM disabled.
  Fractional occupation disabled.
  Guess Type is SAD.
  Energy threshold   = 1.00e-06
  Density threshold  = 1.00e-10
  Integral threshold = 0.00e+00

  ==> Primary Basis <==

  Basis Set: CC-PVDZ
    Blend: CC-PVDZ
    Number of shells: 96
    Number of basis function: 196
    Number of Cartesian functions: 205
    Spherical Harmonics?: true
    Max angular momentum: 2

  ==> Pre-Iterations <==

   -------------------------------------------------------
    Irrep   Nso     Nmo     Nalpha   Nbeta   Ndocc  Nsocc
   -------------------------------------------------------
     A        196     196       0       0       0       0
   -------------------------------------------------------
    Total     196     196      35      35      35       0
   -------------------------------------------------------

  ==> Integral Setup <==

  Using integral reordering PK algorithm.
  Sizing the integral batches needed.
  Building batch lookup table.
   Calculation information:
      Number of atoms:                  23
      Number of AO shells:              96
      Number of primitives:            268
      Number of atomic orbitals:       205
      Number of basis functions:       196

      Integral cutoff                 1.00e-12
      Number of threads:                 1

	Batch   1 pq = [       0,    9405] index = [             0,44231715] size =     44231715
	Batch   2 pq = [    9405,   13301] index = [      44231715,88464951] size =     44233236
	Batch   3 pq = [   13301,   16290] index = [      88464951,132690195] size =     44225244
	Batch   4 pq = [   16290,   18810] index = [     132690195,176917455] size =     44227260
	Batch   5 pq = [   18810,   19306] index = [     176917455,186370471] size =      9453016
  Task number: 17
  Buffer size: 11059200
  Buffer per thread: 2
  We computed 8657193 shell quartets total.
  Whereas there are 10841496 unique shell quartets.

  ==> DiskJK: Disk-Based J/K Matrices <==

    J tasked:                  Yes
    K tasked:                  Yes
    wK tasked:                  No
    Memory [MiB]:              375
    Schwarz Cutoff:          1E-12

    OpenMP threads:              1

  Minimum eigenvalue in the overlap matrix is 1.2299190170E-03.
  Using Symmetric Orthogonalization.

  SCF Guess: Superposition of Atomic Densities via on-the-fly atomic UHF.

  ==> Iterations <==

                        Total Energy        Delta E     RMS |[F,P]|

   @RHF iter SAD:  -381.25012608336903   -3.81250e+02   0.00000e+00
   @RHF iter   1:  -381.88266509651191   -6.32539e-01   3.17716e-03 DIIS
   @RHF iter   2:  -382.08415210184455   -2.01487e-01   1.60840e-03 DIIS
   @RHF iter   3:  -382.13182650135127   -4.76744e-02   4.00260e-04 DIIS
   @RHF iter   4:  -382.13569879428564   -3.87229e-03   1.73548e-04 DIIS
   @RHF iter   5:  -382.13634549211241   -6.46698e-04   2.54958e-05 DIIS
   @RHF iter   6:  -382.13636933455496   -2.38424e-05   1.03590e-05 DIIS
   @RHF iter   7:  -382.13637313189054   -3.79734e-06   3.63373e-06 DIIS
   @RHF iter   8:  -382.13637389160328   -7.59713e-07   1.54553e-06 DIIS
   @RHF iter   9:  -382.13637407045667   -1.78853e-07   5.59736e-07 DIIS
   @RHF iter  10:  -382.13637409081838   -2.03617e-08   1.65468e-07 DIIS
   @RHF iter  11:  -382.13637409293386   -2.11548e-09   7.08416e-08 DIIS
   @RHF iter  12:  -382.13637409319682   -2.62958e-10   3.03047e-08 DIIS
   @RHF iter  13:  -382.13637409324122   -4.43947e-11   9.24005e-09 DIIS
   @RHF iter  14:  -382.13637409324934   -8.12861e-12   2.91764e-09 DIIS
   @RHF iter  15:  -382.13637409324883    5.11591e-13   1.13506e-09 DIIS
   @RHF iter  16:  -382.13637409324872    1.13687e-13   4.17821e-10 DIIS
   @RHF iter  17:  -382.13637409324713    1.59162e-12   1.43320e-10 DIIS
   @RHF iter  18:  -382.13637409324696    1.70530e-13   4.29215e-11 DIIS
  Energy and wave function converged.

  ==> Post-Iterations <==

    Orbital Energies [Eh]
    ---------------------

    Doubly Occupied:

       1A    -15.622092     2A    -15.529605     3A    -11.294527
       4A    -11.252567     5A    -11.244172     6A    -11.226957
       7A    -11.205949     8A    -11.203777     9A    -11.200478
      10A     -1.341152    11A     -1.152233    12A     -1.050798
      13A     -1.030745    14A     -0.940912    15A     -0.914597
      16A     -0.817762    17A     -0.784027    18A     -0.762108
      19A     -0.741828    20A     -0.620124    21A     -0.609779
      22A     -0.603819    23A     -0.596162    24A     -0.588630
      25A     -0.554097    26A     -0.541757    27A     -0.537927
      28A     -0.524441    29A     -0.521537    30A     -0.468633
      31A     -0.455822    32A     -0.447800    33A     -0.408996
      34A     -0.377601    35A     -0.311358

    Virtual:

      36A      0.166536    37A      0.182599    38A      0.192937
      39A      0.198097    40A      0.217094    41A      0.223555
      42A      0.228937    43A      0.241649    44A      0.246901
      45A      0.272854    46A      0.279153    47A      0.286334
      48A      0.293533    49A      0.308992    50A      0.323937
      51A      0.327215    52A      0.379455    53A      0.387402
      54A      0.403499    55A      0.422657    56A      0.450770
      57A      0.476083    58A      0.493988    59A      0.584521
      60A      0.601687    61A      0.605623    62A      0.610151
      63A      0.626036    64A      0.638958    65A      0.644042
      66A      0.654175    67A      0.666023    68A      0.701906
      69A      0.734895    70A      0.751049    71A      0.775670
      72A      0.785319    73A      0.802381    74A      0.810396
      75A      0.823011    76A      0.838702    77A      0.846369
      78A      0.879076    79A      0.882681    80A      0.885000
      81A      0.891927    82A      0.902397    83A      0.910648
      84A      0.911445    85A      0.917355    86A      0.928179
      87A      0.937113    88A      0.941939    89A      0.954260
      90A      0.961691    91A      0.976490    92A      0.980679
      93A      0.992617    94A      1.027786    95A      1.065277
      96A      1.098215    97A      1.106320    98A      1.113285
      99A      1.126753   100A      1.133877   101A      1.144047
     102A      1.207188   103A      1.223648   104A      1.253667
     105A      1.265889   106A      1.315724   107A      1.328035
     108A      1.331350   109A      1.419402   110A      1.429121
     111A      1.440230   112A      1.482131   113A      1.490833
     114A      1.503382   115A      1.521218   116A      1.561922
     117A      1.568875   118A      1.598026   119A      1.627243
     120A      1.654245   121A      1.656843   122A      1.683861
     123A      1.699913   124A      1.709270   125A      1.720302
     126A      1.781071   127A      1.804855   128A      1.815588
     129A      1.854904   130A      1.862082   131A      1.885915
     132A      1.896565   133A      1.902212   134A      1.920050
     135A      1.933526   136A      1.943908   137A      1.954060
     138A      1.960292   139A      1.966723   140A      1.969301
     141A      1.978037   142A      1.990526   143A      1.993926
     144A      1.995778   145A      2.028584   146A      2.029398
     147A      2.048160   148A      2.087737   149A      2.108237
     150A      2.112538   151A      2.119501   152A      2.128005
     153A      2.173925   154A      2.202900   155A      2.211523
     156A      2.221441   157A      2.288798   158A      2.299101
     159A      2.310268   160A      2.334663   161A      2.351201
     162A      2.389953   163A      2.403143   164A      2.438776
     165A      2.445735   166A      2.466635   167A      2.484681
     168A      2.539120   169A      2.548095   170A      2.559351
     171A      2.603961   172A      2.628051   173A      2.683493
     174A      2.691896   175A      2.735494   176A      2.745228
     177A      2.774398   178A      2.780182   179A      2.788841
     180A      2.793453   181A      2.799929   182A      2.812766
     183A      2.830586   184A      2.858790   185A      2.889237
     186A      2.900754   187A      2.909558   188A      2.944743
     189A      2.955975   190A      2.972830   191A      3.061934
     192A      3.100873   193A      3.157517   194A      3.231230
     195A      3.463155   196A      3.787361

    Final Occupation by Irrep:
              A
    DOCC [    35 ]

  @RHF Final Energy:  -382.13637409324696

   => Energetics <=

    Nuclear Repulsion Energy =            425.2134240068903637
    One-Electron Energy =               -1359.7300536726429527
    Two-Electron Energy =                 552.3802555725056891
    Total Energy =                       -382.1363740932469000

Computation Completed

Properties will be evaluated at   0.000000,   0.000000,   0.000000 [a0]

Properties computed using the SCF density matrix

  Nuclear Dipole Moment: [e a0]
     X:     2.8917      Y:     5.0238      Z:    11.7867

  Electronic Dipole Moment: [e a0]
     X:    -2.8616      Y:    -6.3595      Z:   -12.1704

  Dipole Moment: [e a0]
     X:     0.0301      Y:    -1.3357      Z:    -0.3837     Total:     1.3900

  Dipole Moment: [D]
     X:     0.0766      Y:    -3.3950      Z:    -0.9754     Total:     3.5331

*** tstop() called on ds3 at Mon Apr 27 16:35:12 2020
Module time:
	user time   =      66.38 seconds =       1.11 minutes
	system time =      32.94 seconds =       0.55 minutes
	total time  =         97 seconds =       1.62 minutes
Total time:
	user time   =      66.38 seconds =       1.11 minutes
	system time =      32.94 seconds =       0.55 minutes
	total time  =         97 seconds =       1.62 minutes
                                     G D M A

                                 by Anthony Stone

                           version 2.2.06, 22 June 2011

               Distributed Multipoles from Gaussian wavefunctions

Starting at 16:35:12 on 27 Apr 2020

Using SCF density matrix from file ./SSI/SSI-039LYS-043HIE-1-dimer.test.27231.fchk

                         Distributed Multipole Analysis

Standard DMA

Positions and radii in angstrom
Multipole moments in atomic units, ea_0^k for rank k

C          x =  0.987226  y =  0.920384  z =  2.323189 angstrom
           Maximum rank =  0   Radius =  0.650 angstrom
                   Q00  =  -0.072334

C          x =  1.281226  y =  2.226384  z =  3.057189 angstrom
           Maximum rank =  0   Radius =  0.650 angstrom
                   Q00  =  -0.242005

C          x =  1.754226  y = -0.213616  z =  2.909189 angstrom
           Maximum rank =  0   Radius =  0.650 angstrom
                   Q00  =  -0.225835

H          x = -0.084774  y =  0.712384  z =  2.304189 angstrom
           Maximum rank =  0   Radius =  0.325 angstrom
                   Q00  =   0.052430

H          x =  1.328226  y =  1.033384  z =  1.293189 angstrom
           Maximum rank =  0   Radius =  0.325 angstrom
                   Q00  =   0.054497

H          x =  2.339226  y =  2.259384  z =  3.317189 angstrom
           Maximum rank =  0   Radius =  0.325 angstrom
                   Q00  =   0.066576

H          x =  0.710226  y =  2.264384  z =  3.985189 angstrom
           Maximum rank =  0   Radius =  0.325 angstrom
                   Q00  =   0.070954

H          x =  1.945226  y = -0.956616  z =  2.131189 angstrom
           Maximum rank =  0   Radius =  0.325 angstrom
                   Q00  =   0.069630

H          x =  2.731226  y =  0.119384  z =  3.268189 angstrom
           Maximum rank =  0   Radius =  0.325 angstrom
                   Q00  =   0.068259

H          x =  1.082295  y =  3.106439  z =  2.427960 angstrom
           Maximum rank =  0   Radius =  0.325 angstrom
                   Q00  =   0.084779

H          x =  1.186062  y = -0.654458  z =  3.741559 angstrom
           Maximum rank =  0   Radius =  0.325 angstrom
                   Q00  =   0.070124

C          x = -2.468774  y =  0.833384  z = -1.736811 angstrom
           Maximum rank =  0   Radius =  0.650 angstrom
                   Q00  =  -0.189329

C          x =  0.740226  y = -0.794616  z = -1.111811 angstrom
           Maximum rank =  0   Radius =  0.650 angstrom
                   Q00  =   0.461889

C          x = -1.308774  y = -0.119616  z = -1.576811 angstrom
           Maximum rank =  0   Radius =  0.650 angstrom
                   Q00  =   0.222882

C          x = -1.236774  y = -1.455616  z = -1.822811 angstrom
           Maximum rank =  0   Radius =  0.650 angstrom
                   Q00  =  -0.001401

N          x = -0.055774  y =  0.270384  z = -1.133811 angstrom
           Maximum rank =  0   Radius =  0.650 angstrom
                   Q00  =  -0.772632

N          x =  0.049226  y = -1.852616  z = -1.519811 angstrom
           Maximum rank =  0   Radius =  0.650 angstrom
                   Q00  =  -0.479512

H          x =  1.782226  y = -0.799616  z = -0.809811 angstrom
           Maximum rank =  0   Radius =  0.325 angstrom
                   Q00  =   0.124306

H          x =  0.417226  y = -2.795616  z = -1.588811 angstrom
           Maximum rank =  0   Radius =  0.325 angstrom
                   Q00  =   0.219894

H          x = -2.043774  y = -2.082616  z = -2.182811 angstrom
           Maximum rank =  0   Radius =  0.325 angstrom
                   Q00  =   0.103451

H          x = -2.670774  y =  1.336384  z = -0.789811 angstrom
           Maximum rank =  0   Radius =  0.325 angstrom
                   Q00  =   0.113342

H          x = -3.348774  y =  0.242384  z = -1.997811 angstrom
           Maximum rank =  0   Radius =  0.325 angstrom
                   Q00  =   0.090071

H          x = -2.289253  y =  1.568770  z = -2.534921 angstrom
           Maximum rank =  0   Radius =  0.325 angstrom
                   Q00  =   0.109966

Total multipoles referred to origin at
           x =   0.000000,  y =    0.000000,  z =    0.000000 angstrom
                   Q00  =  -0.000000

Finished at 16:35:12 on 27 Apr 2020

  DMA results are available in the Python driver through the
	  variable('DMA DISTRIBUTED MULTIPOLES')
  and
	  variable('DMA TOTAL MULTIPOLES')
  commands.

    Psi4 stopped on: Monday, 27 April 2020 04:35PM
    Psi4 wall time for execution: 0:01:36.81

*** Psi4 exiting successfully. Buy a developer a beer!
