                               Psi4 1.3.2 release

  ==> Input File <==

--------------------------------------------------------------------------
import numpy as np
set {scf_type pk
basis cc-pvdz
d_convergence 10
gdma_switch   0
gdma_limit    0
gdma_origin   [ 0.0,  0.0,  0.0 ]
}
molecule test {
    units Angstrom
    0 1
    --
    0 1
    C               -2.463761595414284    -0.165797727826442     1.679098548110355
    C               -2.364761595414284    -0.481797727826442     0.199098548110355
    O               -2.875761595414284     0.240202272173558    -0.661901451889645
    N               -1.689761595414284    -1.591797727826442    -0.092901451889645
    H               -2.124761595414284     0.857202272173558     1.823098548110355
    H               -1.755761595414284    -0.806797727826442     2.200098548110355
    H               -1.618761595414284    -1.867797727826442    -1.060901451889645
    H               -1.414761595414284    -2.230797727826442     0.647098548110355
    H               -3.479081595414284    -0.252804727826442     2.093278548110355
    C                1.027238404585716     1.024202272173558     0.077098548110355
    C                1.343238404585716     1.863202272173558     1.296098548110355
    C                1.854238404585716    -0.620797727826442    -1.860901451889645
    S                2.401238404585716    -0.085797727826442    -0.256901451889645
    H                0.124238404585716     0.445202272173558     0.251098548110355
    H                0.875238404585716     1.673202272173558    -0.784901451889645
    H                2.319238404585716     2.332202272173558     1.168098548110355
    H                1.404238404585716     1.191202272173558     2.153098548110355
    H                1.570238404585716     0.219202272173558    -2.482901451889645
    H                2.656238404585716    -1.170797727826442    -2.352901451889645
    H                0.991238404585716    -1.276797727826442    -1.747901451889645
    H                0.583978404585716     2.636932272173558     1.482838548110355

}
e, wfn = energy('scf', return_wfn=True)
gdma(wfn)
dmavals = variable('DMA DISTRIBUTED MULTIPOLES')
charges = np.array(dmavals)
print(charges)
np.save('SSI-010GLN-022MET-1-dimer.npy', np.array(charges))--------------------------------------------------------------------------

*** tstart() called on ds3
*** at Tue Apr 28 19:51:46 2020

   => Loading Basis Set <=

    Name: CC-PVDZ
    Role: ORBITAL
    Keyword: BASIS
    atoms 1-2, 10-12 entry C          line   138 file /theoryfs2/ds/metcalf/miniconda2/envs/tf2gpu/share/psi4/basis/cc-pvdz.gbs
    atoms 3          entry O          line   198 file /theoryfs2/ds/metcalf/miniconda2/envs/tf2gpu/share/psi4/basis/cc-pvdz.gbs
    atoms 4          entry N          line   168 file /theoryfs2/ds/metcalf/miniconda2/envs/tf2gpu/share/psi4/basis/cc-pvdz.gbs
    atoms 5-9, 14-21 entry H          line    22 file /theoryfs2/ds/metcalf/miniconda2/envs/tf2gpu/share/psi4/basis/cc-pvdz.gbs
    atoms 13         entry S          line   598 file /theoryfs2/ds/metcalf/miniconda2/envs/tf2gpu/share/psi4/basis/cc-pvdz.gbs

         ---------------------------------------------------------
                                   SCF
               by Justin Turney, Rob Parrish, Andy Simmonett
                          and Daniel G. A. Smith
                              RHF Reference
                        1 Threads,    500 MiB Core
         ---------------------------------------------------------

  ==> Geometry <==

    Molecular point group: c1
    Full point group: C1

    Geometry (in Angstrom), charge = 0, multiplicity = 1:

       Center              X                  Y                   Z               Mass
    ------------   -----------------  -----------------  -----------------  -----------------
         C           -2.463761595414    -0.165797727826     1.679098548110    12.000000000000
         C           -2.364761595414    -0.481797727826     0.199098548110    12.000000000000
         O           -2.875761595414     0.240202272174    -0.661901451890    15.994914619570
         N           -1.689761595414    -1.591797727826    -0.092901451890    14.003074004430
         H           -2.124761595414     0.857202272174     1.823098548110     1.007825032230
         H           -1.755761595414    -0.806797727826     2.200098548110     1.007825032230
         H           -1.618761595414    -1.867797727826    -1.060901451890     1.007825032230
         H           -1.414761595414    -2.230797727826     0.647098548110     1.007825032230
         H           -3.479081595414    -0.252804727826     2.093278548110     1.007825032230
         C            1.027238404586     1.024202272174     0.077098548110    12.000000000000
         C            1.343238404586     1.863202272174     1.296098548110    12.000000000000
         C            1.854238404586    -0.620797727826    -1.860901451890    12.000000000000
         S            2.401238404586    -0.085797727826    -0.256901451890    31.972071174400
         H            0.124238404586     0.445202272174     0.251098548110     1.007825032230
         H            0.875238404586     1.673202272174    -0.784901451890     1.007825032230
         H            2.319238404586     2.332202272174     1.168098548110     1.007825032230
         H            1.404238404586     1.191202272174     2.153098548110     1.007825032230
         H            1.570238404586     0.219202272174    -2.482901451890     1.007825032230
         H            2.656238404586    -1.170797727826    -2.352901451890     1.007825032230
         H            0.991238404586    -1.276797727826    -1.747901451890     1.007825032230
         H            0.583978404586     2.636932272174     1.482838548110     1.007825032230

  Running in c1 symmetry.

  Rotational constants: A =      0.06793  B =      0.02410  C =      0.02036 [cm^-1]
  Rotational constants: A =   2036.36861  B =    722.44438  C =    610.51828 [MHz]
  Nuclear repulsion =  448.527250160366464

  Charge       = 0
  Multiplicity = 1
  Electrons    = 74
  Nalpha       = 37
  Nbeta        = 37

  ==> Algorithm <==

  SCF Algorithm Type is PK.
  DIIS enabled.
  MOM disabled.
  Fractional occupation disabled.
  Guess Type is SAD.
  Energy threshold   = 1.00e-06
  Density threshold  = 1.00e-10
  Integral threshold = 0.00e+00

  ==> Primary Basis <==

  Basis Set: CC-PVDZ
    Blend: CC-PVDZ
    Number of shells: 89
    Number of basis function: 181
    Number of Cartesian functions: 189
    Spherical Harmonics?: true
    Max angular momentum: 2

  ==> Pre-Iterations <==

   -------------------------------------------------------
    Irrep   Nso     Nmo     Nalpha   Nbeta   Ndocc  Nsocc
   -------------------------------------------------------
     A        181     181       0       0       0       0
   -------------------------------------------------------
    Total     181     181      37      37      37       0
   -------------------------------------------------------

  ==> Integral Setup <==

  Using integral reordering PK algorithm.
  Sizing the integral batches needed.
  Building batch lookup table.
   Calculation information:
      Number of atoms:                  21
      Number of AO shells:              89
      Number of primitives:            269
      Number of atomic orbitals:       189
      Number of basis functions:       181

      Integral cutoff                 1.00e-12
      Number of threads:                 1

	Batch   1 pq = [       0,    9405] index = [             0,44231715] size =     44231715
	Batch   2 pq = [    9405,   13301] index = [      44231715,88464951] size =     44233236
	Batch   3 pq = [   13301,   16471] index = [      88464951,135655156] size =     47190205
  Task number: 13
  Buffer size: 11059200
  Buffer per thread: 2
  We computed 7079319 shell quartets total.
  Whereas there are 8022015 unique shell quartets.

  ==> DiskJK: Disk-Based J/K Matrices <==

    J tasked:                  Yes
    K tasked:                  Yes
    wK tasked:                  No
    Memory [MiB]:              375
    Schwarz Cutoff:          1E-12

    OpenMP threads:              1

  Minimum eigenvalue in the overlap matrix is 3.9350337120E-03.
  Using Symmetric Orthogonalization.

  SCF Guess: Superposition of Atomic Densities via on-the-fly atomic UHF.

  ==> Iterations <==

                        Total Energy        Delta E     RMS |[F,P]|

   @RHF iter SAD:  -722.58515160995546   -7.22585e+02   0.00000e+00
   @RHF iter   1:  -723.53605104825988   -9.50899e-01   3.62126e-03 DIIS
   @RHF iter   2:  -723.72852998445217   -1.92479e-01   1.99759e-03 DIIS
   @RHF iter   3:  -723.77863312424358   -5.01031e-02   4.60316e-04 DIIS
   @RHF iter   4:  -723.78279531198405   -4.16219e-03   1.74268e-04 DIIS
   @RHF iter   5:  -723.78343530502821   -6.39993e-04   2.89535e-05 DIIS
   @RHF iter   6:  -723.78346897668951   -3.36717e-05   1.31617e-05 DIIS
   @RHF iter   7:  -723.78347473274334   -5.75605e-06   5.09042e-06 DIIS
   @RHF iter   8:  -723.78347600834650   -1.27560e-06   1.75988e-06 DIIS
   @RHF iter   9:  -723.78347616676547   -1.58419e-07   4.40187e-07 DIIS
   @RHF iter  10:  -723.78347617501640   -8.25094e-09   1.50203e-07 DIIS
   @RHF iter  11:  -723.78347617584177   -8.25366e-10   3.77051e-08 DIIS
   @RHF iter  12:  -723.78347617589498   -5.32054e-11   1.12495e-08 DIIS
   @RHF iter  13:  -723.78347617589611   -1.13687e-12   3.33191e-09 DIIS
   @RHF iter  14:  -723.78347617590066   -4.54747e-12   1.13811e-09 DIIS
   @RHF iter  15:  -723.78347617590077   -1.13687e-13   4.25243e-10 DIIS
   @RHF iter  16:  -723.78347617589964    1.13687e-12   1.91189e-10 DIIS
   @RHF iter  17:  -723.78347617589952    1.13687e-13   8.27905e-11 DIIS
  Energy and wave function converged.

  ==> Post-Iterations <==

    Orbital Energies [Eh]
    ---------------------

    Doubly Occupied:

       1A    -91.931708     2A    -20.509732     3A    -15.596880
       4A    -11.354465     5A    -11.251271     6A    -11.250720
       7A    -11.246727     8A    -11.227717     9A     -8.936670
      10A     -6.618724    11A     -6.617163    12A     -6.614872
      13A     -1.368687    14A     -1.222579    15A     -1.087120
      16A     -1.005860    17A     -1.002305    18A     -0.874142
      19A     -0.804018    20A     -0.790051    21A     -0.732651
      22A     -0.657748    23A     -0.637464    24A     -0.613699
      25A     -0.598739    26A     -0.587711    27A     -0.579141
      28A     -0.573858    29A     -0.563816    30A     -0.528589
      31A     -0.517493    32A     -0.501544    33A     -0.473567
      34A     -0.429548    35A     -0.415374    36A     -0.408733
      37A     -0.331226

    Virtual:

      38A      0.149901    39A      0.164776    40A      0.186376
      41A      0.197695    42A      0.213726    43A      0.219515
      44A      0.236503    45A      0.245056    46A      0.248825
      47A      0.261657    48A      0.268529    49A      0.285680
      50A      0.300618    51A      0.306648    52A      0.311325
      53A      0.331565    54A      0.375575    55A      0.384247
      56A      0.454917    57A      0.544323    58A      0.555759
      59A      0.574803    60A      0.600594    61A      0.610377
      62A      0.628463    63A      0.641380    64A      0.653340
      65A      0.663952    66A      0.676063    67A      0.701839
      68A      0.709124    69A      0.712027    70A      0.739031
      71A      0.749874    72A      0.776407    73A      0.809245
      74A      0.823721    75A      0.831007    76A      0.841604
      77A      0.864140    78A      0.866868    79A      0.881627
      80A      0.887948    81A      0.894122    82A      0.897038
      83A      0.902616    84A      0.921327    85A      0.922409
      86A      0.926828    87A      0.936741    88A      0.955757
      89A      0.958282    90A      0.983624    91A      0.987003
      92A      1.004105    93A      1.024548    94A      1.069548
      95A      1.090177    96A      1.126169    97A      1.129705
      98A      1.222738    99A      1.280641   100A      1.294906
     101A      1.324753   102A      1.336537   103A      1.350806
     104A      1.361179   105A      1.378400   106A      1.381744
     107A      1.405195   108A      1.420581   109A      1.429092
     110A      1.443601   111A      1.484472   112A      1.509749
     113A      1.522510   114A      1.611761   115A      1.644481
     116A      1.658740   117A      1.675712   118A      1.683520
     119A      1.696167   120A      1.717199   121A      1.810838
     122A      1.839394   123A      1.852680   124A      1.870564
     125A      1.878679   126A      1.890692   127A      1.899364
     128A      1.900963   129A      1.917335   130A      1.923448
     131A      1.935521   132A      1.950688   133A      1.961609
     134A      1.978370   135A      1.992873   136A      1.995045
     137A      2.019619   138A      2.028787   139A      2.054340
     140A      2.056717   141A      2.094179   142A      2.106660
     143A      2.119377   144A      2.146943   145A      2.211283
     146A      2.223598   147A      2.254009   148A      2.292609
     149A      2.308365   150A      2.329766   151A      2.412162
     152A      2.422475   153A      2.432145   154A      2.453160
     155A      2.476201   156A      2.509429   157A      2.515458
     158A      2.554363   159A      2.580497   160A      2.582834
     161A      2.629537   162A      2.753214   163A      2.768106
     164A      2.771146   165A      2.785547   166A      2.791841
     167A      2.797765   168A      2.813372   169A      2.833791
     170A      2.838591   171A      2.854529   172A      2.908687
     173A      2.966119   174A      3.007496   175A      3.087587
     176A      3.119564   177A      3.268567   178A      3.488169
     179A      3.515456   180A      3.846485   181A      3.890309

    Final Occupation by Irrep:
              A
    DOCC [    37 ]

  @RHF Final Energy:  -723.78347617589952

   => Energetics <=

    Nuclear Repulsion Energy =            448.5272501603664637
    One-Electron Energy =               -1883.6968265162181524
    Two-Electron Energy =                 711.3861001799521091
    Total Energy =                       -723.7834761758995228

Computation Completed

Properties will be evaluated at   0.000000,   0.000000,   0.000000 [a0]

Properties computed using the SCF density matrix

  Nuclear Dipole Moment: [e a0]
     X:     0.1778      Y:     1.6435      Z:     3.1676

  Electronic Dipole Moment: [e a0]
     X:    -0.0914      Y:    -2.6413      Z:    -2.5582

  Dipole Moment: [e a0]
     X:     0.0864      Y:    -0.9978      Z:     0.6094     Total:     1.1724

  Dipole Moment: [D]
     X:     0.2196      Y:    -2.5361      Z:     1.5489     Total:     2.9798

*** tstop() called on ds3 at Tue Apr 28 19:52:59 2020
Module time:
	user time   =      53.91 seconds =       0.90 minutes
	system time =      20.32 seconds =       0.34 minutes
	total time  =         73 seconds =       1.22 minutes
Total time:
	user time   =      53.91 seconds =       0.90 minutes
	system time =      20.32 seconds =       0.34 minutes
	total time  =         73 seconds =       1.22 minutes
                                     G D M A

                                 by Anthony Stone

                           version 2.2.06, 22 June 2011

               Distributed Multipoles from Gaussian wavefunctions

Starting at 19:52:59 on 28 Apr 2020

Using SCF density matrix from file ./SSI/SSI-010GLN-022MET-1-dimer.test.11800.fchk

                         Distributed Multipole Analysis

Standard DMA

Positions and radii in angstrom
Multipole moments in atomic units, ea_0^k for rank k

C          x = -2.463762  y = -0.165798  z =  1.679099 angstrom
           Maximum rank =  0   Radius =  0.650 angstrom
                   Q00  =  -0.263320

C          x = -2.364762  y = -0.481798  z =  0.199099 angstrom
           Maximum rank =  0   Radius =  0.650 angstrom
                   Q00  =   0.800349

O          x = -2.875762  y =  0.240202  z = -0.661901 angstrom
           Maximum rank =  0   Radius =  0.650 angstrom
                   Q00  =  -0.785776

N          x = -1.689762  y = -1.591798  z = -0.092901 angstrom
           Maximum rank =  0   Radius =  0.650 angstrom
                   Q00  =  -0.515769

H          x = -2.124762  y =  0.857202  z =  1.823099 angstrom
           Maximum rank =  0   Radius =  0.325 angstrom
                   Q00  =   0.131152

H          x = -1.755762  y = -0.806798  z =  2.200099 angstrom
           Maximum rank =  0   Radius =  0.325 angstrom
                   Q00  =   0.073130

H          x = -1.618762  y = -1.867798  z = -1.060901 angstrom
           Maximum rank =  0   Radius =  0.325 angstrom
                   Q00  =   0.220397

H          x = -1.414762  y = -2.230798  z =  0.647099 angstrom
           Maximum rank =  0   Radius =  0.325 angstrom
                   Q00  =   0.213062

H          x = -3.479082  y = -0.252805  z =  2.093279 angstrom
           Maximum rank =  0   Radius =  0.325 angstrom
                   Q00  =   0.138035

C          x =  1.027238  y =  1.024202  z =  0.077099 angstrom
           Maximum rank =  0   Radius =  0.650 angstrom
                   Q00  =  -0.208914

C          x =  1.343238  y =  1.863202  z =  1.296099 angstrom
           Maximum rank =  0   Radius =  0.650 angstrom
                   Q00  =  -0.211215

C          x =  1.854238  y = -0.620798  z = -1.860901 angstrom
           Maximum rank =  0   Radius =  0.650 angstrom
                   Q00  =  -0.354331

S          x =  2.401238  y = -0.085798  z = -0.256901 angstrom
           Maximum rank =  0   Radius =  0.650 angstrom
                   Q00  =   0.107221

H          x =  0.124238  y =  0.445202  z =  0.251099 angstrom
           Maximum rank =  0   Radius =  0.325 angstrom
                   Q00  =   0.051844

H          x =  0.875238  y =  1.673202  z = -0.784901 angstrom
           Maximum rank =  0   Radius =  0.325 angstrom
                   Q00  =   0.064908

H          x =  2.319238  y =  2.332202  z =  1.168099 angstrom
           Maximum rank =  0   Radius =  0.325 angstrom
                   Q00  =   0.090144

H          x =  1.404238  y =  1.191202  z =  2.153099 angstrom
           Maximum rank =  0   Radius =  0.325 angstrom
                   Q00  =   0.077979

H          x =  1.570238  y =  0.219202  z = -2.482901 angstrom
           Maximum rank =  0   Radius =  0.325 angstrom
                   Q00  =   0.091527

H          x =  2.656238  y = -1.170798  z = -2.352901 angstrom
           Maximum rank =  0   Radius =  0.325 angstrom
                   Q00  =   0.113914

H          x =  0.991238  y = -1.276798  z = -1.747901 angstrom
           Maximum rank =  0   Radius =  0.325 angstrom
                   Q00  =   0.070673

H          x =  0.583978  y =  2.636932  z =  1.482839 angstrom
           Maximum rank =  0   Radius =  0.325 angstrom
                   Q00  =   0.094990

Total multipoles referred to origin at
           x =   0.000000,  y =    0.000000,  z =    0.000000 angstrom
                   Q00  =  -0.000000

Finished at 19:52:59 on 28 Apr 2020

  DMA results are available in the Python driver through the
	  variable('DMA DISTRIBUTED MULTIPOLES')
  and
	  variable('DMA TOTAL MULTIPOLES')
  commands.

    Psi4 stopped on: Tuesday, 28 April 2020 07:52PM
    Psi4 wall time for execution: 0:01:12.82

*** Psi4 exiting successfully. Buy a developer a beer!
