                               Psi4 1.3.2 release

  ==> Input File <==

--------------------------------------------------------------------------
import numpy as np
set {scf_type pk
basis cc-pvdz
d_convergence 10
gdma_switch   0
gdma_limit    0
gdma_origin   [ 0.0,  0.0,  0.0 ]
}
molecule test {
    units Angstrom
    0 1
    --
    0 1
    C               -1.523264376212053     1.521184342716739    -0.563034948610029
    C               -2.990264376212053     1.837184342716739    -0.870034948610029
    C               -1.312264376212053     0.544184342716739     0.569965051389971
    C               -1.423264376212053    -0.827815657283261     0.354965051389971
    C               -0.997264376212053     1.000184342716739     1.848965051389971
    C               -1.225264376212053    -1.729815657283261     1.394965051389971
    C               -0.798264376212053     0.106184342716739     2.894965051389971
    C               -0.913264376212053    -1.259815657283261     2.665965051389971
    O               -0.719264376212053    -2.137815657283260     3.689965051389971
    H               -1.091264376212053     1.086184342716739    -1.460034948610029
    H               -0.990264376212053     2.446184342716740    -0.339034948610029
    H               -3.505264376212053     0.903184342716739    -1.101034948610029
    H               -1.677264376212053    -1.195815657283261    -0.628034948610029
    H               -0.906264376212053     2.062184342716739     2.033965051389971
    H               -1.312264376212053    -2.791815657283260     1.215965051389971
    H               -0.555264376212053     0.462184342716739     3.884965051389971
    H               -0.841264376212053    -3.052815657283260     3.414965051389971
    H               -3.049174376212053     2.512438342716739    -1.736384248610029
    H               -3.483204376212053     2.294145342716739     0.000709051389971
    C                1.232735623787947     0.618184342716739    -2.925034948610029
    C                3.474735623787947    -0.909815657283261    -3.012034948610029
    S                2.916735623787947     0.641184342716739    -2.314034948610029
    H                0.729735623787947    -0.297815657283261    -2.612034948610029
    H                0.713735623787947     1.472184342716739    -2.497034948610029
    H                1.199735623787947     0.717184342716739    -4.009034948610029
    H                3.067735623787947    -1.713815657283261    -2.417034948610029
    H                4.551735623787946    -0.942815657283261    -2.955034948610029
    H                3.138415623787947    -1.087399657283260    -4.044193948610030

}
e, wfn = energy('scf', return_wfn=True)
gdma(wfn)
dmavals = variable('DMA DISTRIBUTED MULTIPOLES')
charges = np.array(dmavals)
print(charges)
np.save('SSI-168TYR-224MET-1-dimer.npy', np.array(charges))--------------------------------------------------------------------------

*** tstart() called on ds3
*** at Mon Apr 27 16:42:34 2020

   => Loading Basis Set <=

    Name: CC-PVDZ
    Role: ORBITAL
    Keyword: BASIS
    atoms 1-8, 20-21   entry C          line   138 file /theoryfs2/ds/metcalf/miniconda2/envs/tf2gpu/share/psi4/basis/cc-pvdz.gbs
    atoms 9            entry O          line   198 file /theoryfs2/ds/metcalf/miniconda2/envs/tf2gpu/share/psi4/basis/cc-pvdz.gbs
    atoms 10-19, 23-28 entry H          line    22 file /theoryfs2/ds/metcalf/miniconda2/envs/tf2gpu/share/psi4/basis/cc-pvdz.gbs
    atoms 22           entry S          line   598 file /theoryfs2/ds/metcalf/miniconda2/envs/tf2gpu/share/psi4/basis/cc-pvdz.gbs

         ---------------------------------------------------------
                                   SCF
               by Justin Turney, Rob Parrish, Andy Simmonett
                          and Daniel G. A. Smith
                              RHF Reference
                        1 Threads,    500 MiB Core
         ---------------------------------------------------------

  ==> Geometry <==

    Molecular point group: c1
    Full point group: C1

    Geometry (in Angstrom), charge = 0, multiplicity = 1:

       Center              X                  Y                   Z               Mass
    ------------   -----------------  -----------------  -----------------  -----------------
         C           -1.523264376212     1.521184342717    -0.563034948610    12.000000000000
         C           -2.990264376212     1.837184342717    -0.870034948610    12.000000000000
         C           -1.312264376212     0.544184342717     0.569965051390    12.000000000000
         C           -1.423264376212    -0.827815657283     0.354965051390    12.000000000000
         C           -0.997264376212     1.000184342717     1.848965051390    12.000000000000
         C           -1.225264376212    -1.729815657283     1.394965051390    12.000000000000
         C           -0.798264376212     0.106184342717     2.894965051390    12.000000000000
         C           -0.913264376212    -1.259815657283     2.665965051390    12.000000000000
         O           -0.719264376212    -2.137815657283     3.689965051390    15.994914619570
         H           -1.091264376212     1.086184342717    -1.460034948610     1.007825032230
         H           -0.990264376212     2.446184342717    -0.339034948610     1.007825032230
         H           -3.505264376212     0.903184342717    -1.101034948610     1.007825032230
         H           -1.677264376212    -1.195815657283    -0.628034948610     1.007825032230
         H           -0.906264376212     2.062184342717     2.033965051390     1.007825032230
         H           -1.312264376212    -2.791815657283     1.215965051390     1.007825032230
         H           -0.555264376212     0.462184342717     3.884965051390     1.007825032230
         H           -0.841264376212    -3.052815657283     3.414965051390     1.007825032230
         H           -3.049174376212     2.512438342717    -1.736384248610     1.007825032230
         H           -3.483204376212     2.294145342717     0.000709051390     1.007825032230
         C            1.232735623788     0.618184342717    -2.925034948610    12.000000000000
         C            3.474735623788    -0.909815657283    -3.012034948610    12.000000000000
         S            2.916735623788     0.641184342717    -2.314034948610    31.972071174400
         H            0.729735623788    -0.297815657283    -2.612034948610     1.007825032230
         H            0.713735623788     1.472184342717    -2.497034948610     1.007825032230
         H            1.199735623788     0.717184342717    -4.009034948610     1.007825032230
         H            3.067735623788    -1.713815657283    -2.417034948610     1.007825032230
         H            4.551735623788    -0.942815657283    -2.955034948610     1.007825032230
         H            3.138415623788    -1.087399657283    -4.044193948610     1.007825032230

  Running in c1 symmetry.

  Rotational constants: A =      0.02872  B =      0.01087  C =      0.00882 [cm^-1]
  Rotational constants: A =    860.99772  B =    326.01847  C =    264.39901 [MHz]
  Nuclear repulsion =  732.603635481840229

  Charge       = 0
  Multiplicity = 1
  Electrons    = 100
  Nalpha       = 50
  Nbeta        = 50

  ==> Algorithm <==

  SCF Algorithm Type is PK.
  DIIS enabled.
  MOM disabled.
  Fractional occupation disabled.
  Guess Type is SAD.
  Energy threshold   = 1.00e-06
  Density threshold  = 1.00e-10
  Integral threshold = 0.00e+00

  ==> Primary Basis <==

  Basis Set: CC-PVDZ
    Blend: CC-PVDZ
    Number of shells: 122
    Number of basis function: 252
    Number of Cartesian functions: 264
    Spherical Harmonics?: true
    Max angular momentum: 2

  ==> Pre-Iterations <==

   -------------------------------------------------------
    Irrep   Nso     Nmo     Nalpha   Nbeta   Ndocc  Nsocc
   -------------------------------------------------------
     A        252     252       0       0       0       0
   -------------------------------------------------------
    Total     252     252      50      50      50       0
   -------------------------------------------------------

  ==> Integral Setup <==

  Using integral reordering PK algorithm.
  Sizing the integral batches needed.
  Building batch lookup table.
   Calculation information:
      Number of atoms:                  28
      Number of AO shells:             122
      Number of primitives:            372
      Number of atomic orbitals:       264
      Number of basis functions:       252

      Integral cutoff                 1.00e-12
      Number of threads:                 1

	Batch   1 pq = [       0,    9405] index = [             0,44231715] size =     44231715
	Batch   2 pq = [    9405,   13301] index = [      44231715,88464951] size =     44233236
	Batch   3 pq = [   13301,   16290] index = [      88464951,132690195] size =     44225244
	Batch   4 pq = [   16290,   18810] index = [     132690195,176917455] size =     44227260
	Batch   5 pq = [   18810,   21030] index = [     176917455,221140965] size =     44223510
	Batch   6 pq = [   21030,   23037] index = [     221140965,265363203] size =     44222238
	Batch   7 pq = [   23037,   24883] index = [     265363203,309594286] size =     44231083
	Batch   8 pq = [   24883,   26601] index = [     309594286,353819901] size =     44225615
	Batch   9 pq = [   26601,   28214] index = [     353819901,398029005] size =     44209104
	Batch  10 pq = [   28214,   29740] index = [     398029005,442248670] size =     44219665
	Batch  11 pq = [   29740,   31191] index = [     442248670,486454836] size =     44206166
	Batch  12 pq = [   31191,   31878] index = [     486454836,508119381] size =     21664545
  Task number: 46
  Buffer size: 11059200
  Buffer per thread: 2
  We computed 22987582 shell quartets total.
  Whereas there are 28151256 unique shell quartets.

  ==> DiskJK: Disk-Based J/K Matrices <==

    J tasked:                  Yes
    K tasked:                  Yes
    wK tasked:                  No
    Memory [MiB]:              375
    Schwarz Cutoff:          1E-12

    OpenMP threads:              1

  Minimum eigenvalue in the overlap matrix is 3.1841946601E-04.
  Using Symmetric Orthogonalization.

  SCF Guess: Superposition of Atomic Densities via on-the-fly atomic UHF.

  ==> Iterations <==

                        Total Energy        Delta E     RMS |[F,P]|

   @RHF iter SAD:  -859.30376992092965   -8.59304e+02   0.00000e+00
   @RHF iter   1:  -860.14544079553343   -8.41671e-01   2.51021e-03 DIIS
   @RHF iter   2:  -860.37648168330327   -2.31041e-01   1.03010e-03 DIIS
   @RHF iter   3:  -860.41082130079292   -3.43396e-02   2.63631e-04 DIIS
   @RHF iter   4:  -860.41424491920509   -3.42362e-03   1.06116e-04 DIIS
   @RHF iter   5:  -860.41466763116773   -4.22712e-04   1.93052e-05 DIIS
   @RHF iter   6:  -860.41468877282671   -2.11417e-05   5.41659e-06 DIIS
   @RHF iter   7:  -860.41469053898527   -1.76616e-06   1.83596e-06 DIIS
   @RHF iter   8:  -860.41469075944019   -2.20455e-07   6.63896e-07 DIIS
   @RHF iter   9:  -860.41469079091939   -3.14792e-08   1.97867e-07 DIIS
   @RHF iter  10:  -860.41469079400895   -3.08955e-09   7.02832e-08 DIIS
   @RHF iter  11:  -860.41469079460978   -6.00835e-10   3.05655e-08 DIIS
   @RHF iter  12:  -860.41469079475792   -1.48134e-10   1.58475e-08 DIIS
   @RHF iter  13:  -860.41469079480260   -4.46789e-11   7.24853e-09 DIIS
   @RHF iter  14:  -860.41469079481396   -1.13687e-11   1.89533e-09 DIIS
   @RHF iter  15:  -860.41469079481794   -3.97904e-12   6.63927e-10 DIIS
   @RHF iter  16:  -860.41469079481146    6.48015e-12   2.59646e-10 DIIS
   @RHF iter  17:  -860.41469079481135    1.13687e-13   1.14661e-10 DIIS
   @RHF iter  18:  -860.41469079481396   -2.61480e-12   5.54651e-11 DIIS
  Energy and wave function converged.

  ==> Post-Iterations <==

    Orbital Energies [Eh]
    ---------------------

    Doubly Occupied:

       1A    -91.933429     2A    -20.582419     3A    -11.298912
       4A    -11.252586     5A    -11.250941     6A    -11.239310
       7A    -11.237498     8A    -11.233172     9A    -11.230385
      10A    -11.228988    11A    -11.228319    12A    -11.223565
      13A     -8.937642    14A     -6.619739    15A     -6.618123
      16A     -6.615818    17A     -1.399114    18A     -1.152847
      19A     -1.065623    20A     -1.058263    21A     -1.018668
      22A     -0.977186    23A     -0.951876    24A     -0.861277
      25A     -0.844208    26A     -0.805633    27A     -0.791917
      28A     -0.732332    29A     -0.671950    30A     -0.646770
      31A     -0.614787    32A     -0.604895    33A     -0.600377
      34A     -0.595938    35A     -0.586753    36A     -0.583774
      37A     -0.576836    38A     -0.570149    39A     -0.559327
      40A     -0.546414    41A     -0.520834    42A     -0.499081
      43A     -0.491570    44A     -0.479987    45A     -0.472432
      46A     -0.463244    47A     -0.431804    48A     -0.339056
      49A     -0.328967    50A     -0.301296

    Virtual:

      51A      0.129623    52A      0.151767    53A      0.171727
      54A      0.180044    55A      0.183940    56A      0.197461
      57A      0.204342    58A      0.215145    59A      0.234531
      60A      0.242968    61A      0.246545    62A      0.251138
      63A      0.256981    64A      0.259145    65A      0.281599
      66A      0.287981    67A      0.296456    68A      0.302341
      69A      0.317185    70A      0.328279    71A      0.356140
      72A      0.388612    73A      0.413430    74A      0.427962
      75A      0.470007    76A      0.485313    77A      0.500145
      78A      0.519112    79A      0.529459    80A      0.561791
      81A      0.593672    82A      0.597145    83A      0.606905
      84A      0.620943    85A      0.633837    86A      0.646217
      87A      0.651887    88A      0.670097    89A      0.689609
      90A      0.695822    91A      0.699714    92A      0.710605
      93A      0.721951    94A      0.726800    95A      0.734093
      96A      0.741000    97A      0.752029    98A      0.765653
      99A      0.781081   100A      0.788141   101A      0.801120
     102A      0.806616   103A      0.818015   104A      0.823558
     105A      0.836194   106A      0.853567   107A      0.863053
     108A      0.869631   109A      0.871110   110A      0.872224
     111A      0.879318   112A      0.885062   113A      0.888415
     114A      0.895999   115A      0.899998   116A      0.903379
     117A      0.905903   118A      0.923476   119A      0.933885
     120A      0.938891   121A      0.943329   122A      0.946551
     123A      0.960690   124A      0.976589   125A      0.980683
     126A      1.003902   127A      1.016898   128A      1.022448
     129A      1.083821   130A      1.090165   131A      1.128217
     132A      1.143877   133A      1.151069   134A      1.165187
     135A      1.181845   136A      1.202699   137A      1.226515
     138A      1.246334   139A      1.259096   140A      1.269268
     141A      1.284911   142A      1.292366   143A      1.303166
     144A      1.309406   145A      1.315128   146A      1.330695
     147A      1.348425   148A      1.358103   149A      1.372575
     150A      1.379183   151A      1.403407   152A      1.425148
     153A      1.436369   154A      1.472504   155A      1.485285
     156A      1.496275   157A      1.504065   158A      1.549850
     159A      1.597302   160A      1.621375   161A      1.632519
     162A      1.664800   163A      1.676122   164A      1.682362
     165A      1.696297   166A      1.733761   167A      1.739355
     168A      1.773615   169A      1.798261   170A      1.843681
     171A      1.849256   172A      1.880824   173A      1.885075
     174A      1.889059   175A      1.892480   176A      1.895381
     177A      1.899665   178A      1.905074   179A      1.906796
     180A      1.913610   181A      1.924631   182A      1.925882
     183A      1.940850   184A      1.947220   185A      1.954522
     186A      1.962637   187A      1.972944   188A      1.977384
     189A      2.000350   190A      2.005912   191A      2.010630
     192A      2.018260   193A      2.024111   194A      2.038970
     195A      2.055765   196A      2.060123   197A      2.066012
     198A      2.081484   199A      2.096158   200A      2.102255
     201A      2.136104   202A      2.149044   203A      2.159881
     204A      2.193428   205A      2.227563   206A      2.230670
     207A      2.248570   208A      2.256232   209A      2.272086
     210A      2.307906   211A      2.312574   212A      2.343200
     213A      2.367883   214A      2.405929   215A      2.437980
     216A      2.449703   217A      2.451592   218A      2.462620
     219A      2.463836   220A      2.476168   221A      2.487032
     222A      2.511001   223A      2.534750   224A      2.545509
     225A      2.568440   226A      2.632609   227A      2.648621
     228A      2.738778   229A      2.757918   230A      2.759294
     231A      2.766535   232A      2.787668   233A      2.793200
     234A      2.807563   235A      2.815655   236A      2.827671
     237A      2.852746   238A      2.867195   239A      2.872905
     240A      2.917490   241A      2.964163   242A      2.996599
     243A      3.017220   244A      3.096999   245A      3.176633
     246A      3.248929   247A      3.290443   248A      3.348604
     249A      3.574550   250A      3.674761   251A      3.979520
     252A      4.194469

    Final Occupation by Irrep:
              A
    DOCC [    50 ]

  @RHF Final Energy:  -860.41469079481396

   => Energetics <=

    Nuclear Repulsion Energy =            732.6036354818402287
    One-Electron Energy =               -2632.2845919866686017
    Two-Electron Energy =                1039.2662657100145225
    Total Energy =                       -860.4146907948138505

Computation Completed

Properties will be evaluated at   0.000000,   0.000000,   0.000000 [a0]

Properties computed using the SCF density matrix

  Nuclear Dipole Moment: [e a0]
     X:    -3.6861      Y:     2.7005      Z:   -12.4632

  Electronic Dipole Moment: [e a0]
     X:     3.2522      Y:    -3.4349      Z:    11.7134

  Dipole Moment: [e a0]
     X:    -0.4339      Y:    -0.7344      Z:    -0.7498     Total:     1.1357

  Dipole Moment: [D]
     X:    -1.1028      Y:    -1.8666      Z:    -1.9059     Total:     2.8867

*** tstop() called on ds3 at Mon Apr 27 16:48:08 2020
Module time:
	user time   =     224.29 seconds =       3.74 minutes
	system time =      90.52 seconds =       1.51 minutes
	total time  =        334 seconds =       5.57 minutes
Total time:
	user time   =     224.29 seconds =       3.74 minutes
	system time =      90.52 seconds =       1.51 minutes
	total time  =        334 seconds =       5.57 minutes
                                     G D M A

                                 by Anthony Stone

                           version 2.2.06, 22 June 2011

               Distributed Multipoles from Gaussian wavefunctions

Starting at 16:48:8 on 27 Apr 2020

Using SCF density matrix from file ./SSI/SSI-168TYR-224MET-1-dimer.test.27796.fchk

                         Distributed Multipole Analysis

Standard DMA

Positions and radii in angstrom
Multipole moments in atomic units, ea_0^k for rank k

C          x = -1.523264  y =  1.521184  z = -0.563035 angstrom
           Maximum rank =  0   Radius =  0.650 angstrom
                   Q00  =  -0.020398

C          x = -2.990264  y =  1.837184  z = -0.870035 angstrom
           Maximum rank =  0   Radius =  0.650 angstrom
                   Q00  =  -0.233108

C          x = -1.312264  y =  0.544184  z =  0.569965 angstrom
           Maximum rank =  0   Radius =  0.650 angstrom
                   Q00  =  -0.149641

C          x = -1.423264  y = -0.827816  z =  0.354965 angstrom
           Maximum rank =  0   Radius =  0.650 angstrom
                   Q00  =  -0.034384

C          x = -0.997264  y =  1.000184  z =  1.848965 angstrom
           Maximum rank =  0   Radius =  0.650 angstrom
                   Q00  =   0.039500

C          x = -1.225264  y = -1.729816  z =  1.394965 angstrom
           Maximum rank =  0   Radius =  0.650 angstrom
                   Q00  =  -0.198814

C          x = -0.798264  y =  0.106184  z =  2.894965 angstrom
           Maximum rank =  0   Radius =  0.650 angstrom
                   Q00  =  -0.111947

C          x = -0.913264  y = -1.259816  z =  2.665965 angstrom
           Maximum rank =  0   Radius =  0.650 angstrom
                   Q00  =   0.329589

O          x = -0.719264  y = -2.137816  z =  3.689965 angstrom
           Maximum rank =  0   Radius =  0.650 angstrom
                   Q00  =  -0.676222

H          x = -1.091264  y =  1.086184  z = -1.460035 angstrom
           Maximum rank =  0   Radius =  0.325 angstrom
                   Q00  =   0.056718

H          x = -0.990264  y =  2.446184  z = -0.339035 angstrom
           Maximum rank =  0   Radius =  0.325 angstrom
                   Q00  =   0.065068

H          x = -3.505264  y =  0.903184  z = -1.101035 angstrom
           Maximum rank =  0   Radius =  0.325 angstrom
                   Q00  =   0.079969

H          x = -1.677264  y = -1.195816  z = -0.628035 angstrom
           Maximum rank =  0   Radius =  0.325 angstrom
                   Q00  =   0.064544

H          x = -0.906264  y =  2.062184  z =  2.033965 angstrom
           Maximum rank =  0   Radius =  0.325 angstrom
                   Q00  =   0.063049

H          x = -1.312264  y = -2.791816  z =  1.215965 angstrom
           Maximum rank =  0   Radius =  0.325 angstrom
                   Q00  =   0.070865

H          x = -0.555264  y =  0.462184  z =  3.884965 angstrom
           Maximum rank =  0   Radius =  0.325 angstrom
                   Q00  =   0.081198

H          x = -0.841264  y = -3.052816  z =  3.414965 angstrom
           Maximum rank =  0   Radius =  0.325 angstrom
                   Q00  =   0.406216

H          x = -3.049174  y =  2.512438  z = -1.736384 angstrom
           Maximum rank =  0   Radius =  0.325 angstrom
                   Q00  =   0.080897

H          x = -3.483204  y =  2.294145  z =  0.000709 angstrom
           Maximum rank =  0   Radius =  0.325 angstrom
                   Q00  =   0.083907

C          x =  1.232736  y =  0.618184  z = -2.925035 angstrom
           Maximum rank =  0   Radius =  0.650 angstrom
                   Q00  =  -0.354542

C          x =  3.474736  y = -0.909816  z = -3.012035 angstrom
           Maximum rank =  0   Radius =  0.650 angstrom
                   Q00  =  -0.358494

S          x =  2.916736  y =  0.641184  z = -2.314035 angstrom
           Maximum rank =  0   Radius =  0.650 angstrom
                   Q00  =   0.141826

H          x =  0.729736  y = -0.297816  z = -2.612035 angstrom
           Maximum rank =  0   Radius =  0.325 angstrom
                   Q00  =   0.080905

H          x =  0.713736  y =  1.472184  z = -2.497035 angstrom
           Maximum rank =  0   Radius =  0.325 angstrom
                   Q00  =   0.118836

H          x =  1.199736  y =  0.717184  z = -4.009035 angstrom
           Maximum rank =  0   Radius =  0.325 angstrom
                   Q00  =   0.085666

H          x =  3.067736  y = -1.713816  z = -2.417035 angstrom
           Maximum rank =  0   Radius =  0.325 angstrom
                   Q00  =   0.083092

H          x =  4.551736  y = -0.942816  z = -2.955035 angstrom
           Maximum rank =  0   Radius =  0.325 angstrom
                   Q00  =   0.118331

H          x =  3.138416  y = -1.087400  z = -4.044194 angstrom
           Maximum rank =  0   Radius =  0.325 angstrom
                   Q00  =   0.087376

Total multipoles referred to origin at
           x =   0.000000,  y =    0.000000,  z =    0.000000 angstrom
                   Q00  =  -0.000000

Finished at 16:48:8 on 27 Apr 2020

  DMA results are available in the Python driver through the
	  variable('DMA DISTRIBUTED MULTIPOLES')
  and
	  variable('DMA TOTAL MULTIPOLES')
  commands.

    Psi4 stopped on: Monday, 27 April 2020 04:48PM
    Psi4 wall time for execution: 0:05:34.46

*** Psi4 exiting successfully. Buy a developer a beer!
