                               Psi4 1.3.2 release

  ==> Input File <==

--------------------------------------------------------------------------
import numpy as np
set {scf_type pk
basis cc-pvdz
d_convergence 10
gdma_switch   0
gdma_limit    0
gdma_origin   [ 0.0,  0.0,  0.0 ]
}
molecule test {
    units Angstrom
    0 1
    --
    0 1
    C                1.935142342335769    -1.433702614502395    -1.888757895986036
    C                0.239142342335769    -0.005702614502395    -0.709757895986036
    C                0.837142342335769    -1.258702614502394    -0.871757895986036
    C               -0.774857657664231     0.187297385497605     0.226242104013964
    C                0.398142342335769    -2.325702614502394    -0.077757895986036
    C               -1.199857657664231    -0.880702614502395     1.013242104013964
    C               -0.616857657664231    -2.141702614502394     0.862242104013964
    O               -2.182857657664231    -0.683702614502395     1.935242104013964
    H                0.562142342335769     0.820297385497605    -1.328757895986036
    H               -1.227857657664231     1.157297385497605     0.344242104013964
    H                2.651142342335769    -0.619702614502395    -1.767757895986036
    H                1.484142342335768    -1.327702614502395    -2.876757895986035
    H                0.812142342335769    -3.316702614502395    -0.171757895986036
    H               -0.954857657664231    -2.971702614502394     1.466242104013964
    H               -2.362857657664232    -1.474702614502394     2.455242104013965
    H                2.474372342335769    -2.391762614502394    -1.851987895986036
    C                1.317142342335768     3.432297385497606    -0.100757895986036
    C                0.121142342335769     4.254297385497606    -0.550757895986036
    H                1.027142342335769     2.716297385497606     0.666242104013964
    H                1.719142342335769     2.881297385497605    -0.950757895986036
    H                2.099142342335769     4.085297385497605     0.287242104013964
    H               -0.661857657664231     3.580297385497606    -0.895757895986036
    H               -0.245487657664231     4.866297385497606     0.286522104013964
    H                0.401932342335769     4.897877385497605    -1.397497895986036

}
e, wfn = energy('scf', return_wfn=True)
gdma(wfn)
dmavals = variable('DMA DISTRIBUTED MULTIPOLES')
charges = np.array(dmavals)
print(charges)
np.save('SSI-128TYR-160LEU-1-dimer.npy', np.array(charges))--------------------------------------------------------------------------

*** tstart() called on ds3
*** at Mon Apr 27 23:04:08 2020

   => Loading Basis Set <=

    Name: CC-PVDZ
    Role: ORBITAL
    Keyword: BASIS
    atoms 1-7, 17-18  entry C          line   138 file /theoryfs2/ds/metcalf/miniconda2/envs/tf2gpu/share/psi4/basis/cc-pvdz.gbs
    atoms 8           entry O          line   198 file /theoryfs2/ds/metcalf/miniconda2/envs/tf2gpu/share/psi4/basis/cc-pvdz.gbs
    atoms 9-16, 19-24 entry H          line    22 file /theoryfs2/ds/metcalf/miniconda2/envs/tf2gpu/share/psi4/basis/cc-pvdz.gbs

         ---------------------------------------------------------
                                   SCF
               by Justin Turney, Rob Parrish, Andy Simmonett
                          and Daniel G. A. Smith
                              RHF Reference
                        1 Threads,    500 MiB Core
         ---------------------------------------------------------

  ==> Geometry <==

    Molecular point group: c1
    Full point group: C1

    Geometry (in Angstrom), charge = 0, multiplicity = 1:

       Center              X                  Y                   Z               Mass
    ------------   -----------------  -----------------  -----------------  -----------------
         C            1.935142342336    -1.433702614502    -1.888757895986    12.000000000000
         C            0.239142342336    -0.005702614502    -0.709757895986    12.000000000000
         C            0.837142342336    -1.258702614502    -0.871757895986    12.000000000000
         C           -0.774857657664     0.187297385498     0.226242104014    12.000000000000
         C            0.398142342336    -2.325702614502    -0.077757895986    12.000000000000
         C           -1.199857657664    -0.880702614502     1.013242104014    12.000000000000
         C           -0.616857657664    -2.141702614502     0.862242104014    12.000000000000
         O           -2.182857657664    -0.683702614502     1.935242104014    15.994914619570
         H            0.562142342336     0.820297385498    -1.328757895986     1.007825032230
         H           -1.227857657664     1.157297385498     0.344242104014     1.007825032230
         H            2.651142342336    -0.619702614502    -1.767757895986     1.007825032230
         H            1.484142342336    -1.327702614502    -2.876757895986     1.007825032230
         H            0.812142342336    -3.316702614502    -0.171757895986     1.007825032230
         H           -0.954857657664    -2.971702614502     1.466242104014     1.007825032230
         H           -2.362857657664    -1.474702614502     2.455242104014     1.007825032230
         H            2.474372342336    -2.391762614502    -1.851987895986     1.007825032230
         C            1.317142342336     3.432297385498    -0.100757895986    12.000000000000
         C            0.121142342336     4.254297385498    -0.550757895986    12.000000000000
         H            1.027142342336     2.716297385498     0.666242104014     1.007825032230
         H            1.719142342336     2.881297385498    -0.950757895986     1.007825032230
         H            2.099142342336     4.085297385498     0.287242104014     1.007825032230
         H           -0.661857657664     3.580297385498    -0.895757895986     1.007825032230
         H           -0.245487657664     4.866297385498     0.286522104014     1.007825032230
         H            0.401932342336     4.897877385498    -1.397497895986     1.007825032230

  Running in c1 symmetry.

  Rotational constants: A =      0.04551  B =      0.02388  C =      0.01634 [cm^-1]
  Rotational constants: A =   1364.40716  B =    715.95485  C =    489.88427 [MHz]
  Nuclear repulsion =  491.572848415069132

  Charge       = 0
  Multiplicity = 1
  Electrons    = 76
  Nalpha       = 38
  Nbeta        = 38

  ==> Algorithm <==

  SCF Algorithm Type is PK.
  DIIS enabled.
  MOM disabled.
  Fractional occupation disabled.
  Guess Type is SAD.
  Energy threshold   = 1.00e-06
  Density threshold  = 1.00e-10
  Integral threshold = 0.00e+00

  ==> Primary Basis <==

  Basis Set: CC-PVDZ
    Blend: CC-PVDZ
    Number of shells: 102
    Number of basis function: 210
    Number of Cartesian functions: 220
    Spherical Harmonics?: true
    Max angular momentum: 2

  ==> Pre-Iterations <==

   -------------------------------------------------------
    Irrep   Nso     Nmo     Nalpha   Nbeta   Ndocc  Nsocc
   -------------------------------------------------------
     A        210     210       0       0       0       0
   -------------------------------------------------------
    Total     210     210      38      38      38       0
   -------------------------------------------------------

  ==> Integral Setup <==

  Using integral reordering PK algorithm.
  Sizing the integral batches needed.
  Building batch lookup table.
   Calculation information:
      Number of atoms:                  24
      Number of AO shells:             102
      Number of primitives:            290
      Number of atomic orbitals:       220
      Number of basis functions:       210

      Integral cutoff                 1.00e-12
      Number of threads:                 1

	Batch   1 pq = [       0,    9405] index = [             0,44231715] size =     44231715
	Batch   2 pq = [    9405,   13301] index = [      44231715,88464951] size =     44233236
	Batch   3 pq = [   13301,   16290] index = [      88464951,132690195] size =     44225244
	Batch   4 pq = [   16290,   18810] index = [     132690195,176917455] size =     44227260
	Batch   5 pq = [   18810,   21030] index = [     176917455,221140965] size =     44223510
	Batch   6 pq = [   21030,   22155] index = [     221140965,245433090] size =     24292125
  Task number: 23
  Buffer size: 11059200
  Buffer per thread: 2
  We computed 11479153 shell quartets total.
  Whereas there are 13799631 unique shell quartets.

  ==> DiskJK: Disk-Based J/K Matrices <==

    J tasked:                  Yes
    K tasked:                  Yes
    wK tasked:                  No
    Memory [MiB]:              375
    Schwarz Cutoff:          1E-12

    OpenMP threads:              1

  Minimum eigenvalue in the overlap matrix is 3.2272992413E-04.
  Using Symmetric Orthogonalization.

  SCF Guess: Superposition of Atomic Densities via on-the-fly atomic UHF.

  ==> Iterations <==

                        Total Energy        Delta E     RMS |[F,P]|

   @RHF iter SAD:  -422.67161863946882   -4.22672e+02   0.00000e+00
   @RHF iter   1:  -423.60036983871618   -9.28751e-01   2.98049e-03 DIIS
   @RHF iter   2:  -423.81756591190748   -2.17196e-01   1.25343e-03 DIIS
   @RHF iter   3:  -423.85227181533389   -3.47059e-02   2.82761e-04 DIIS
   @RHF iter   4:  -423.85513339903559   -2.86158e-03   1.15734e-04 DIIS
   @RHF iter   5:  -423.85547727531491   -3.43876e-04   2.07556e-05 DIIS
   @RHF iter   6:  -423.85549477091934   -1.74956e-05   6.40476e-06 DIIS
   @RHF iter   7:  -423.85549645558041   -1.68466e-06   2.14615e-06 DIIS
   @RHF iter   8:  -423.85549671293961   -2.57359e-07   8.16198e-07 DIIS
   @RHF iter   9:  -423.85549676141954   -4.84799e-08   3.52090e-07 DIIS
   @RHF iter  10:  -423.85549677212794   -1.07084e-08   1.50865e-07 DIIS
   @RHF iter  11:  -423.85549677546123   -3.33330e-09   6.55729e-08 DIIS
   @RHF iter  12:  -423.85549677596202   -5.00791e-10   2.84877e-08 DIIS
   @RHF iter  13:  -423.85549677603518   -7.31575e-11   8.25976e-09 DIIS
   @RHF iter  14:  -423.85549677603973   -4.54747e-12   2.34408e-09 DIIS
   @RHF iter  15:  -423.85549677604075   -1.02318e-12   9.21568e-10 DIIS
   @RHF iter  16:  -423.85549677603899    1.76215e-12   4.06241e-10 DIIS
   @RHF iter  17:  -423.85549677604115   -2.16005e-12   1.82254e-10 DIIS
   @RHF iter  18:  -423.85549677604229   -1.13687e-12   8.45794e-11 DIIS
  Energy and wave function converged.

  ==> Post-Iterations <==

    Orbital Energies [Eh]
    ---------------------

    Doubly Occupied:

       1A    -20.582117     2A    -11.299226     3A    -11.238843
       4A    -11.237846     5A    -11.234797     6A    -11.232743
       7A    -11.230333     8A    -11.228012     9A    -11.218722
      10A    -11.214626    11A     -1.398743    12A     -1.148169
      13A     -1.035767    14A     -1.021265    15A     -1.016509
      16A     -0.925188    17A     -0.842752    18A     -0.835330
      19A     -0.802412    20A     -0.731923    21A     -0.664941
      22A     -0.641973    23A     -0.607826    24A     -0.602346
      25A     -0.598185    26A     -0.585516    27A     -0.583941
      28A     -0.569271    29A     -0.565474    30A     -0.529645
      31A     -0.501635    32A     -0.495355    33A     -0.489014
      34A     -0.484152    35A     -0.481653    36A     -0.464112
      37A     -0.337789    38A     -0.298840

    Virtual:

      39A      0.129492    40A      0.155394    41A      0.171138
      42A      0.180330    43A      0.193032    44A      0.214076
      45A      0.233658    46A      0.237645    47A      0.249689
      48A      0.261688    49A      0.266240    50A      0.271202
      51A      0.285034    52A      0.290494    53A      0.320020
      54A      0.348474    55A      0.375297    56A      0.382735
      57A      0.398273    58A      0.430945    59A      0.456140
      60A      0.480382    61A      0.493510    62A      0.512567
      63A      0.598127    64A      0.606663    65A      0.609049
      66A      0.622743    67A      0.634640    68A      0.649157
      69A      0.663423    70A      0.672437    71A      0.683012
      72A      0.699596    73A      0.706157    74A      0.710990
      75A      0.733433    76A      0.742934    77A      0.767723
      78A      0.780825    79A      0.793408    80A      0.799053
      81A      0.808606    82A      0.825281    83A      0.852621
      84A      0.855042    85A      0.864701    86A      0.877440
      87A      0.884979    88A      0.886671    89A      0.893763
      90A      0.903795    91A      0.907151    92A      0.915779
      93A      0.927917    94A      0.935629    95A      0.944100
      96A      0.953853    97A      0.962715    98A      0.978268
      99A      0.997100   100A      1.017414   101A      1.041663
     102A      1.056755   103A      1.111875   104A      1.129376
     105A      1.134530   106A      1.147414   107A      1.158199
     108A      1.186305   109A      1.210546   110A      1.233243
     111A      1.243718   112A      1.255579   113A      1.271902
     114A      1.285460   115A      1.286897   116A      1.312585
     117A      1.317720   118A      1.361025   119A      1.370481
     120A      1.397593   121A      1.474780   122A      1.482213
     123A      1.491537   124A      1.503190   125A      1.534913
     126A      1.572167   127A      1.585814   128A      1.621369
     129A      1.626057   130A      1.681498   131A      1.685309
     132A      1.689841   133A      1.696903   134A      1.731853
     135A      1.755658   136A      1.784713   137A      1.803458
     138A      1.812586   139A      1.850658   140A      1.860487
     141A      1.885844   142A      1.891060   143A      1.901153
     144A      1.908227   145A      1.912629   146A      1.922830
     147A      1.925860   148A      1.941064   149A      1.945077
     150A      1.947219   151A      1.955898   152A      1.960258
     153A      1.966201   154A      1.974189   155A      1.988175
     156A      2.005174   157A      2.024565   158A      2.055719
     159A      2.067669   160A      2.073108   161A      2.086588
     162A      2.113980   163A      2.118323   164A      2.128422
     165A      2.148205   166A      2.165974   167A      2.202599
     168A      2.222310   169A      2.266504   170A      2.273234
     171A      2.295051   172A      2.308742   173A      2.331127
     174A      2.366576   175A      2.383871   176A      2.401026
     177A      2.454646   178A      2.459478   179A      2.461829
     180A      2.479799   181A      2.491076   182A      2.524109
     183A      2.536162   184A      2.572852   185A      2.583359
     186A      2.624549   187A      2.638558   188A      2.734668
     189A      2.760613   190A      2.769867   191A      2.783881
     192A      2.800329   193A      2.824685   194A      2.841768
     195A      2.856530   196A      2.865170   197A      2.894985
     198A      2.956356   199A      2.963164   200A      2.969978
     201A      2.994135   202A      3.093669   203A      3.145348
     204A      3.248137   205A      3.278980   206A      3.348794
     207A      3.571402   208A      3.673948   209A      3.964124
     210A      4.192626

    Final Occupation by Irrep:
              A
    DOCC [    38 ]

  @RHF Final Energy:  -423.85549677604229

   => Energetics <=

    Nuclear Repulsion Energy =            491.5728484150691315
    One-Electron Energy =               -1548.9027109725489026
    Two-Electron Energy =                 633.4743657814375410
    Total Energy =                       -423.8554967760422869

Computation Completed

Properties will be evaluated at   0.000000,   0.000000,   0.000000 [a0]

Properties computed using the SCF density matrix

  Nuclear Dipole Moment: [e a0]
     X:     7.2815      Y:    12.0926      Z:    -5.3674

  Electronic Dipole Moment: [e a0]
     X:    -7.0938      Y:   -12.6260      Z:     5.4106

  Dipole Moment: [e a0]
     X:     0.1877      Y:    -0.5334      Z:     0.0433     Total:     0.5671

  Dipole Moment: [D]
     X:     0.4771      Y:    -1.3558      Z:     0.1100     Total:     1.4415

*** tstop() called on ds3 at Mon Apr 27 23:06:17 2020
Module time:
	user time   =      92.68 seconds =       1.54 minutes
	system time =      43.02 seconds =       0.72 minutes
	total time  =        129 seconds =       2.15 minutes
Total time:
	user time   =      92.68 seconds =       1.54 minutes
	system time =      43.02 seconds =       0.72 minutes
	total time  =        129 seconds =       2.15 minutes
                                     G D M A

                                 by Anthony Stone

                           version 2.2.06, 22 June 2011

               Distributed Multipoles from Gaussian wavefunctions

Starting at 23:6:18 on 27 Apr 2020

Using SCF density matrix from file ./SSI/SSI-128TYR-160LEU-1-dimer.test.857.fchk

                         Distributed Multipole Analysis

Standard DMA

Positions and radii in angstrom
Multipole moments in atomic units, ea_0^k for rank k

C          x =  1.935142  y = -1.433703  z = -1.888758 angstrom
           Maximum rank =  0   Radius =  0.650 angstrom
                   Q00  =  -0.203277

C          x =  0.239142  y = -0.005703  z = -0.709758 angstrom
           Maximum rank =  0   Radius =  0.650 angstrom
                   Q00  =   0.024188

C          x =  0.837142  y = -1.258703  z = -0.871758 angstrom
           Maximum rank =  0   Radius =  0.650 angstrom
                   Q00  =  -0.123333

C          x = -0.774858  y =  0.187297  z =  0.226242 angstrom
           Maximum rank =  0   Radius =  0.650 angstrom
                   Q00  =  -0.116006

C          x =  0.398142  y = -2.325703  z = -0.077758 angstrom
           Maximum rank =  0   Radius =  0.650 angstrom
                   Q00  =  -0.016333

C          x = -1.199858  y = -0.880703  z =  1.013242 angstrom
           Maximum rank =  0   Radius =  0.650 angstrom
                   Q00  =   0.328909

C          x = -0.616858  y = -2.141703  z =  0.862242 angstrom
           Maximum rank =  0   Radius =  0.650 angstrom
                   Q00  =  -0.200229

O          x = -2.182858  y = -0.683703  z =  1.935242 angstrom
           Maximum rank =  0   Radius =  0.650 angstrom
                   Q00  =  -0.676894

H          x =  0.562142  y =  0.820297  z = -1.328758 angstrom
           Maximum rank =  0   Radius =  0.325 angstrom
                   Q00  =   0.062883

H          x = -1.227858  y =  1.157297  z =  0.344242 angstrom
           Maximum rank =  0   Radius =  0.325 angstrom
                   Q00  =   0.078922

H          x =  2.651142  y = -0.619703  z = -1.767758 angstrom
           Maximum rank =  0   Radius =  0.325 angstrom
                   Q00  =   0.095981

H          x =  1.484142  y = -1.327703  z = -2.876758 angstrom
           Maximum rank =  0   Radius =  0.325 angstrom
                   Q00  =   0.095927

H          x =  0.812142  y = -3.316703  z = -0.171758 angstrom
           Maximum rank =  0   Radius =  0.325 angstrom
                   Q00  =   0.069264

H          x = -0.954858  y = -2.971703  z =  1.466242 angstrom
           Maximum rank =  0   Radius =  0.325 angstrom
                   Q00  =   0.071858

H          x = -2.362858  y = -1.474703  z =  2.455242 angstrom
           Maximum rank =  0   Radius =  0.325 angstrom
                   Q00  =   0.406486

H          x =  2.474372  y = -2.391763  z = -1.851988 angstrom
           Maximum rank =  0   Radius =  0.325 angstrom
                   Q00  =   0.100689

C          x =  1.317142  y =  3.432297  z = -0.100758 angstrom
           Maximum rank =  0   Radius =  0.650 angstrom
                   Q00  =  -0.233828

C          x =  0.121142  y =  4.254297  z = -0.550758 angstrom
           Maximum rank =  0   Radius =  0.650 angstrom
                   Q00  =  -0.235273

H          x =  1.027142  y =  2.716297  z =  0.666242 angstrom
           Maximum rank =  0   Radius =  0.325 angstrom
                   Q00  =   0.086743

H          x =  1.719142  y =  2.881297  z = -0.950758 angstrom
           Maximum rank =  0   Radius =  0.325 angstrom
                   Q00  =   0.070325

H          x =  2.099142  y =  4.085297  z =  0.287242 angstrom
           Maximum rank =  0   Radius =  0.325 angstrom
                   Q00  =   0.079641

H          x = -0.661858  y =  3.580297  z = -0.895758 angstrom
           Maximum rank =  0   Radius =  0.325 angstrom
                   Q00  =   0.074953

H          x = -0.245488  y =  4.866297  z =  0.286522 angstrom
           Maximum rank =  0   Radius =  0.325 angstrom
                   Q00  =   0.080959

H          x =  0.401932  y =  4.897877  z = -1.397498 angstrom
           Maximum rank =  0   Radius =  0.325 angstrom
                   Q00  =   0.077448

Total multipoles referred to origin at
           x =   0.000000,  y =    0.000000,  z =    0.000000 angstrom
                   Q00  =  -0.000000

Finished at 23:6:18 on 27 Apr 2020

  DMA results are available in the Python driver through the
	  variable('DMA DISTRIBUTED MULTIPOLES')
  and
	  variable('DMA TOTAL MULTIPOLES')
  commands.

    Psi4 stopped on: Monday, 27 April 2020 11:06PM
    Psi4 wall time for execution: 0:02:09.87

*** Psi4 exiting successfully. Buy a developer a beer!
