                               Psi4 1.3.2 release

  ==> Input File <==

--------------------------------------------------------------------------
import numpy as np
set {scf_type pk
basis cc-pvdz
d_convergence 10
gdma_switch   0
gdma_limit    0
gdma_origin   [ 0.0,  0.0,  0.0 ]
}
molecule test {
    units Angstrom
    -1 1
    --
    -1 1
    C               -0.431164270774800    -1.181832257414812     0.101930840856221
    C               -1.147164270774800    -2.309832257414811     0.791930840856221
    C               -1.374164270774800    -0.189832257414812    -0.568069159143779
    O               -2.500164270774801    -0.595832257414812    -0.960069159143779
    O               -0.987164270774800     0.993167742585188    -0.715069159143779
    H                0.152835729225200    -0.677832257414812     0.866930840856221
    H                0.223835729225200    -1.617832257414812    -0.655069159143779
    H               -0.409164270774800    -2.985832257414812     1.228930840856221
    H               -1.710164270774800    -2.878832257414812     0.050930840856221
    H               -1.826844270774800    -1.950472257414812     1.578626550856221
    C                2.378835729225199     1.390167742585188     0.129930840856221
    C                2.726835729225200    -0.078832257414812     0.381930840856221
    O                1.142835729225200     1.715167742585188     0.722930840856221
    H                3.156835729225199     2.018167742585188     0.564930840856221
    H                2.331835729225199     1.578167742585188    -0.945069159143779
    H                1.986835729225200    -0.691832257414812    -0.105069159143779
    H                1.255835729225200     2.547167742585188     1.214930840856221
    H                2.741815729225199    -0.299722257414812     1.459420440856221
    H                3.667615729225200    -0.347002257414812    -0.121075159143779

}
e, wfn = energy('scf', return_wfn=True)
gdma(wfn)
dmavals = variable('DMA DISTRIBUTED MULTIPOLES')
charges = np.array(dmavals)
print(charges)
np.save('SSI-010GLU-032SER-1-dimer.npy', np.array(charges))--------------------------------------------------------------------------

*** tstart() called on ds3
*** at Tue Apr 28 00:43:41 2020

   => Loading Basis Set <=

    Name: CC-PVDZ
    Role: ORBITAL
    Keyword: BASIS
    atoms 1-3, 11-12  entry C          line   138 file /theoryfs2/ds/metcalf/miniconda2/envs/tf2gpu/share/psi4/basis/cc-pvdz.gbs
    atoms 4-5, 13     entry O          line   198 file /theoryfs2/ds/metcalf/miniconda2/envs/tf2gpu/share/psi4/basis/cc-pvdz.gbs
    atoms 6-10, 14-19 entry H          line    22 file /theoryfs2/ds/metcalf/miniconda2/envs/tf2gpu/share/psi4/basis/cc-pvdz.gbs

         ---------------------------------------------------------
                                   SCF
               by Justin Turney, Rob Parrish, Andy Simmonett
                          and Daniel G. A. Smith
                              RHF Reference
                        1 Threads,    500 MiB Core
         ---------------------------------------------------------

  ==> Geometry <==

    Molecular point group: c1
    Full point group: C1

    Geometry (in Angstrom), charge = -1, multiplicity = 1:

       Center              X                  Y                   Z               Mass
    ------------   -----------------  -----------------  -----------------  -----------------
         C           -0.431164270775    -1.181832257415     0.101930840856    12.000000000000
         C           -1.147164270775    -2.309832257415     0.791930840856    12.000000000000
         C           -1.374164270775    -0.189832257415    -0.568069159144    12.000000000000
         O           -2.500164270775    -0.595832257415    -0.960069159144    15.994914619570
         O           -0.987164270775     0.993167742585    -0.715069159144    15.994914619570
         H            0.152835729225    -0.677832257415     0.866930840856     1.007825032230
         H            0.223835729225    -1.617832257415    -0.655069159144     1.007825032230
         H           -0.409164270775    -2.985832257415     1.228930840856     1.007825032230
         H           -1.710164270775    -2.878832257415     0.050930840856     1.007825032230
         H           -1.826844270775    -1.950472257415     1.578626550856     1.007825032230
         C            2.378835729225     1.390167742585     0.129930840856    12.000000000000
         C            2.726835729225    -0.078832257415     0.381930840856    12.000000000000
         O            1.142835729225     1.715167742585     0.722930840856    15.994914619570
         H            3.156835729225     2.018167742585     0.564930840856     1.007825032230
         H            2.331835729225     1.578167742585    -0.945069159144     1.007825032230
         H            1.986835729225    -0.691832257415    -0.105069159144     1.007825032230
         H            1.255835729225     2.547167742585     1.214930840856     1.007825032230
         H            2.741815729225    -0.299722257415     1.459420440856     1.007825032230
         H            3.667615729225    -0.347002257415    -0.121075159144     1.007825032230

  Running in c1 symmetry.

  Rotational constants: A =      0.09365  B =      0.03395  C =      0.02712 [cm^-1]
  Rotational constants: A =   2807.55356  B =   1017.92594  C =    813.06043 [MHz]
  Nuclear repulsion =  383.633242349974580

  Charge       = -1
  Multiplicity = 1
  Electrons    = 66
  Nalpha       = 33
  Nbeta        = 33

  ==> Algorithm <==

  SCF Algorithm Type is PK.
  DIIS enabled.
  MOM disabled.
  Fractional occupation disabled.
  Guess Type is SAD.
  Energy threshold   = 1.00e-06
  Density threshold  = 1.00e-10
  Integral threshold = 0.00e+00

  ==> Primary Basis <==

  Basis Set: CC-PVDZ
    Blend: CC-PVDZ
    Number of shells: 81
    Number of basis function: 167
    Number of Cartesian functions: 175
    Spherical Harmonics?: true
    Max angular momentum: 2

  ==> Pre-Iterations <==

   -------------------------------------------------------
    Irrep   Nso     Nmo     Nalpha   Nbeta   Ndocc  Nsocc
   -------------------------------------------------------
     A        167     167       0       0       0       0
   -------------------------------------------------------
    Total     167     167      33      33      33       0
   -------------------------------------------------------

  ==> Integral Setup <==

  Using integral reordering PK algorithm.
  Sizing the integral batches needed.
  Building batch lookup table.
   Calculation information:
      Number of atoms:                  19
      Number of AO shells:              81
      Number of primitives:            231
      Number of atomic orbitals:       175
      Number of basis functions:       167

      Integral cutoff                 1.00e-12
      Number of threads:                 1

	Batch   1 pq = [       0,    9405] index = [             0,44231715] size =     44231715
	Batch   2 pq = [    9405,   13301] index = [      44231715,88464951] size =     44233236
	Batch   3 pq = [   13301,   14028] index = [      88464951,98399406] size =      9934455
  Task number: 9
  Buffer size: 11059200
  Buffer per thread: 2
  We computed 4944509 shell quartets total.
  Whereas there are 5516181 unique shell quartets.

  ==> DiskJK: Disk-Based J/K Matrices <==

    J tasked:                  Yes
    K tasked:                  Yes
    wK tasked:                  No
    Memory [MiB]:              375
    Schwarz Cutoff:          1E-12

    OpenMP threads:              1

  Minimum eigenvalue in the overlap matrix is 3.6270944407E-03.
  Using Symmetric Orthogonalization.

  SCF Guess: Superposition of Atomic Densities via on-the-fly atomic UHF.

  ==> Iterations <==

                        Total Energy        Delta E     RMS |[F,P]|

   @RHF iter SAD:  -418.68598289956674   -4.18686e+02   0.00000e+00
   @RHF iter   1:  -420.00971411480691   -1.32373e+00   4.84891e-03 DIIS
   @RHF iter   2:  -420.26116939842973   -2.51455e-01   2.72094e-03 DIIS
   @RHF iter   3:  -420.33641014327492   -7.52407e-02   4.11361e-04 DIIS
   @RHF iter   4:  -420.33972612746442   -3.31598e-03   1.58808e-04 DIIS
   @RHF iter   5:  -420.34019328713606   -4.67160e-04   2.90718e-05 DIIS
   @RHF iter   6:  -420.34021237019869   -1.90831e-05   1.01046e-05 DIIS
   @RHF iter   7:  -420.34021412595672   -1.75576e-06   3.24891e-06 DIIS
   @RHF iter   8:  -420.34021433019433   -2.04238e-07   9.73157e-07 DIIS
   @RHF iter   9:  -420.34021435183678   -2.16424e-08   3.55354e-07 DIIS
   @RHF iter  10:  -420.34021435535328   -3.51650e-09   1.23506e-07 DIIS
   @RHF iter  11:  -420.34021435582372   -4.70436e-10   3.97601e-08 DIIS
   @RHF iter  12:  -420.34021435588522   -6.15046e-11   1.50002e-08 DIIS
   @RHF iter  13:  -420.34021435589671   -1.14824e-11   4.77680e-09 DIIS
   @RHF iter  14:  -420.34021435589960   -2.89901e-12   1.47275e-09 DIIS
   @RHF iter  15:  -420.34021435590034   -7.38964e-13   4.73330e-10 DIIS
   @RHF iter  16:  -420.34021435589915    1.19371e-12   1.82554e-10 DIIS
   @RHF iter  17:  -420.34021435589796    1.19371e-12   6.44070e-11 DIIS
  Energy and wave function converged.

  ==> Post-Iterations <==

    Orbital Energies [Eh]
    ---------------------

    Doubly Occupied:

       1A    -20.412927     2A    -20.246157     3A    -20.240480
       4A    -11.155659     5A    -11.102541     6A    -11.099576
       7A    -11.060171     8A    -11.038525     9A     -1.220091
      10A     -1.130247    11A     -1.017204    12A     -0.888835
      13A     -0.867251    14A     -0.715954    15A     -0.688169
      16A     -0.565870    17A     -0.516964    18A     -0.497790
      19A     -0.454314    20A     -0.438630    21A     -0.427331
      22A     -0.414501    23A     -0.406268    24A     -0.377213
      25A     -0.350057    26A     -0.347555    27A     -0.344545
      28A     -0.303103    29A     -0.301861    30A     -0.286001
      31A     -0.166801    32A     -0.152351    33A     -0.143633

    Virtual:

      34A      0.287418    35A      0.320551    36A      0.338760
      37A      0.355032    38A      0.366626    39A      0.374537
      40A      0.389483    41A      0.404447    42A      0.422619
      43A      0.442232    44A      0.476152    45A      0.507915
      46A      0.520613    47A      0.523784    48A      0.568269
      49A      0.617339    50A      0.703440    51A      0.712555
      52A      0.733492    53A      0.748462    54A      0.765626
      55A      0.795790    56A      0.855123    57A      0.868898
      58A      0.879347    59A      0.920825    60A      0.935088
      61A      0.967148    62A      0.981856    63A      0.989935
      64A      1.001834    65A      1.004012    66A      1.025626
      67A      1.028390    68A      1.037208    69A      1.045359
      70A      1.058752    71A      1.065846    72A      1.075233
      73A      1.079898    74A      1.115420    75A      1.121616
      76A      1.150008    77A      1.178851    78A      1.249897
      79A      1.263644    80A      1.274738    81A      1.316398
      82A      1.323724    83A      1.330818    84A      1.397278
      85A      1.439102    86A      1.467152    87A      1.481015
      88A      1.518007    89A      1.544107    90A      1.553398
      91A      1.595449    92A      1.610644    93A      1.630146
      94A      1.652022    95A      1.682894    96A      1.718968
      97A      1.750398    98A      1.774956    99A      1.810743
     100A      1.815028   101A      1.844435   102A      1.868528
     103A      1.913204   104A      1.939458   105A      1.947250
     106A      1.987613   107A      2.002829   108A      2.015852
     109A      2.040764   110A      2.055084   111A      2.073664
     112A      2.080900   113A      2.087127   114A      2.098744
     115A      2.112253   116A      2.116368   117A      2.145439
     118A      2.165864   119A      2.190304   120A      2.199311
     121A      2.207674   122A      2.243581   123A      2.269100
     124A      2.279269   125A      2.306907   126A      2.370117
     127A      2.384260   128A      2.400447   129A      2.422759
     130A      2.467842   131A      2.496439   132A      2.533428
     133A      2.576945   134A      2.579614   135A      2.582524
     136A      2.639268   137A      2.656801   138A      2.687416
     139A      2.707147   140A      2.731669   141A      2.793414
     142A      2.841796   143A      2.871958   144A      2.905289
     145A      2.925620   146A      2.979597   147A      3.003215
     148A      3.025024   149A      3.030209   150A      3.082119
     151A      3.100276   152A      3.155587   153A      3.265838
     154A      3.311681   155A      3.322376   156A      3.377902
     157A      3.449809   158A      3.550452   159A      3.639838
     160A      3.649514   161A      3.759571   162A      3.791136
     163A      3.840451   164A      4.060607   165A      4.111743
     166A      4.209105   167A      4.256827

    Final Occupation by Irrep:
              A
    DOCC [    33 ]

  @RHF Final Energy:  -420.34021435589796

   => Energetics <=

    Nuclear Repulsion Energy =            383.6332423499745801
    One-Electron Energy =               -1349.1897644225780368
    Two-Electron Energy =                 545.2163077167055008
    Total Energy =                       -420.3402143558979560

Computation Completed

Properties will be evaluated at   0.000000,   0.000000,   0.000000 [a0]

Properties computed using the SCF density matrix

  Nuclear Dipole Moment: [e a0]
     X:    10.8365      Y:    -4.9639      Z:     4.8125

  Electronic Dipole Moment: [e a0]
     X:    -7.2047      Y:     5.0522      Z:    -3.2614

  Dipole Moment: [e a0]
     X:     3.6317      Y:     0.0883      Z:     1.5512     Total:     3.9501

  Dipole Moment: [D]
     X:     9.2309      Y:     0.2244      Z:     3.9427     Total:    10.0402

*** tstop() called on ds3 at Tue Apr 28 00:44:36 2020
Module time:
	user time   =      38.58 seconds =       0.64 minutes
	system time =      15.97 seconds =       0.27 minutes
	total time  =         55 seconds =       0.92 minutes
Total time:
	user time   =      38.58 seconds =       0.64 minutes
	system time =      15.97 seconds =       0.27 minutes
	total time  =         55 seconds =       0.92 minutes
                                     G D M A

                                 by Anthony Stone

                           version 2.2.06, 22 June 2011

               Distributed Multipoles from Gaussian wavefunctions

Starting at 0:44:36 on 28 Apr 2020

Using SCF density matrix from file ./SSI/SSI-010GLU-032SER-1-dimer.test.13291.fchk

                         Distributed Multipole Analysis

Standard DMA

Positions and radii in angstrom
Multipole moments in atomic units, ea_0^k for rank k

C          x = -0.431164  y = -1.181832  z =  0.101931 angstrom
           Maximum rank =  0   Radius =  0.650 angstrom
                   Q00  =  -0.144445

C          x = -1.147164  y = -2.309832  z =  0.791931 angstrom
           Maximum rank =  0   Radius =  0.650 angstrom
                   Q00  =  -0.202573

C          x = -1.374164  y = -0.189832  z = -0.568069 angstrom
           Maximum rank =  0   Radius =  0.650 angstrom
                   Q00  =   1.018729

O          x = -2.500164  y = -0.595832  z = -0.960069 angstrom
           Maximum rank =  0   Radius =  0.650 angstrom
                   Q00  =  -0.976480

O          x = -0.987164  y =  0.993168  z = -0.715069 angstrom
           Maximum rank =  0   Radius =  0.650 angstrom
                   Q00  =  -0.923465

H          x =  0.152836  y = -0.677832  z =  0.866931 angstrom
           Maximum rank =  0   Radius =  0.325 angstrom
                   Q00  =   0.040000

H          x =  0.223836  y = -1.617832  z = -0.655069 angstrom
           Maximum rank =  0   Radius =  0.325 angstrom
                   Q00  =   0.033086

H          x = -0.409164  y = -2.985832  z =  1.228931 angstrom
           Maximum rank =  0   Radius =  0.325 angstrom
                   Q00  =   0.001882

H          x = -1.710164  y = -2.878832  z =  0.050931 angstrom
           Maximum rank =  0   Radius =  0.325 angstrom
                   Q00  =   0.079785

H          x = -1.826844  y = -1.950472  z =  1.578627 angstrom
           Maximum rank =  0   Radius =  0.325 angstrom
                   Q00  =   0.069638

C          x =  2.378836  y =  1.390168  z =  0.129931 angstrom
           Maximum rank =  0   Radius =  0.650 angstrom
                   Q00  =   0.160023

C          x =  2.726836  y = -0.078832  z =  0.381931 angstrom
           Maximum rank =  0   Radius =  0.650 angstrom
                   Q00  =  -0.260769

O          x =  1.142836  y =  1.715168  z =  0.722931 angstrom
           Maximum rank =  0   Radius =  0.650 angstrom
                   Q00  =  -0.529198

H          x =  3.156836  y =  2.018168  z =  0.564931 angstrom
           Maximum rank =  0   Radius =  0.325 angstrom
                   Q00  =  -0.011386

H          x =  2.331836  y =  1.578168  z = -0.945069 angstrom
           Maximum rank =  0   Radius =  0.325 angstrom
                   Q00  =   0.048140

H          x =  1.986836  y = -0.691832  z = -0.105069 angstrom
           Maximum rank =  0   Radius =  0.325 angstrom
                   Q00  =   0.122969

H          x =  1.255836  y =  2.547168  z =  1.214931 angstrom
           Maximum rank =  0   Radius =  0.325 angstrom
                   Q00  =   0.358313

H          x =  2.741816  y = -0.299722  z =  1.459420 angstrom
           Maximum rank =  0   Radius =  0.325 angstrom
                   Q00  =   0.067364

H          x =  3.667616  y = -0.347002  z = -0.121075 angstrom
           Maximum rank =  0   Radius =  0.325 angstrom
                   Q00  =   0.048388

Total multipoles referred to origin at
           x =   0.000000,  y =    0.000000,  z =    0.000000 angstrom
                   Q00  =  -1.000000

Finished at 0:44:36 on 28 Apr 2020

  DMA results are available in the Python driver through the
	  variable('DMA DISTRIBUTED MULTIPOLES')
  and
	  variable('DMA TOTAL MULTIPOLES')
  commands.

    Psi4 stopped on: Tuesday, 28 April 2020 12:44AM
    Psi4 wall time for execution: 0:00:55.15

*** Psi4 exiting successfully. Buy a developer a beer!
