                               Psi4 1.3.2 release

  ==> Input File <==

--------------------------------------------------------------------------
import numpy as np
set {scf_type pk
basis cc-pvdz
d_convergence 10
gdma_switch   0
gdma_limit    0
gdma_origin   [ 0.0,  0.0,  0.0 ]
}
molecule test {
    units Angstrom
    0 1
    --
    0 1
    C                0.751763980454142    -2.924455328956680    -0.135088498229283
    C               -1.559236019545858     0.730544671043320    -0.357088498229283
    C               -0.755236019545858     0.319544671043320    -1.446088498229283
    C               -1.577236019545858    -0.042455328956680     0.823911501770717
    C               -0.005236019545858    -0.849455328956680    -1.347088498229283
    C               -0.818236019545858    -1.214455328956680     0.897911501770717
    C               -0.031236019545858    -1.622455328956680    -0.189088498229283
    H               -2.157236019545858     1.634544671043320    -0.416088498229283
    H               -0.714236019545858     0.900544671043320    -2.360088498229283
    H               -2.174236019545858     0.263544671043320     1.674911501770717
    H                0.606763980454142    -1.171455328956680    -2.175088498229283
    H               -0.840236019545858    -1.812455328956680     1.800911501770717
    H                0.688763980454142    -3.295455328956680     0.889911501770717
    H                1.784763980454142    -2.691455328956680    -0.359088498229283
    H                0.391753980454142    -3.665815328956679    -0.863638498229283
    C                1.015763980454142     2.931544671043320     0.975911501770717
    C                2.337763980454142     2.204544671043320     0.544911501770717
    H                0.893763980454142     3.866544671043320     0.425911501770717
    H                0.154763980454142     2.296544671043320     0.777911501770717
    H                1.048763980454142     3.157544671043320     2.031911501770717
    H                2.290763980454142     1.966544671043320    -0.522088498229283
    H                3.215473980454142     2.839784671043320     0.734911501770717
    H                2.444123980454142     1.272694671043320     1.119661501770717

}
e, wfn = energy('scf', return_wfn=True)
gdma(wfn)
dmavals = variable('DMA DISTRIBUTED MULTIPOLES')
charges = np.array(dmavals)
print(charges)
np.save('SSI-190PHE-199LEU-1-dimer.npy', np.array(charges))--------------------------------------------------------------------------

*** tstart() called on ds3
*** at Tue Apr 28 03:49:19 2020

   => Loading Basis Set <=

    Name: CC-PVDZ
    Role: ORBITAL
    Keyword: BASIS
    atoms 1-7, 16-17  entry C          line   138 file /theoryfs2/ds/metcalf/miniconda2/envs/tf2gpu/share/psi4/basis/cc-pvdz.gbs
    atoms 8-15, 18-23 entry H          line    22 file /theoryfs2/ds/metcalf/miniconda2/envs/tf2gpu/share/psi4/basis/cc-pvdz.gbs

         ---------------------------------------------------------
                                   SCF
               by Justin Turney, Rob Parrish, Andy Simmonett
                          and Daniel G. A. Smith
                              RHF Reference
                        1 Threads,    500 MiB Core
         ---------------------------------------------------------

  ==> Geometry <==

    Molecular point group: c1
    Full point group: C1

    Geometry (in Angstrom), charge = 0, multiplicity = 1:

       Center              X                  Y                   Z               Mass
    ------------   -----------------  -----------------  -----------------  -----------------
         C            0.751763980454    -2.924455328957    -0.135088498229    12.000000000000
         C           -1.559236019546     0.730544671043    -0.357088498229    12.000000000000
         C           -0.755236019546     0.319544671043    -1.446088498229    12.000000000000
         C           -1.577236019546    -0.042455328957     0.823911501771    12.000000000000
         C           -0.005236019546    -0.849455328957    -1.347088498229    12.000000000000
         C           -0.818236019546    -1.214455328957     0.897911501771    12.000000000000
         C           -0.031236019546    -1.622455328957    -0.189088498229    12.000000000000
         H           -2.157236019546     1.634544671043    -0.416088498229     1.007825032230
         H           -0.714236019546     0.900544671043    -2.360088498229     1.007825032230
         H           -2.174236019546     0.263544671043     1.674911501771     1.007825032230
         H            0.606763980454    -1.171455328957    -2.175088498229     1.007825032230
         H           -0.840236019546    -1.812455328957     1.800911501771     1.007825032230
         H            0.688763980454    -3.295455328957     0.889911501771     1.007825032230
         H            1.784763980454    -2.691455328957    -0.359088498229     1.007825032230
         H            0.391753980454    -3.665815328957    -0.863638498229     1.007825032230
         C            1.015763980454     2.931544671043     0.975911501771    12.000000000000
         C            2.337763980454     2.204544671043     0.544911501771    12.000000000000
         H            0.893763980454     3.866544671043     0.425911501771     1.007825032230
         H            0.154763980454     2.296544671043     0.777911501771     1.007825032230
         H            1.048763980454     3.157544671043     2.031911501771     1.007825032230
         H            2.290763980454     1.966544671043    -0.522088498229     1.007825032230
         H            3.215473980454     2.839784671043     0.734911501771     1.007825032230
         H            2.444123980454     1.272694671043     1.119661501771     1.007825032230

  Running in c1 symmetry.

  Rotational constants: A =      0.06323  B =      0.03082  C =      0.02706 [cm^-1]
  Rotational constants: A =   1895.69189  B =    924.06819  C =    811.13101 [MHz]
  Nuclear repulsion =  415.081894050568508

  Charge       = 0
  Multiplicity = 1
  Electrons    = 68
  Nalpha       = 34
  Nbeta        = 34

  ==> Algorithm <==

  SCF Algorithm Type is PK.
  DIIS enabled.
  MOM disabled.
  Fractional occupation disabled.
  Guess Type is SAD.
  Energy threshold   = 1.00e-06
  Density threshold  = 1.00e-10
  Integral threshold = 0.00e+00

  ==> Primary Basis <==

  Basis Set: CC-PVDZ
    Blend: CC-PVDZ
    Number of shells: 96
    Number of basis function: 196
    Number of Cartesian functions: 205
    Spherical Harmonics?: true
    Max angular momentum: 2

  ==> Pre-Iterations <==

   -------------------------------------------------------
    Irrep   Nso     Nmo     Nalpha   Nbeta   Ndocc  Nsocc
   -------------------------------------------------------
     A        196     196       0       0       0       0
   -------------------------------------------------------
    Total     196     196      34      34      34       0
   -------------------------------------------------------

  ==> Integral Setup <==

  Using integral reordering PK algorithm.
  Sizing the integral batches needed.
  Building batch lookup table.
   Calculation information:
      Number of atoms:                  23
      Number of AO shells:              96
      Number of primitives:            268
      Number of atomic orbitals:       205
      Number of basis functions:       196

      Integral cutoff                 1.00e-12
      Number of threads:                 1

	Batch   1 pq = [       0,    9405] index = [             0,44231715] size =     44231715
	Batch   2 pq = [    9405,   13301] index = [      44231715,88464951] size =     44233236
	Batch   3 pq = [   13301,   16290] index = [      88464951,132690195] size =     44225244
	Batch   4 pq = [   16290,   18810] index = [     132690195,176917455] size =     44227260
	Batch   5 pq = [   18810,   19306] index = [     176917455,186370471] size =      9453016
  Task number: 17
  Buffer size: 11059200
  Buffer per thread: 2
  We computed 10517515 shell quartets total.
  Whereas there are 10841496 unique shell quartets.

  ==> DiskJK: Disk-Based J/K Matrices <==

    J tasked:                  Yes
    K tasked:                  Yes
    wK tasked:                  No
    Memory [MiB]:              375
    Schwarz Cutoff:          1E-12

    OpenMP threads:              1

  Minimum eigenvalue in the overlap matrix is 3.2955315665E-04.
  Using Symmetric Orthogonalization.

  SCF Guess: Superposition of Atomic Densities via on-the-fly atomic UHF.

  ==> Iterations <==

                        Total Energy        Delta E     RMS |[F,P]|

   @RHF iter SAD:  -347.69085749212502   -3.47691e+02   0.00000e+00
   @RHF iter   1:  -348.77217037931314   -1.08131e+00   2.83449e-03 DIIS
   @RHF iter   2:  -348.95831320787755   -1.86143e-01   1.16771e-03 DIIS
   @RHF iter   3:  -348.98699047674398   -2.86773e-02   2.58923e-04 DIIS
   @RHF iter   4:  -348.98941932144572   -2.42884e-03   6.20937e-05 DIIS
   @RHF iter   5:  -348.98951431699686   -9.49956e-05   2.06083e-05 DIIS
   @RHF iter   6:  -348.98952476871636   -1.04517e-05   5.11799e-06 DIIS
   @RHF iter   7:  -348.98952552805321   -7.59337e-07   1.21022e-06 DIIS
   @RHF iter   8:  -348.98952558579026   -5.77371e-08   3.55677e-07 DIIS
   @RHF iter   9:  -348.98952559557767   -9.78741e-09   1.72621e-07 DIIS
   @RHF iter  10:  -348.98952559810891   -2.53124e-09   8.33238e-08 DIIS
   @RHF iter  11:  -348.98952559902636   -9.17453e-10   3.20229e-08 DIIS
   @RHF iter  12:  -348.98952559911964   -9.32801e-11   1.36241e-08 DIIS
   @RHF iter  13:  -348.98952559913221   -1.25624e-11   4.15661e-09 DIIS
   @RHF iter  14:  -348.98952559913312   -9.09495e-13   1.21225e-09 DIIS
   @RHF iter  15:  -348.98952559913158    1.53477e-12   4.92535e-10 DIIS
   @RHF iter  16:  -348.98952559913386   -2.27374e-12   2.19256e-10 DIIS
   @RHF iter  17:  -348.98952559913317    6.82121e-13   7.90471e-11 DIIS
  Energy and wave function converged.

  ==> Post-Iterations <==

    Orbital Energies [Eh]
    ---------------------

    Doubly Occupied:

       1A    -11.243149     2A    -11.241192     3A    -11.240740
       4A    -11.238595     5A    -11.234580     6A    -11.231672
       7A    -11.231071     8A    -11.213553     9A    -11.206706
      10A     -1.148602    11A     -1.040235    12A     -1.011832
      13A     -0.997977    14A     -0.929974    15A     -0.831200
      16A     -0.823405    17A     -0.796542    18A     -0.688801
      19A     -0.631407    20A     -0.629491    21A     -0.585247
      22A     -0.584372    23A     -0.582566    24A     -0.576589
      25A     -0.559883    26A     -0.539186    27A     -0.491430
      28A     -0.485648    29A     -0.482175    30A     -0.480652
      31A     -0.479785    32A     -0.473011    33A     -0.333712
      34A     -0.319104

    Virtual:

      35A      0.132538    36A      0.136802    37A      0.176092
      38A      0.198490    39A      0.204094    40A      0.214450
      41A      0.237504    42A      0.247085    43A      0.256430
      44A      0.262637    45A      0.268232    46A      0.273299
      47A      0.281672    48A      0.291605    49A      0.301184
      50A      0.332080    51A      0.360917    52A      0.371006
      53A      0.395843    54A      0.444922    55A      0.453690
      56A      0.471811    57A      0.499188    58A      0.564346
      59A      0.580984    60A      0.593228    61A      0.598442
      62A      0.623186    63A      0.629522    64A      0.663684
      65A      0.676235    66A      0.679527    67A      0.697277
      68A      0.705321    69A      0.733404    70A      0.735472
      71A      0.744428    72A      0.757987    73A      0.769223
      74A      0.778809    75A      0.789237    76A      0.824477
      77A      0.828816    78A      0.844326    79A      0.855210
      80A      0.862924    81A      0.879446    82A      0.888841
      83A      0.894352    84A      0.896180    85A      0.907662
      86A      0.912438    87A      0.916064    88A      0.927581
      89A      0.933980    90A      0.941816    91A      0.946498
      92A      0.966931    93A      0.989339    94A      0.999175
      95A      1.040972    96A      1.070561    97A      1.107174
      98A      1.127968    99A      1.130930   100A      1.147046
     101A      1.152516   102A      1.168801   103A      1.199132
     104A      1.226102   105A      1.234496   106A      1.246564
     107A      1.255201   108A      1.290863   109A      1.299377
     110A      1.308731   111A      1.316606   112A      1.366465
     113A      1.415374   114A      1.470083   115A      1.477786
     116A      1.503856   117A      1.524266   118A      1.554325
     119A      1.585955   120A      1.604582   121A      1.671762
     122A      1.684990   123A      1.693700   124A      1.699551
     125A      1.732319   126A      1.738655   127A      1.766318
     128A      1.788348   129A      1.803168   130A      1.843624
     131A      1.864841   132A      1.874536   133A      1.879634
     134A      1.891254   135A      1.891660   136A      1.900930
     137A      1.914042   138A      1.928094   139A      1.933608
     140A      1.939343   141A      1.945268   142A      1.948892
     143A      1.955789   144A      1.962236   145A      1.966826
     146A      1.982604   147A      1.996578   148A      2.015891
     149A      2.033271   150A      2.045753   151A      2.081021
     152A      2.102661   153A      2.109603   154A      2.117111
     155A      2.125408   156A      2.142938   157A      2.146713
     158A      2.160204   159A      2.197524   160A      2.229621
     161A      2.264126   162A      2.280318   163A      2.286724
     164A      2.300251   165A      2.302360   166A      2.338277
     167A      2.351706   168A      2.436718   169A      2.458844
     170A      2.467359   171A      2.473284   172A      2.516948
     173A      2.526891   174A      2.566513   175A      2.577049
     176A      2.617132   177A      2.720818   178A      2.739825
     179A      2.755647   180A      2.771272   181A      2.781125
     182A      2.795289   183A      2.820328   184A      2.835589
     185A      2.857829   186A      2.864501   187A      2.872978
     188A      2.959730   189A      2.961514   190A      2.967339
     191A      2.982682   192A      3.056305   193A      3.131582
     194A      3.183002   195A      3.274435   196A      3.929340

    Final Occupation by Irrep:
              A
    DOCC [    34 ]

  @RHF Final Energy:  -348.98952559913317

   => Energetics <=

    Nuclear Repulsion Energy =            415.0818940505685077
    One-Electron Energy =               -1292.9746710875313056
    Two-Electron Energy =                 528.9032514378295673
    Total Energy =                       -348.9895255991332306

Computation Completed

Properties will be evaluated at   0.000000,   0.000000,   0.000000 [a0]

Properties computed using the SCF density matrix

  Nuclear Dipole Moment: [e a0]
     X:     7.1564      Y:     5.2139      Z:     2.5874

  Electronic Dipole Moment: [e a0]
     X:    -7.1570      Y:    -5.4186      Z:    -2.6250

  Dipole Moment: [e a0]
     X:    -0.0006      Y:    -0.2047      Z:    -0.0376     Total:     0.2081

  Dipole Moment: [D]
     X:    -0.0015      Y:    -0.5203      Z:    -0.0956     Total:     0.5290

*** tstop() called on ds3 at Tue Apr 28 03:50:55 2020
Module time:
	user time   =      73.45 seconds =       1.22 minutes
	system time =      25.80 seconds =       0.43 minutes
	total time  =         96 seconds =       1.60 minutes
Total time:
	user time   =      73.45 seconds =       1.22 minutes
	system time =      25.80 seconds =       0.43 minutes
	total time  =         96 seconds =       1.60 minutes
                                     G D M A

                                 by Anthony Stone

                           version 2.2.06, 22 June 2011

               Distributed Multipoles from Gaussian wavefunctions

Starting at 3:50:55 on 28 Apr 2020

Using SCF density matrix from file ./SSI/SSI-190PHE-199LEU-1-dimer.test.25214.fchk

                         Distributed Multipole Analysis

Standard DMA

Positions and radii in angstrom
Multipole moments in atomic units, ea_0^k for rank k

C          x =  0.751764  y = -2.924455  z = -0.135088 angstrom
           Maximum rank =  0   Radius =  0.650 angstrom
                   Q00  =  -0.191925

C          x = -1.559236  y =  0.730545  z = -0.357088 angstrom
           Maximum rank =  0   Radius =  0.650 angstrom
                   Q00  =  -0.106625

C          x = -0.755236  y =  0.319545  z = -1.446088 angstrom
           Maximum rank =  0   Radius =  0.650 angstrom
                   Q00  =  -0.080909

C          x = -1.577236  y = -0.042455  z =  0.823912 angstrom
           Maximum rank =  0   Radius =  0.650 angstrom
                   Q00  =  -0.080073

C          x = -0.005236  y = -0.849455  z = -1.347088 angstrom
           Maximum rank =  0   Radius =  0.650 angstrom
                   Q00  =  -0.005682

C          x = -0.818236  y = -1.214455  z =  0.897912 angstrom
           Maximum rank =  0   Radius =  0.650 angstrom
                   Q00  =  -0.049046

C          x = -0.031236  y = -1.622455  z = -0.189088 angstrom
           Maximum rank =  0   Radius =  0.650 angstrom
                   Q00  =  -0.112524

H          x = -2.157236  y =  1.634545  z = -0.416088 angstrom
           Maximum rank =  0   Radius =  0.325 angstrom
                   Q00  =   0.068126

H          x = -0.714236  y =  0.900545  z = -2.360088 angstrom
           Maximum rank =  0   Radius =  0.325 angstrom
                   Q00  =   0.068905

H          x = -2.174236  y =  0.263545  z =  1.674912 angstrom
           Maximum rank =  0   Radius =  0.325 angstrom
                   Q00  =   0.069848

H          x =  0.606764  y = -1.171455  z = -2.175088 angstrom
           Maximum rank =  0   Radius =  0.325 angstrom
                   Q00  =   0.055427

H          x = -0.840236  y = -1.812455  z =  1.800912 angstrom
           Maximum rank =  0   Radius =  0.325 angstrom
                   Q00  =   0.061324

H          x =  0.688764  y = -3.295455  z =  0.889912 angstrom
           Maximum rank =  0   Radius =  0.325 angstrom
                   Q00  =   0.096749

H          x =  1.784764  y = -2.691455  z = -0.359088 angstrom
           Maximum rank =  0   Radius =  0.325 angstrom
                   Q00  =   0.101775

H          x =  0.391754  y = -3.665815  z = -0.863638 angstrom
           Maximum rank =  0   Radius =  0.325 angstrom
                   Q00  =   0.104557

C          x =  1.015764  y =  2.931545  z =  0.975912 angstrom
           Maximum rank =  0   Radius =  0.650 angstrom
                   Q00  =  -0.255469

C          x =  2.337764  y =  2.204545  z =  0.544912 angstrom
           Maximum rank =  0   Radius =  0.650 angstrom
                   Q00  =  -0.244939

H          x =  0.893764  y =  3.866545  z =  0.425912 angstrom
           Maximum rank =  0   Radius =  0.325 angstrom
                   Q00  =   0.073289

H          x =  0.154764  y =  2.296545  z =  0.777912 angstrom
           Maximum rank =  0   Radius =  0.325 angstrom
                   Q00  =   0.110298

H          x =  1.048764  y =  3.157545  z =  2.031912 angstrom
           Maximum rank =  0   Radius =  0.325 angstrom
                   Q00  =   0.076734

H          x =  2.290764  y =  1.966545  z = -0.522088 angstrom
           Maximum rank =  0   Radius =  0.325 angstrom
                   Q00  =   0.082003

H          x =  3.215474  y =  2.839785  z =  0.734911 angstrom
           Maximum rank =  0   Radius =  0.325 angstrom
                   Q00  =   0.076013

H          x =  2.444124  y =  1.272695  z =  1.119662 angstrom
           Maximum rank =  0   Radius =  0.325 angstrom
                   Q00  =   0.082141

Total multipoles referred to origin at
           x =   0.000000,  y =    0.000000,  z =    0.000000 angstrom
                   Q00  =  -0.000000

Finished at 3:50:55 on 28 Apr 2020

  DMA results are available in the Python driver through the
	  variable('DMA DISTRIBUTED MULTIPOLES')
  and
	  variable('DMA TOTAL MULTIPOLES')
  commands.

    Psi4 stopped on: Tuesday, 28 April 2020 03:50AM
    Psi4 wall time for execution: 0:01:36.21

*** Psi4 exiting successfully. Buy a developer a beer!
