                               Psi4 1.3.2 release

  ==> Input File <==

--------------------------------------------------------------------------
import numpy as np
set {scf_type pk
basis cc-pvdz
d_convergence 10
gdma_switch   0
gdma_limit    0
gdma_origin   [ 0.0,  0.0,  0.0 ]
}
molecule test {
    units Angstrom
    0 1
    --
    0 1
    C               -0.080787988747655    -2.748684523450126     0.549311398397668
    C                0.909212011252345    -3.883684523450126     0.312311398397668
    C                0.235212011252345    -1.965684523450126     1.767311398397668
    H               -0.110787988747655    -2.074684523450126    -0.296688601602332
    H               -1.082787988747654    -3.167684523450126     0.657311398397668
    H                0.490212011252345    -4.474684523450126    -0.504688601602332
    H                1.289212011252345    -1.706684523450126     1.814311398397668
    H               -0.354787988747655    -1.048684523450126     1.770311398397668
    H               -0.042787988747655    -2.543684523450126     2.646311398397668
    H                1.901502011252345    -3.527974523450126    -0.002056601602332
    H                0.990372011252346    -4.553094523450127     1.181391398397668
    C                0.078212011252345     0.602315476549874    -0.936688601602332
    C               -1.378787988747654     2.975315476549873    -0.982688601602332
    S                0.146212011252345     2.291315476549874    -0.290688601602332
    H                0.114212011252345     0.608315476549874    -2.024688601602332
    H                0.929212011252346     0.039315476549874    -0.555688601602332
    H               -0.846787988747654     0.126315476549874    -0.610688601602332
    H               -1.487787988747654     3.989315476549874    -0.597688601602332
    H               -2.223787988747655     2.397315476549874    -0.622688601602332
    H               -1.382407988747655     3.024605476549874    -2.081577601602332

}
e, wfn = energy('scf', return_wfn=True)
gdma(wfn)
dmavals = variable('DMA DISTRIBUTED MULTIPOLES')
charges = np.array(dmavals)
print(charges)
np.save('SSI-014ILE-088MET-1-dimer.npy', np.array(charges))--------------------------------------------------------------------------

*** tstart() called on ds3
*** at Sun Apr 26 17:59:20 2020

   => Loading Basis Set <=

    Name: CC-PVDZ
    Role: ORBITAL
    Keyword: BASIS
    atoms 1-3, 12-13  entry C          line   138 file /theoryfs2/ds/metcalf/miniconda2/envs/tf2gpu/share/psi4/basis/cc-pvdz.gbs
    atoms 4-11, 15-20 entry H          line    22 file /theoryfs2/ds/metcalf/miniconda2/envs/tf2gpu/share/psi4/basis/cc-pvdz.gbs
    atoms 14          entry S          line   598 file /theoryfs2/ds/metcalf/miniconda2/envs/tf2gpu/share/psi4/basis/cc-pvdz.gbs

         ---------------------------------------------------------
                                   SCF
               by Justin Turney, Rob Parrish, Andy Simmonett
                          and Daniel G. A. Smith
                              RHF Reference
                        1 Threads,    500 MiB Core
         ---------------------------------------------------------

  ==> Geometry <==

    Molecular point group: c1
    Full point group: C1

    Geometry (in Angstrom), charge = 0, multiplicity = 1:

       Center              X                  Y                   Z               Mass
    ------------   -----------------  -----------------  -----------------  -----------------
         C           -0.080787988748    -2.748684523450     0.549311398398    12.000000000000
         C            0.909212011252    -3.883684523450     0.312311398398    12.000000000000
         C            0.235212011252    -1.965684523450     1.767311398398    12.000000000000
         H           -0.110787988748    -2.074684523450    -0.296688601602     1.007825032230
         H           -1.082787988748    -3.167684523450     0.657311398398     1.007825032230
         H            0.490212011252    -4.474684523450    -0.504688601602     1.007825032230
         H            1.289212011252    -1.706684523450     1.814311398398     1.007825032230
         H           -0.354787988748    -1.048684523450     1.770311398398     1.007825032230
         H           -0.042787988748    -2.543684523450     2.646311398398     1.007825032230
         H            1.901502011252    -3.527974523450    -0.002056601602     1.007825032230
         H            0.990372011252    -4.553094523450     1.181391398398     1.007825032230
         C            0.078212011252     0.602315476550    -0.936688601602    12.000000000000
         C           -1.378787988748     2.975315476550    -0.982688601602    12.000000000000
         S            0.146212011252     2.291315476550    -0.290688601602    31.972071174400
         H            0.114212011252     0.608315476550    -2.024688601602     1.007825032230
         H            0.929212011252     0.039315476550    -0.555688601602     1.007825032230
         H           -0.846787988748     0.126315476550    -0.610688601602     1.007825032230
         H           -1.487787988748     3.989315476550    -0.597688601602     1.007825032230
         H           -2.223787988748     2.397315476550    -0.622688601602     1.007825032230
         H           -1.382407988748     3.024605476550    -2.081577601602     1.007825032230

  Running in c1 symmetry.

  Rotational constants: A =      0.19692  B =      0.02104  C =      0.02062 [cm^-1]
  Rotational constants: A =   5903.43462  B =    630.83131  C =    618.17048 [MHz]
  Nuclear repulsion =  286.156937112475987

  Charge       = 0
  Multiplicity = 1
  Electrons    = 60
  Nalpha       = 30
  Nbeta        = 30

  ==> Algorithm <==

  SCF Algorithm Type is PK.
  DIIS enabled.
  MOM disabled.
  Fractional occupation disabled.
  Guess Type is SAD.
  Energy threshold   = 1.00e-06
  Density threshold  = 1.00e-10
  Integral threshold = 0.00e+00

  ==> Primary Basis <==

  Basis Set: CC-PVDZ
    Blend: CC-PVDZ
    Number of shells: 80
    Number of basis function: 158
    Number of Cartesian functions: 164
    Spherical Harmonics?: true
    Max angular momentum: 2

  ==> Pre-Iterations <==

   -------------------------------------------------------
    Irrep   Nso     Nmo     Nalpha   Nbeta   Ndocc  Nsocc
   -------------------------------------------------------
     A        158     158       0       0       0       0
   -------------------------------------------------------
    Total     158     158      30      30      30       0
   -------------------------------------------------------

  ==> Integral Setup <==

  Using integral reordering PK algorithm.
  Sizing the integral batches needed.
  Building batch lookup table.
   Calculation information:
      Number of atoms:                  20
      Number of AO shells:              80
      Number of primitives:            230
      Number of atomic orbitals:       164
      Number of basis functions:       158

      Integral cutoff                 1.00e-12
      Number of threads:                 1

	Batch   1 pq = [       0,    9405] index = [             0,44231715] size =     44231715
	Batch   2 pq = [    9405,   12561] index = [      44231715,78895641] size =     34663926
  Task number: 8
  Buffer size: 11059200
  Buffer per thread: 2
  We computed 4235995 shell quartets total.
  Whereas there are 5250420 unique shell quartets.

  ==> DiskJK: Disk-Based J/K Matrices <==

    J tasked:                  Yes
    K tasked:                  Yes
    wK tasked:                  No
    Memory [MiB]:              375
    Schwarz Cutoff:          1E-12

    OpenMP threads:              1

  Minimum eigenvalue in the overlap matrix is 5.0391689531E-03.
  Using Symmetric Orthogonalization.

  SCF Guess: Superposition of Atomic Densities via on-the-fly atomic UHF.

  ==> Iterations <==

                        Total Energy        Delta E     RMS |[F,P]|

   @RHF iter SAD:  -593.99762103345745   -5.93998e+02   0.00000e+00
   @RHF iter   1:  -594.84282310555352   -8.45202e-01   3.21838e-03 DIIS
   @RHF iter   2:  -594.99635192205756   -1.53529e-01   1.33761e-03 DIIS
   @RHF iter   3:  -595.02085610299957   -2.45042e-02   3.05142e-04 DIIS
   @RHF iter   4:  -595.02320977293516   -2.35367e-03   5.03050e-05 DIIS
   @RHF iter   5:  -595.02326378527857   -5.40123e-05   1.23883e-05 DIIS
   @RHF iter   6:  -595.02326708686803   -3.30159e-06   2.67090e-06 DIIS
   @RHF iter   7:  -595.02326724759200   -1.60724e-07   5.42301e-07 DIIS
   @RHF iter   8:  -595.02326725801561   -1.04236e-08   1.56435e-07 DIIS
   @RHF iter   9:  -595.02326725882665   -8.11042e-10   4.79227e-08 DIIS
   @RHF iter  10:  -595.02326725890953   -8.28777e-11   1.48534e-08 DIIS
   @RHF iter  11:  -595.02326725891578   -6.25278e-12   3.59362e-09 DIIS
   @RHF iter  12:  -595.02326725891828   -2.50111e-12   1.22391e-09 DIIS
   @RHF iter  13:  -595.02326725891805    2.27374e-13   3.69132e-10 DIIS
   @RHF iter  14:  -595.02326725891680    1.25056e-12   1.24658e-10 DIIS
   @RHF iter  15:  -595.02326725891726   -4.54747e-13   4.51725e-11 DIIS
  Energy and wave function converged.

  ==> Post-Iterations <==

    Orbital Energies [Eh]
    ---------------------

    Doubly Occupied:

       1A    -91.936738     2A    -11.256944     3A    -11.255987
       4A    -11.218576     5A    -11.216399     6A    -11.210120
       7A     -8.940105     8A     -6.622161     9A     -6.620574
      10A     -6.618333    11A     -1.065348    12A     -1.059396
      13A     -0.952486    14A     -0.928447    15A     -0.807224
      16A     -0.796763    17A     -0.634290    18A     -0.605251
      19A     -0.600715    20A     -0.595034    21A     -0.574205
      22A     -0.564240    23A     -0.554040    24A     -0.536038
      25A     -0.496629    26A     -0.477467    27A     -0.467073
      28A     -0.465839    29A     -0.427095    30A     -0.332418

    Virtual:

      31A      0.166635    32A      0.181337    33A      0.197237
      34A      0.212999    35A      0.221152    36A      0.235905
      37A      0.241140    38A      0.246036    39A      0.260025
      40A      0.266056    41A      0.281608    42A      0.288118
      43A      0.296186    44A      0.304794    45A      0.314235
      46A      0.334062    47A      0.385572    48A      0.431068
      49A      0.508405    50A      0.557610    51A      0.580837
      52A      0.598701    53A      0.606101    54A      0.611600
      55A      0.620218    56A      0.640289    57A      0.658419
      58A      0.693230    59A      0.700451    60A      0.728615
      61A      0.775367    62A      0.782506    63A      0.805344
      64A      0.811467    65A      0.828992    66A      0.848438
      67A      0.855471    68A      0.871353    69A      0.879762
      70A      0.887351    71A      0.889650    72A      0.896209
      73A      0.898011    74A      0.902288    75A      0.908940
      76A      0.913424    77A      0.914861    78A      0.925414
      79A      0.942521    80A      0.947897    81A      0.961108
      82A      0.979860    83A      1.008586    84A      1.036301
      85A      1.121339    86A      1.135018    87A      1.170790
      88A      1.218655    89A      1.264195    90A      1.301298
      91A      1.309462    92A      1.366414    93A      1.387223
      94A      1.413045    95A      1.444140    96A      1.459961
      97A      1.474386    98A      1.495451    99A      1.528811
     100A      1.653921   101A      1.667996   102A      1.671210
     103A      1.685236   104A      1.689699   105A      1.705552
     106A      1.860637   107A      1.864531   108A      1.875185
     109A      1.877967   110A      1.892084   111A      1.897826
     112A      1.908014   113A      1.915663   114A      1.931557
     115A      1.939907   116A      1.958663   117A      1.969294
     118A      1.981909   119A      1.985283   120A      1.988999
     121A      2.004146   122A      2.014470   123A      2.019808
     124A      2.021659   125A      2.058245   126A      2.065394
     127A      2.098004   128A      2.149881   129A      2.174507
     130A      2.228924   131A      2.241181   132A      2.307935
     133A      2.327470   134A      2.329531   135A      2.360979
     136A      2.406444   137A      2.436451   138A      2.449622
     139A      2.461411   140A      2.491578   141A      2.532302
     142A      2.571526   143A      2.628646   144A      2.633867
     145A      2.729447   146A      2.752428   147A      2.760386
     148A      2.774246   149A      2.777881   150A      2.796252
     151A      2.799791   152A      2.820216   153A      2.844054
     154A      2.848926   155A      2.920681   156A      2.973073
     157A      3.003147   158A      3.070557

    Final Occupation by Irrep:
              A
    DOCC [    30 ]

  @RHF Final Energy:  -595.02326725891726

   => Energetics <=

    Nuclear Repulsion Energy =            286.1569371124759869
    One-Electron Energy =               -1382.6885377921616964
    Two-Electron Energy =                 501.5083334207683947
    Total Energy =                       -595.0232672589172580

Computation Completed

Properties will be evaluated at   0.000000,   0.000000,   0.000000 [a0]

Properties computed using the SCF density matrix

  Nuclear Dipole Moment: [e a0]
     X:    -1.6997      Y:   -12.0441      Z:     0.7172

  Electronic Dipole Moment: [e a0]
     X:     1.1995      Y:    11.7714      Z:    -1.0987

  Dipole Moment: [e a0]
     X:    -0.5002      Y:    -0.2727      Z:    -0.3815     Total:     0.6857

  Dipole Moment: [D]
     X:    -1.2714      Y:    -0.6932      Z:    -0.9697     Total:     1.7428

*** tstop() called on ds3 at Sun Apr 26 18:00:01 2020
Module time:
	user time   =      30.98 seconds =       0.52 minutes
	system time =      10.93 seconds =       0.18 minutes
	total time  =         41 seconds =       0.68 minutes
Total time:
	user time   =      30.98 seconds =       0.52 minutes
	system time =      10.93 seconds =       0.18 minutes
	total time  =         41 seconds =       0.68 minutes
                                     G D M A

                                 by Anthony Stone

                           version 2.2.06, 22 June 2011

               Distributed Multipoles from Gaussian wavefunctions

Starting at 18:0:1 on 26 Apr 2020

Using SCF density matrix from file ./SSI/SSI-014ILE-088MET-1-dimer.test.9807.fchk

                         Distributed Multipole Analysis

Standard DMA

Positions and radii in angstrom
Multipole moments in atomic units, ea_0^k for rank k

C          x = -0.080788  y = -2.748685  z =  0.549311 angstrom
           Maximum rank =  0   Radius =  0.650 angstrom
                   Q00  =  -0.059366

C          x =  0.909212  y = -3.883685  z =  0.312311 angstrom
           Maximum rank =  0   Radius =  0.650 angstrom
                   Q00  =  -0.254771

C          x =  0.235212  y = -1.965685  z =  1.767311 angstrom
           Maximum rank =  0   Radius =  0.650 angstrom
                   Q00  =  -0.230970

H          x = -0.110788  y = -2.074685  z = -0.296689 angstrom
           Maximum rank =  0   Radius =  0.325 angstrom
                   Q00  =   0.037501

H          x = -1.082788  y = -3.167685  z =  0.657311 angstrom
           Maximum rank =  0   Radius =  0.325 angstrom
                   Q00  =   0.042501

H          x =  0.490212  y = -4.474685  z = -0.504689 angstrom
           Maximum rank =  0   Radius =  0.325 angstrom
                   Q00  =   0.077114

H          x =  1.289212  y = -1.706685  z =  1.814311 angstrom
           Maximum rank =  0   Radius =  0.325 angstrom
                   Q00  =   0.072393

H          x = -0.354788  y = -1.048685  z =  1.770311 angstrom
           Maximum rank =  0   Radius =  0.325 angstrom
                   Q00  =   0.076645

H          x = -0.042788  y = -2.543685  z =  2.646311 angstrom
           Maximum rank =  0   Radius =  0.325 angstrom
                   Q00  =   0.076452

H          x =  1.901502  y = -3.527975  z = -0.002057 angstrom
           Maximum rank =  0   Radius =  0.325 angstrom
                   Q00  =   0.079837

H          x =  0.990372  y = -4.553095  z =  1.181391 angstrom
           Maximum rank =  0   Radius =  0.325 angstrom
                   Q00  =   0.079341

C          x =  0.078212  y =  0.602315  z = -0.936689 angstrom
           Maximum rank =  0   Radius =  0.650 angstrom
                   Q00  =  -0.348103

C          x = -1.378788  y =  2.975315  z = -0.982689 angstrom
           Maximum rank =  0   Radius =  0.650 angstrom
                   Q00  =  -0.372339

S          x =  0.146212  y =  2.291315  z = -0.290689 angstrom
           Maximum rank =  0   Radius =  0.650 angstrom
                   Q00  =   0.130355

H          x =  0.114212  y =  0.608315  z = -2.024689 angstrom
           Maximum rank =  0   Radius =  0.325 angstrom
                   Q00  =   0.090487

H          x =  0.929212  y =  0.039315  z = -0.555689 angstrom
           Maximum rank =  0   Radius =  0.325 angstrom
                   Q00  =   0.120585

H          x = -0.846788  y =  0.126315  z = -0.610689 angstrom
           Maximum rank =  0   Radius =  0.325 angstrom
                   Q00  =   0.083188

H          x = -1.487788  y =  3.989315  z = -0.597689 angstrom
           Maximum rank =  0   Radius =  0.325 angstrom
                   Q00  =   0.120527

H          x = -2.223788  y =  2.397315  z = -0.622689 angstrom
           Maximum rank =  0   Radius =  0.325 angstrom
                   Q00  =   0.087812

H          x = -1.382408  y =  3.024605  z = -2.081578 angstrom
           Maximum rank =  0   Radius =  0.325 angstrom
                   Q00  =   0.090808

Total multipoles referred to origin at
           x =   0.000000,  y =    0.000000,  z =    0.000000 angstrom
                   Q00  =  -0.000000

Finished at 18:0:1 on 26 Apr 2020

  DMA results are available in the Python driver through the
	  variable('DMA DISTRIBUTED MULTIPOLES')
  and
	  variable('DMA TOTAL MULTIPOLES')
  commands.

    Psi4 stopped on: Sunday, 26 April 2020 06:00PM
    Psi4 wall time for execution: 0:00:41.09

*** Psi4 exiting successfully. Buy a developer a beer!
