                               Psi4 1.3.2 release

  ==> Input File <==

--------------------------------------------------------------------------
import numpy as np
set {scf_type pk
basis cc-pvdz
d_convergence 10
gdma_switch   0
gdma_limit    0
gdma_origin   [ 0.0,  0.0,  0.0 ]
}
molecule test {
    units Angstrom
    -1 1
    --
    -1 1
    C                2.749340284084790    -2.392978732403286    -1.767589230998960
    C                2.477340284084791    -2.500978732403286    -0.305589230998960
    O                1.386340284084791    -2.070978732403286     0.102410769001040
    O                3.351340284084791    -2.990978732403286     0.438410769001040
    H                3.776340284084790    -2.700978732403286    -1.976589230998960
    H                2.645340284084791    -1.351978732403286    -2.056589230998960
    H                2.050470284084791    -3.003672632403286    -2.358049230998960
    C               -2.344659715915210     3.649021267596714     1.820410769001040
    C               -0.152659715915209     0.751021267596714     0.547410769001040
    C               -0.600659715915209     1.852021267596714     1.277410769001040
    C               -0.892659715915209     0.297021267596714    -0.550589230998960
    C               -1.791659715915209     2.507021267596714     0.945410769001040
    C               -2.101659715915209     0.912021267596714    -0.853589230998960
    C               -2.537659715915210     2.003021267596714    -0.116589230998960
    O               -0.567659715915209    -0.805978732403286    -1.277589230998960
    H                0.770340284084790     0.258021267596714     0.804410769001040
    H               -0.019659715915209     2.213021267596714     2.112410769001040
    H                0.172340284084791    -1.269978732403286    -0.831589230998960
    H               -2.699659715915209     0.531021267596714    -1.666589230998960
    H               -2.670659715915209     3.204021267596714     2.759410769001041
    H               -3.222659715915209     4.063021267596715     1.333410769001040
    H               -3.485659715915209     2.462021267596714    -0.368589230998960
    H               -1.642559715915209     4.456981267596714     2.073890769001040

}
e, wfn = energy('scf', return_wfn=True)
gdma(wfn)
dmavals = variable('DMA DISTRIBUTED MULTIPOLES')
charges = np.array(dmavals)
print(charges)
np.save('SSI-172ASP-204TYR-1-dimer.npy', np.array(charges))--------------------------------------------------------------------------

*** tstart() called on ds3
*** at Tue Apr 28 03:21:59 2020

   => Loading Basis Set <=

    Name: CC-PVDZ
    Role: ORBITAL
    Keyword: BASIS
    atoms 1-2, 8-14  entry C          line   138 file /theoryfs2/ds/metcalf/miniconda2/envs/tf2gpu/share/psi4/basis/cc-pvdz.gbs
    atoms 3-4, 15    entry O          line   198 file /theoryfs2/ds/metcalf/miniconda2/envs/tf2gpu/share/psi4/basis/cc-pvdz.gbs
    atoms 5-7, 16-23 entry H          line    22 file /theoryfs2/ds/metcalf/miniconda2/envs/tf2gpu/share/psi4/basis/cc-pvdz.gbs

         ---------------------------------------------------------
                                   SCF
               by Justin Turney, Rob Parrish, Andy Simmonett
                          and Daniel G. A. Smith
                              RHF Reference
                        1 Threads,    500 MiB Core
         ---------------------------------------------------------

  ==> Geometry <==

    Molecular point group: c1
    Full point group: C1

    Geometry (in Angstrom), charge = -1, multiplicity = 1:

       Center              X                  Y                   Z               Mass
    ------------   -----------------  -----------------  -----------------  -----------------
         C            2.749340284085    -2.392978732403    -1.767589230999    12.000000000000
         C            2.477340284085    -2.500978732403    -0.305589230999    12.000000000000
         O            1.386340284085    -2.070978732403     0.102410769001    15.994914619570
         O            3.351340284085    -2.990978732403     0.438410769001    15.994914619570
         H            3.776340284085    -2.700978732403    -1.976589230999     1.007825032230
         H            2.645340284085    -1.351978732403    -2.056589230999     1.007825032230
         H            2.050470284085    -3.003672632403    -2.358049230999     1.007825032230
         C           -2.344659715915     3.649021267597     1.820410769001    12.000000000000
         C           -0.152659715915     0.751021267597     0.547410769001    12.000000000000
         C           -0.600659715915     1.852021267597     1.277410769001    12.000000000000
         C           -0.892659715915     0.297021267597    -0.550589230999    12.000000000000
         C           -1.791659715915     2.507021267597     0.945410769001    12.000000000000
         C           -2.101659715915     0.912021267597    -0.853589230999    12.000000000000
         C           -2.537659715915     2.003021267597    -0.116589230999    12.000000000000
         O           -0.567659715915    -0.805978732403    -1.277589230999    15.994914619570
         H            0.770340284085     0.258021267597     0.804410769001     1.007825032230
         H           -0.019659715915     2.213021267597     2.112410769001     1.007825032230
         H            0.172340284085    -1.269978732403    -0.831589230999     1.007825032230
         H           -2.699659715915     0.531021267597    -1.666589230999     1.007825032230
         H           -2.670659715915     3.204021267597     2.759410769001     1.007825032230
         H           -3.222659715915     4.063021267597     1.333410769001     1.007825032230
         H           -3.485659715915     2.462021267597    -0.368589230999     1.007825032230
         H           -1.642559715915     4.456981267597     2.073890769001     1.007825032230

  Running in c1 symmetry.

  Rotational constants: A =      0.07823  B =      0.01137  C =      0.01024 [cm^-1]
  Rotational constants: A =   2345.42603  B =    340.88068  C =    306.98939 [MHz]
  Nuclear repulsion =  638.839325158182760

  Charge       = -1
  Multiplicity = 1
  Electrons    = 90
  Nalpha       = 45
  Nbeta        = 45

  ==> Algorithm <==

  SCF Algorithm Type is PK.
  DIIS enabled.
  MOM disabled.
  Fractional occupation disabled.
  Guess Type is SAD.
  Energy threshold   = 1.00e-06
  Density threshold  = 1.00e-10
  Integral threshold = 0.00e+00

  ==> Primary Basis <==

  Basis Set: CC-PVDZ
    Blend: CC-PVDZ
    Number of shells: 105
    Number of basis function: 223
    Number of Cartesian functions: 235
    Spherical Harmonics?: true
    Max angular momentum: 2

  ==> Pre-Iterations <==

   -------------------------------------------------------
    Irrep   Nso     Nmo     Nalpha   Nbeta   Ndocc  Nsocc
   -------------------------------------------------------
     A        223     223       0       0       0       0
   -------------------------------------------------------
    Total     223     223      45      45      45       0
   -------------------------------------------------------

  ==> Integral Setup <==

  Using integral reordering PK algorithm.
  Sizing the integral batches needed.
  Building batch lookup table.
   Calculation information:
      Number of atoms:                  23
      Number of AO shells:             105
      Number of primitives:            319
      Number of atomic orbitals:       235
      Number of basis functions:       223

      Integral cutoff                 1.00e-12
      Number of threads:                 1

	Batch   1 pq = [       0,    9405] index = [             0,44231715] size =     44231715
	Batch   2 pq = [    9405,   13301] index = [      44231715,88464951] size =     44233236
	Batch   3 pq = [   13301,   16290] index = [      88464951,132690195] size =     44225244
	Batch   4 pq = [   16290,   18810] index = [     132690195,176917455] size =     44227260
	Batch   5 pq = [   18810,   21030] index = [     176917455,221140965] size =     44223510
	Batch   6 pq = [   21030,   23037] index = [     221140965,265363203] size =     44222238
	Batch   7 pq = [   23037,   24976] index = [     265363203,311912776] size =     46549573
  Task number: 29
  Buffer size: 11059200
  Buffer per thread: 2
  We computed 12259368 shell quartets total.
  Whereas there are 15487395 unique shell quartets.

  ==> DiskJK: Disk-Based J/K Matrices <==

    J tasked:                  Yes
    K tasked:                  Yes
    wK tasked:                  No
    Memory [MiB]:              375
    Schwarz Cutoff:          1E-12

    OpenMP threads:              1

  Minimum eigenvalue in the overlap matrix is 3.2387144123E-04.
  Using Symmetric Orthogonalization.

  SCF Guess: Superposition of Atomic Densities via on-the-fly atomic UHF.

  ==> Iterations <==

                        Total Energy        Delta E     RMS |[F,P]|

   @RHF iter SAD:  -570.29673754501869   -5.70297e+02   0.00000e+00
   @RHF iter   1:  -571.56830359298249   -1.27157e+00   3.56090e-03 DIIS
   @RHF iter   2:  -571.83572927666978   -2.67426e-01   1.84042e-03 DIIS
   @RHF iter   3:  -571.89880765490022   -6.30784e-02   3.37365e-04 DIIS
   @RHF iter   4:  -571.90244513258529   -3.63748e-03   1.30946e-04 DIIS
   @RHF iter   5:  -571.90296826481574   -5.23132e-04   2.38373e-05 DIIS
   @RHF iter   6:  -571.90299118795349   -2.29231e-05   1.20355e-05 DIIS
   @RHF iter   7:  -571.90299612221611   -4.93426e-06   3.25315e-06 DIIS
   @RHF iter   8:  -571.90299702820153   -9.05985e-07   1.38970e-06 DIIS
   @RHF iter   9:  -571.90299720691678   -1.78715e-07   6.16752e-07 DIIS
   @RHF iter  10:  -571.90299724880799   -4.18912e-08   2.56401e-07 DIIS
   @RHF iter  11:  -571.90299725692171   -8.11372e-09   1.01747e-07 DIIS
   @RHF iter  12:  -571.90299725809734   -1.17564e-09   4.35327e-08 DIIS
   @RHF iter  13:  -571.90299725828118   -1.83832e-10   1.54941e-08 DIIS
   @RHF iter  14:  -571.90299725830812   -2.69438e-11   6.61402e-09 DIIS
   @RHF iter  15:  -571.90299725830937   -1.25056e-12   2.52592e-09 DIIS
   @RHF iter  16:  -571.90299725831687   -7.50333e-12   9.68519e-10 DIIS
   @RHF iter  17:  -571.90299725831449    2.38742e-12   3.17620e-10 DIIS
   @RHF iter  18:  -571.90299725830948    5.00222e-12   1.19629e-10 DIIS
   @RHF iter  19:  -571.90299725831107   -1.59162e-12   6.04048e-11 DIIS
  Energy and wave function converged.

  ==> Post-Iterations <==

    Orbital Energies [Eh]
    ---------------------

    Doubly Occupied:

       1A    -20.422591     2A    -20.304782     3A    -20.288183
       4A    -11.173919     5A    -11.145312     6A    -11.143171
       7A    -11.129672     8A    -11.128273     9A    -11.126841
      10A    -11.111965    11A    -11.107728    12A    -11.066484
      13A     -1.245054    14A     -1.192016    15A     -1.077208
      16A     -1.035415    17A     -0.923153    18A     -0.901813
      19A     -0.823969    20A     -0.821594    21A     -0.725045
      22A     -0.683433    23A     -0.598729    24A     -0.549713
      25A     -0.534114    26A     -0.521335    27A     -0.492998
      28A     -0.479766    29A     -0.471044    30A     -0.454767
      31A     -0.449017    32A     -0.440138    33A     -0.435609
      34A     -0.434046    35A     -0.412801    36A     -0.385753
      37A     -0.374065    38A     -0.359604    39A     -0.347579
      40A     -0.335946    41A     -0.225806    42A     -0.222870
      43A     -0.206033    44A     -0.200424    45A     -0.181093

    Virtual:

      46A      0.244689    47A      0.268084    48A      0.273239
      49A      0.304835    50A      0.324668    51A      0.339693
      52A      0.346860    53A      0.356198    54A      0.372382
      55A      0.381857    56A      0.403131    57A      0.425767
      58A      0.461078    59A      0.462099    60A      0.474008
      61A      0.489937    62A      0.554178    63A      0.558251
      64A      0.580396    65A      0.603032    66A      0.613151
      67A      0.630403    68A      0.671746    69A      0.711196
      70A      0.722351    71A      0.735633    72A      0.767089
      73A      0.779245    74A      0.799908    75A      0.804708
      76A      0.809681    77A      0.820399    78A      0.832885
      79A      0.841191    80A      0.845668    81A      0.856006
      82A      0.881870    83A      0.894160    84A      0.905749
      85A      0.920681    86A      0.923772    87A      0.939213
      88A      0.947199    89A      0.962362    90A      0.975490
      91A      0.979728    92A      0.986735    93A      0.990469
      94A      1.011236    95A      1.017393    96A      1.023292
      97A      1.030480    98A      1.040207    99A      1.047162
     100A      1.051002   101A      1.062040   102A      1.092494
     103A      1.115787   104A      1.139486   105A      1.153813
     106A      1.183000   107A      1.221043   108A      1.235898
     109A      1.248273   110A      1.267372   111A      1.275621
     112A      1.322414   113A      1.326611   114A      1.327829
     115A      1.345295   116A      1.358999   117A      1.367399
     118A      1.385075   119A      1.395417   120A      1.425606
     121A      1.444368   122A      1.451489   123A      1.476669
     124A      1.517454   125A      1.524437   126A      1.538441
     127A      1.555372   128A      1.579689   129A      1.604271
     130A      1.609596   131A      1.635566   132A      1.660452
     133A      1.676135   134A      1.703603   135A      1.711658
     136A      1.751044   137A      1.763802   138A      1.789633
     139A      1.801806   140A      1.824250   141A      1.836584
     142A      1.839743   143A      1.855698   144A      1.868022
     145A      1.885490   146A      1.924767   147A      1.940565
     148A      1.975102   149A      1.988926   150A      2.000035
     151A      2.018440   152A      2.033067   153A      2.039550
     154A      2.042854   155A      2.050105   156A      2.064640
     157A      2.071790   158A      2.078785   159A      2.101143
     160A      2.107373   161A      2.121164   162A      2.145172
     163A      2.158968   164A      2.180338   165A      2.185864
     166A      2.190094   167A      2.197109   168A      2.231306
     169A      2.257810   170A      2.287535   171A      2.297506
     172A      2.302176   173A      2.317439   174A      2.333239
     175A      2.360270   176A      2.390037   177A      2.399885
     178A      2.415061   179A      2.419337   180A      2.459920
     181A      2.494006   182A      2.502901   183A      2.570959
     184A      2.576018   185A      2.585297   186A      2.632314
     187A      2.634517   188A      2.658078   189A      2.670658
     190A      2.705893   191A      2.733173   192A      2.758605
     193A      2.838439   194A      2.861200   195A      2.883499
     196A      2.896574   197A      2.918313   198A      2.930767
     199A      2.936502   200A      2.949261   201A      2.990398
     202A      3.001255   203A      3.079739   204A      3.130928
     205A      3.192516   206A      3.200689   207A      3.219229
     208A      3.263537   209A      3.283011   210A      3.402818
     211A      3.420236   212A      3.426193   213A      3.499365
     214A      3.602191   215A      3.719708   216A      3.782119
     217A      3.808747   218A      3.854285   219A      4.030202
     220A      4.065637   221A      4.103887   222A      4.171064
     223A      4.405793

    Final Occupation by Irrep:
              A
    DOCC [    45 ]

  @RHF Final Energy:  -571.90299725831107

   => Energetics <=

    Nuclear Repulsion Energy =            638.8393251581827599
    One-Electron Energy =               -2062.1029065839729810
    Two-Electron Energy =                 851.3605841674790327
    Total Energy =                       -571.9029972583110748

Computation Completed

Properties will be evaluated at   0.000000,   0.000000,   0.000000 [a0]

Properties computed using the SCF density matrix

  Nuclear Dipole Moment: [e a0]
     X:    -4.0355      Y:     8.2792      Z:    -0.1671

  Electronic Dipole Moment: [e a0]
     X:     1.1483      Y:    -4.7190      Z:    -0.1738

  Dipole Moment: [e a0]
     X:    -2.8871      Y:     3.5602      Z:    -0.3409     Total:     4.5964

  Dipole Moment: [D]
     X:    -7.3384      Y:     9.0491      Z:    -0.8664     Total:    11.6828

*** tstop() called on ds3 at Tue Apr 28 03:24:29 2020
Module time:
	user time   =     105.66 seconds =       1.76 minutes
	system time =      50.56 seconds =       0.84 minutes
	total time  =        150 seconds =       2.50 minutes
Total time:
	user time   =     105.66 seconds =       1.76 minutes
	system time =      50.56 seconds =       0.84 minutes
	total time  =        150 seconds =       2.50 minutes
                                     G D M A

                                 by Anthony Stone

                           version 2.2.06, 22 June 2011

               Distributed Multipoles from Gaussian wavefunctions

Starting at 3:24:29 on 28 Apr 2020

Using SCF density matrix from file ./SSI/SSI-172ASP-204TYR-1-dimer.test.19804.fchk

                         Distributed Multipole Analysis

Standard DMA

Positions and radii in angstrom
Multipole moments in atomic units, ea_0^k for rank k

C          x =  2.749340  y = -2.392979  z = -1.767589 angstrom
           Maximum rank =  0   Radius =  0.650 angstrom
                   Q00  =  -0.289575

C          x =  2.477340  y = -2.500979  z = -0.305589 angstrom
           Maximum rank =  0   Radius =  0.650 angstrom
                   Q00  =   0.967644

O          x =  1.386340  y = -2.070979  z =  0.102411 angstrom
           Maximum rank =  0   Radius =  0.650 angstrom
                   Q00  =  -0.956792

O          x =  3.351340  y = -2.990979  z =  0.438411 angstrom
           Maximum rank =  0   Radius =  0.650 angstrom
                   Q00  =  -0.909521

H          x =  3.776340  y = -2.700979  z = -1.976589 angstrom
           Maximum rank =  0   Radius =  0.325 angstrom
                   Q00  =   0.062866

H          x =  2.645340  y = -1.351979  z = -2.056589 angstrom
           Maximum rank =  0   Radius =  0.325 angstrom
                   Q00  =   0.077003

H          x =  2.050470  y = -3.003673  z = -2.358049 angstrom
           Maximum rank =  0   Radius =  0.325 angstrom
                   Q00  =   0.082020

C          x = -2.344660  y =  3.649021  z =  1.820411 angstrom
           Maximum rank =  0   Radius =  0.650 angstrom
                   Q00  =  -0.210506

C          x = -0.152660  y =  0.751021  z =  0.547411 angstrom
           Maximum rank =  0   Radius =  0.650 angstrom
                   Q00  =  -0.152410

C          x = -0.600660  y =  1.852021  z =  1.277411 angstrom
           Maximum rank =  0   Radius =  0.650 angstrom
                   Q00  =  -0.027939

C          x = -0.892660  y =  0.297021  z = -0.550589 angstrom
           Maximum rank =  0   Radius =  0.650 angstrom
                   Q00  =   0.343043

C          x = -1.791660  y =  2.507021  z =  0.945411 angstrom
           Maximum rank =  0   Radius =  0.650 angstrom
                   Q00  =  -0.156324

C          x = -2.101660  y =  0.912021  z = -0.853589 angstrom
           Maximum rank =  0   Radius =  0.650 angstrom
                   Q00  =  -0.104370

C          x = -2.537660  y =  2.003021  z = -0.116589 angstrom
           Maximum rank =  0   Radius =  0.650 angstrom
                   Q00  =   0.036551

O          x = -0.567660  y = -0.805979  z = -1.277589 angstrom
           Maximum rank =  0   Radius =  0.650 angstrom
                   Q00  =  -0.766817

H          x =  0.770340  y =  0.258021  z =  0.804411 angstrom
           Maximum rank =  0   Radius =  0.325 angstrom
                   Q00  =   0.094491

H          x = -0.019660  y =  2.213021  z =  2.112411 angstrom
           Maximum rank =  0   Radius =  0.325 angstrom
                   Q00  =   0.043542

H          x =  0.172340  y = -1.269979  z = -0.831589 angstrom
           Maximum rank =  0   Radius =  0.325 angstrom
                   Q00  =   0.526960

H          x = -2.699660  y =  0.531021  z = -1.666589 angstrom
           Maximum rank =  0   Radius =  0.325 angstrom
                   Q00  =   0.053484

H          x = -2.670660  y =  3.204021  z =  2.759411 angstrom
           Maximum rank =  0   Radius =  0.325 angstrom
                   Q00  =   0.086370

H          x = -3.222660  y =  4.063021  z =  1.333411 angstrom
           Maximum rank =  0   Radius =  0.325 angstrom
                   Q00  =   0.083901

H          x = -3.485660  y =  2.462021  z = -0.368589 angstrom
           Maximum rank =  0   Radius =  0.325 angstrom
                   Q00  =   0.032392

H          x = -1.642560  y =  4.456981  z =  2.073891 angstrom
           Maximum rank =  0   Radius =  0.325 angstrom
                   Q00  =   0.083987

Total multipoles referred to origin at
           x =   0.000000,  y =    0.000000,  z =    0.000000 angstrom
                   Q00  =  -1.000000

Finished at 3:24:29 on 28 Apr 2020

  DMA results are available in the Python driver through the
	  variable('DMA DISTRIBUTED MULTIPOLES')
  and
	  variable('DMA TOTAL MULTIPOLES')
  commands.

    Psi4 stopped on: Tuesday, 28 April 2020 03:24AM
    Psi4 wall time for execution: 0:02:30.35

*** Psi4 exiting successfully. Buy a developer a beer!
