                               Psi4 1.3.2 release

  ==> Input File <==

--------------------------------------------------------------------------
import numpy as np
set {scf_type pk
basis cc-pvdz
d_convergence 10
gdma_switch   0
gdma_limit    0
gdma_origin   [ 0.0,  0.0,  0.0 ]
}
molecule test {
    units Angstrom
    0 1
    --
    0 1
    C               -0.697526408790669     0.355241066421904    -1.416546532859431
    C               -0.591526408790669     0.374241066421904    -2.943546532859432
    H               -0.093526408790669    -0.451758933578096    -0.999546532859431
    H               -0.333526408790669     1.300241066421904    -1.014546532859431
    H               -1.736526408790668     0.217241066421904    -1.121546532859431
    H                0.454473591209331     0.366241066421904    -3.209546532859431
    H               -1.043968408790669    -0.521248933578096    -3.394546532859432
    H               -1.066818408790669     1.276651066421904    -3.355566532859431
    C                0.032473591209331     0.090241066421904     2.160453467140568
    C                1.252473591209331    -0.823758933578096     2.207453467140569
    H               -0.076526408790669     0.640241066421904     3.094453467140569
    H                0.161473591209331     0.816241066421904     1.359453467140569
    H               -0.868526408790669    -0.492758933578096     1.965453467140569
    H                2.131473591209331    -0.236758933578096     2.470453467140568
    H                1.393473591209331    -1.208758933578096     1.198453467140569
    H                1.127409591209331    -1.657518933578096     2.913993467140569

}
e, wfn = energy('scf', return_wfn=True)
gdma(wfn)
dmavals = variable('DMA DISTRIBUTED MULTIPOLES')
charges = np.array(dmavals)
print(charges)
np.save('SSI-117VAL-166ILE-1-dimer.npy', np.array(charges))--------------------------------------------------------------------------

*** tstart() called on ds3
*** at Mon Apr 27 17:47:41 2020

   => Loading Basis Set <=

    Name: CC-PVDZ
    Role: ORBITAL
    Keyword: BASIS
    atoms 1-2, 9-10  entry C          line   138 file /theoryfs2/ds/metcalf/miniconda2/envs/tf2gpu/share/psi4/basis/cc-pvdz.gbs
    atoms 3-8, 11-16 entry H          line    22 file /theoryfs2/ds/metcalf/miniconda2/envs/tf2gpu/share/psi4/basis/cc-pvdz.gbs

         ---------------------------------------------------------
                                   SCF
               by Justin Turney, Rob Parrish, Andy Simmonett
                          and Daniel G. A. Smith
                              RHF Reference
                        1 Threads,    500 MiB Core
         ---------------------------------------------------------

  ==> Geometry <==

    Molecular point group: c1
    Full point group: C1

    Geometry (in Angstrom), charge = 0, multiplicity = 1:

       Center              X                  Y                   Z               Mass
    ------------   -----------------  -----------------  -----------------  -----------------
         C           -0.697526408791     0.355241066422    -1.416546532859    12.000000000000
         C           -0.591526408791     0.374241066422    -2.943546532859    12.000000000000
         H           -0.093526408791    -0.451758933578    -0.999546532859     1.007825032230
         H           -0.333526408791     1.300241066422    -1.014546532859     1.007825032230
         H           -1.736526408791     0.217241066422    -1.121546532859     1.007825032230
         H            0.454473591209     0.366241066422    -3.209546532859     1.007825032230
         H           -1.043968408791    -0.521248933578    -3.394546532859     1.007825032230
         H           -1.066818408791     1.276651066422    -3.355566532859     1.007825032230
         C            0.032473591209     0.090241066422     2.160453467141    12.000000000000
         C            1.252473591209    -0.823758933578     2.207453467141    12.000000000000
         H           -0.076526408791     0.640241066422     3.094453467141     1.007825032230
         H            0.161473591209     0.816241066422     1.359453467141     1.007825032230
         H           -0.868526408791    -0.492758933578     1.965453467141     1.007825032230
         H            2.131473591209    -0.236758933578     2.470453467141     1.007825032230
         H            1.393473591209    -1.208758933578     1.198453467141     1.007825032230
         H            1.127409591209    -1.657518933578     2.913993467141     1.007825032230

  Running in c1 symmetry.

  Rotational constants: A =      0.53305  B =      0.04819  C =      0.04576 [cm^-1]
  Rotational constants: A =  15980.50866  B =   1444.77780  C =   1371.72516 [MHz]
  Nuclear repulsion =  122.404826282381251

  Charge       = 0
  Multiplicity = 1
  Electrons    = 36
  Nalpha       = 18
  Nbeta        = 18

  ==> Algorithm <==

  SCF Algorithm Type is PK.
  DIIS enabled.
  MOM disabled.
  Fractional occupation disabled.
  Guess Type is SAD.
  Energy threshold   = 1.00e-06
  Density threshold  = 1.00e-10
  Integral threshold = 0.00e+00

  ==> Primary Basis <==

  Basis Set: CC-PVDZ
    Blend: CC-PVDZ
    Number of shells: 60
    Number of basis function: 116
    Number of Cartesian functions: 120
    Spherical Harmonics?: true
    Max angular momentum: 2

  ==> Pre-Iterations <==

   -------------------------------------------------------
    Irrep   Nso     Nmo     Nalpha   Nbeta   Ndocc  Nsocc
   -------------------------------------------------------
     A        116     116       0       0       0       0
   -------------------------------------------------------
    Total     116     116      18      18      18       0
   -------------------------------------------------------

  ==> Integral Setup <==

  Using integral reordering PK algorithm.
  Sizing the integral batches needed.
  Building batch lookup table.
   Calculation information:
      Number of atoms:                  16
      Number of AO shells:              60
      Number of primitives:            148
      Number of atomic orbitals:       120
      Number of basis functions:       116

      Integral cutoff                 1.00e-12
      Number of threads:                 1

	Batch   1 pq = [       0,    6786] index = [             0,23028291] size =     23028291
  Task number: 3
  Buffer size: 11059200
  Buffer per thread: 2
  We computed 1425847 shell quartets total.
  Whereas there are 1675365 unique shell quartets.

  ==> DiskJK: Disk-Based J/K Matrices <==

    J tasked:                  Yes
    K tasked:                  Yes
    wK tasked:                  No
    Memory [MiB]:              375
    Schwarz Cutoff:          1E-12

    OpenMP threads:              1

  Minimum eigenvalue in the overlap matrix is 6.7267037561E-03.
  Using Symmetric Orthogonalization.

  SCF Guess: Superposition of Atomic Densities via on-the-fly atomic UHF.

  ==> Iterations <==

                        Total Energy        Delta E     RMS |[F,P]|

   @RHF iter SAD:  -157.36549651332822   -1.57365e+02   0.00000e+00
   @RHF iter   1:  -158.30661437354166   -9.41118e-01   4.22209e-03 DIIS
   @RHF iter   2:  -158.44059512395268   -1.33981e-01   1.79514e-03 DIIS
   @RHF iter   3:  -158.46398049442067   -2.33854e-02   3.50083e-04 DIIS
   @RHF iter   4:  -158.46581208927375   -1.83159e-03   3.86174e-05 DIIS
   @RHF iter   5:  -158.46583549236502   -2.34031e-05   6.39683e-06 DIIS
   @RHF iter   6:  -158.46583610991607   -6.17551e-07   8.81638e-07 DIIS
   @RHF iter   7:  -158.46583611852827   -8.61220e-09   2.82969e-07 DIIS
   @RHF iter   8:  -158.46583611919141   -6.63135e-10   3.99128e-08 DIIS
   @RHF iter   9:  -158.46583611921642   -2.50111e-11   7.77351e-09 DIIS
   @RHF iter  10:  -158.46583611921787   -1.44951e-12   2.06519e-09 DIIS
   @RHF iter  11:  -158.46583611921747    3.97904e-13   4.38350e-10 DIIS
   @RHF iter  12:  -158.46583611921764   -1.70530e-13   1.28985e-10 DIIS
   @RHF iter  13:  -158.46583611921784   -1.98952e-13   2.74237e-11 DIIS
  Energy and wave function converged.

  ==> Post-Iterations <==

    Orbital Energies [Eh]
    ---------------------

    Doubly Occupied:

       1A    -11.218479     2A    -11.217675     3A    -11.217204
       4A    -11.214434     5A     -1.020133     6A     -1.017345
       7A     -0.840224     8A     -0.834362     9A     -0.602794
      10A     -0.599935    11A     -0.595971    12A     -0.595077
      13A     -0.505804    14A     -0.496125    15A     -0.488600
      16A     -0.488141    17A     -0.483885    18A     -0.480531

    Virtual:

      19A      0.172330    20A      0.196740    21A      0.222788
      22A      0.235973    23A      0.237528    24A      0.258241
      25A      0.265074    26A      0.275111    27A      0.283585
      28A      0.291541    29A      0.329006    30A      0.356583
      31A      0.391911    32A      0.404345    33A      0.570320
      34A      0.594400    35A      0.594977    36A      0.598929
      37A      0.610027    38A      0.628436    39A      0.684954
      40A      0.696890    41A      0.700391    42A      0.759788
      43A      0.847087    44A      0.867536    45A      0.886108
      46A      0.892494    47A      0.894825    48A      0.900042
      49A      0.905243    50A      0.915254    51A      0.919100
      52A      0.927728    53A      0.933718    54A      0.953963
      55A      0.990095    56A      1.001049    57A      1.125431
      58A      1.127604    59A      1.130528    60A      1.144281
      61A      1.229922    62A      1.265917    63A      1.466849
      64A      1.472263    65A      1.477943    66A      1.495633
      67A      1.580542    68A      1.590342    69A      1.681934
      70A      1.684247    71A      1.694230    72A      1.699090
      73A      1.856694    74A      1.858543    75A      1.866387
      76A      1.881967    77A      1.901743    78A      1.910753
      79A      1.928441    80A      1.938318    81A      1.946624
      82A      1.952515    83A      1.953735    84A      1.959567
      85A      1.965281    86A      1.976629    87A      1.986669
      88A      2.052598    89A      2.095045    90A      2.107693
      91A      2.125193    92A      2.140766    93A      2.294594
      94A      2.300631    95A      2.318434    96A      2.334230
      97A      2.448354    98A      2.460771    99A      2.468365
     100A      2.472533   101A      2.557593   102A      2.567650
     103A      2.579052   104A      2.591656   105A      2.765284
     106A      2.773487   107A      2.786429   108A      2.798566
     109A      2.852834   110A      2.854137   111A      2.863503
     112A      2.867912   113A      2.952675   114A      2.957119
     115A      2.965780   116A      2.970528

    Final Occupation by Irrep:
              A
    DOCC [    18 ]

  @RHF Final Energy:  -158.46583611921784

   => Energetics <=

    Nuclear Repulsion Energy =            122.4048262823812507
    One-Electron Energy =                -453.9078883682960281
    Two-Electron Energy =                 173.0372259666969512
    Total Energy =                       -158.4658361192178404

Computation Completed

Properties will be evaluated at   0.000000,   0.000000,   0.000000 [a0]

Properties computed using the SCF density matrix

  Nuclear Dipole Moment: [e a0]
     X:     0.0458      Y:     0.0450      Z:    -0.0872

  Electronic Dipole Moment: [e a0]
     X:    -0.0403      Y:    -0.0301      Z:     0.0705

  Dipole Moment: [e a0]
     X:     0.0055      Y:     0.0149      Z:    -0.0167     Total:     0.0231

  Dipole Moment: [D]
     X:     0.0140      Y:     0.0380      Z:    -0.0425     Total:     0.0587

*** tstop() called on ds3 at Mon Apr 27 17:47:52 2020
Module time:
	user time   =       8.19 seconds =       0.14 minutes
	system time =       3.12 seconds =       0.05 minutes
	total time  =         11 seconds =       0.18 minutes
Total time:
	user time   =       8.19 seconds =       0.14 minutes
	system time =       3.12 seconds =       0.05 minutes
	total time  =         11 seconds =       0.18 minutes
                                     G D M A

                                 by Anthony Stone

                           version 2.2.06, 22 June 2011

               Distributed Multipoles from Gaussian wavefunctions

Starting at 17:47:52 on 27 Apr 2020

Using SCF density matrix from file ./SSI/SSI-117VAL-166ILE-1-dimer.test.4669.fchk

                         Distributed Multipole Analysis

Standard DMA

Positions and radii in angstrom
Multipole moments in atomic units, ea_0^k for rank k

C          x = -0.697526  y =  0.355241  z = -1.416547 angstrom
           Maximum rank =  0   Radius =  0.650 angstrom
                   Q00  =  -0.239885

C          x = -0.591526  y =  0.374241  z = -2.943547 angstrom
           Maximum rank =  0   Radius =  0.650 angstrom
                   Q00  =  -0.237260

H          x = -0.093526  y = -0.451759  z = -0.999547 angstrom
           Maximum rank =  0   Radius =  0.325 angstrom
                   Q00  =   0.079349

H          x = -0.333526  y =  1.300241  z = -1.014547 angstrom
           Maximum rank =  0   Radius =  0.325 angstrom
                   Q00  =   0.078346

H          x = -1.736526  y =  0.217241  z = -1.121547 angstrom
           Maximum rank =  0   Radius =  0.325 angstrom
                   Q00  =   0.081024

H          x =  0.454474  y =  0.366241  z = -3.209547 angstrom
           Maximum rank =  0   Radius =  0.325 angstrom
                   Q00  =   0.079297

H          x = -1.043968  y = -0.521249  z = -3.394547 angstrom
           Maximum rank =  0   Radius =  0.325 angstrom
                   Q00  =   0.079377

H          x = -1.066818  y =  1.276651  z = -3.355567 angstrom
           Maximum rank =  0   Radius =  0.325 angstrom
                   Q00  =   0.080288

C          x =  0.032474  y =  0.090241  z =  2.160453 angstrom
           Maximum rank =  0   Radius =  0.650 angstrom
                   Q00  =  -0.240412

C          x =  1.252474  y = -0.823759  z =  2.207453 angstrom
           Maximum rank =  0   Radius =  0.650 angstrom
                   Q00  =  -0.231975

H          x = -0.076526  y =  0.640241  z =  3.094453 angstrom
           Maximum rank =  0   Radius =  0.325 angstrom
                   Q00  =   0.076830

H          x =  0.161474  y =  0.816241  z =  1.359453 angstrom
           Maximum rank =  0   Radius =  0.325 angstrom
                   Q00  =   0.082055

H          x = -0.868526  y = -0.492759  z =  1.965453 angstrom
           Maximum rank =  0   Radius =  0.325 angstrom
                   Q00  =   0.079052

H          x =  2.131474  y = -0.236759  z =  2.470453 angstrom
           Maximum rank =  0   Radius =  0.325 angstrom
                   Q00  =   0.078604

H          x =  1.393474  y = -1.208759  z =  1.198453 angstrom
           Maximum rank =  0   Radius =  0.325 angstrom
                   Q00  =   0.074358

H          x =  1.127410  y = -1.657519  z =  2.913993 angstrom
           Maximum rank =  0   Radius =  0.325 angstrom
                   Q00  =   0.080953

Total multipoles referred to origin at
           x =   0.000000,  y =    0.000000,  z =    0.000000 angstrom
                   Q00  =  -0.000000

Finished at 17:47:52 on 27 Apr 2020

  DMA results are available in the Python driver through the
	  variable('DMA DISTRIBUTED MULTIPOLES')
  and
	  variable('DMA TOTAL MULTIPOLES')
  commands.

    Psi4 stopped on: Monday, 27 April 2020 05:47PM
    Psi4 wall time for execution: 0:00:11.00

*** Psi4 exiting successfully. Buy a developer a beer!
