                               Psi4 1.3.2 release

  ==> Input File <==

--------------------------------------------------------------------------
import numpy as np
set {scf_type pk
basis cc-pvdz
d_convergence 10
gdma_switch   0
gdma_limit    0
gdma_origin   [ 0.0,  0.0,  0.0 ]
}
molecule test {
    units Angstrom
    0 1
    --
    0 1
    C               -0.847668312560378    -3.006714562342166     0.353112694271472
    C               -0.362668312560378    -4.203714562342166    -0.308887305728528
    H               -0.017668312560378    -2.344714562342166     0.602112694271472
    H               -1.531668312560378    -2.479714562342166    -0.311887305728528
    H               -1.389668312560378    -3.274714562342166     1.258112694271472
    H               -0.002668312560378    -3.861714562342166    -1.280887305728528
    H               -1.203668312560378    -4.868714562342165    -0.511887305728528
    H                0.444861687439622    -4.736834562342166     0.214258694271472
    C               -0.747668312560378     0.316285437657834    -1.314887305728528
    C               -0.600668312560378     1.211285437657834    -2.536887305728528
    C               -0.070668312560378     0.866285437657834    -0.101887305728528
    C               -0.550668312560378     1.135285437657834     1.139112694271472
    C                1.605331687439622     1.572285437657834     1.129112694271472
    N                1.282331687439622     1.134285437657834    -0.080887305728528
    N                0.507331687439622     1.603285437657834     1.882112694271471
    H               -1.801668312560377     0.165285437657834    -1.098887305728528
    H               -0.315668312560378    -0.658714562342166    -1.537887305728528
    H               -1.180668312560378     0.756285437657834    -3.340887305728528
    H               -1.575668312560378     1.023285437657834     1.460112694271472
    H                2.589331687439623     1.904285437657834     1.432112694271471
    H                0.454331687439622     1.978285437657834     2.823112694271472
    H                0.456821687439622     1.269955437657834    -2.833978605728528
    H               -1.043118312560378     2.202495437657834    -2.358756305728528

}
e, wfn = energy('scf', return_wfn=True)
gdma(wfn)
dmavals = variable('DMA DISTRIBUTED MULTIPOLES')
charges = np.array(dmavals)
print(charges)
np.save('SSI-113ILE-164HIE-1-dimer.npy', np.array(charges))--------------------------------------------------------------------------

*** tstart() called on ds3
*** at Tue Apr 28 14:46:01 2020

   => Loading Basis Set <=

    Name: CC-PVDZ
    Role: ORBITAL
    Keyword: BASIS
    atoms 1-2, 9-13  entry C          line   138 file /theoryfs2/ds/metcalf/miniconda2/envs/tf2gpu/share/psi4/basis/cc-pvdz.gbs
    atoms 3-8, 16-23 entry H          line    22 file /theoryfs2/ds/metcalf/miniconda2/envs/tf2gpu/share/psi4/basis/cc-pvdz.gbs
    atoms 14-15      entry N          line   168 file /theoryfs2/ds/metcalf/miniconda2/envs/tf2gpu/share/psi4/basis/cc-pvdz.gbs

         ---------------------------------------------------------
                                   SCF
               by Justin Turney, Rob Parrish, Andy Simmonett
                          and Daniel G. A. Smith
                              RHF Reference
                        1 Threads,    500 MiB Core
         ---------------------------------------------------------

  ==> Geometry <==

    Molecular point group: c1
    Full point group: C1

    Geometry (in Angstrom), charge = 0, multiplicity = 1:

       Center              X                  Y                   Z               Mass
    ------------   -----------------  -----------------  -----------------  -----------------
         C           -0.847668312560    -3.006714562342     0.353112694271    12.000000000000
         C           -0.362668312560    -4.203714562342    -0.308887305729    12.000000000000
         H           -0.017668312560    -2.344714562342     0.602112694271     1.007825032230
         H           -1.531668312560    -2.479714562342    -0.311887305729     1.007825032230
         H           -1.389668312560    -3.274714562342     1.258112694271     1.007825032230
         H           -0.002668312560    -3.861714562342    -1.280887305729     1.007825032230
         H           -1.203668312560    -4.868714562342    -0.511887305729     1.007825032230
         H            0.444861687440    -4.736834562342     0.214258694271     1.007825032230
         C           -0.747668312560     0.316285437658    -1.314887305729    12.000000000000
         C           -0.600668312560     1.211285437658    -2.536887305729    12.000000000000
         C           -0.070668312560     0.866285437658    -0.101887305729    12.000000000000
         C           -0.550668312560     1.135285437658     1.139112694271    12.000000000000
         C            1.605331687440     1.572285437658     1.129112694271    12.000000000000
         N            1.282331687440     1.134285437658    -0.080887305729    14.003074004430
         N            0.507331687440     1.603285437658     1.882112694271    14.003074004430
         H           -1.801668312560     0.165285437658    -1.098887305729     1.007825032230
         H           -0.315668312560    -0.658714562342    -1.537887305729     1.007825032230
         H           -1.180668312560     0.756285437658    -3.340887305729     1.007825032230
         H           -1.575668312560     1.023285437658     1.460112694271     1.007825032230
         H            2.589331687440     1.904285437658     1.432112694271     1.007825032230
         H            0.454331687440     1.978285437658     2.823112694271     1.007825032230
         H            0.456821687440     1.269955437658    -2.833978605729     1.007825032230
         H           -1.043118312560     2.202495437658    -2.358756305729     1.007825032230

  Running in c1 symmetry.

  Rotational constants: A =      0.05640  B =      0.02629  C =      0.02067 [cm^-1]
  Rotational constants: A =   1690.88660  B =    788.10752  C =    619.55697 [MHz]
  Nuclear repulsion =  434.118457527572502

  Charge       = 0
  Multiplicity = 1
  Electrons    = 70
  Nalpha       = 35
  Nbeta        = 35

  ==> Algorithm <==

  SCF Algorithm Type is PK.
  DIIS enabled.
  MOM disabled.
  Fractional occupation disabled.
  Guess Type is SAD.
  Energy threshold   = 1.00e-06
  Density threshold  = 1.00e-10
  Integral threshold = 0.00e+00

  ==> Primary Basis <==

  Basis Set: CC-PVDZ
    Blend: CC-PVDZ
    Number of shells: 96
    Number of basis function: 196
    Number of Cartesian functions: 205
    Spherical Harmonics?: true
    Max angular momentum: 2

  ==> Pre-Iterations <==

   -------------------------------------------------------
    Irrep   Nso     Nmo     Nalpha   Nbeta   Ndocc  Nsocc
   -------------------------------------------------------
     A        196     196       0       0       0       0
   -------------------------------------------------------
    Total     196     196      35      35      35       0
   -------------------------------------------------------

  ==> Integral Setup <==

  Using integral reordering PK algorithm.
  Sizing the integral batches needed.
  Building batch lookup table.
   Calculation information:
      Number of atoms:                  23
      Number of AO shells:              96
      Number of primitives:            268
      Number of atomic orbitals:       205
      Number of basis functions:       196

      Integral cutoff                 1.00e-12
      Number of threads:                 1

	Batch   1 pq = [       0,    9405] index = [             0,44231715] size =     44231715
	Batch   2 pq = [    9405,   13301] index = [      44231715,88464951] size =     44233236
	Batch   3 pq = [   13301,   16290] index = [      88464951,132690195] size =     44225244
	Batch   4 pq = [   16290,   18810] index = [     132690195,176917455] size =     44227260
	Batch   5 pq = [   18810,   19306] index = [     176917455,186370471] size =      9453016
  Task number: 17
  Buffer size: 11059200
  Buffer per thread: 2
  We computed 9139241 shell quartets total.
  Whereas there are 10841496 unique shell quartets.

  ==> DiskJK: Disk-Based J/K Matrices <==

    J tasked:                  Yes
    K tasked:                  Yes
    wK tasked:                  No
    Memory [MiB]:              375
    Schwarz Cutoff:          1E-12

    OpenMP threads:              1

  Minimum eigenvalue in the overlap matrix is 1.1203474565E-03.
  Using Symmetric Orthogonalization.

  SCF Guess: Superposition of Atomic Densities via on-the-fly atomic UHF.

  ==> Iterations <==

                        Total Energy        Delta E     RMS |[F,P]|

   @RHF iter SAD:  -381.37742645181254   -3.81377e+02   0.00000e+00
   @RHF iter   1:  -381.87907111567421   -5.01645e-01   3.21600e-03 DIIS
   @RHF iter   2:  -382.08105285026727   -2.01982e-01   1.66200e-03 DIIS
   @RHF iter   3:  -382.13175897625410   -5.07061e-02   4.15759e-04 DIIS
   @RHF iter   4:  -382.13587596010308   -4.11698e-03   1.79897e-04 DIIS
   @RHF iter   5:  -382.13657587239203   -6.99912e-04   2.40690e-05 DIIS
   @RHF iter   6:  -382.13659867266591   -2.28003e-05   9.94824e-06 DIIS
   @RHF iter   7:  -382.13660180795029   -3.13528e-06   3.47399e-06 DIIS
   @RHF iter   8:  -382.13660245943566   -6.51485e-07   1.40617e-06 DIIS
   @RHF iter   9:  -382.13660260788811   -1.48452e-07   4.77484e-07 DIIS
   @RHF iter  10:  -382.13660262221799   -1.43299e-08   1.59258e-07 DIIS
   @RHF iter  11:  -382.13660262405853   -1.84053e-09   6.61817e-08 DIIS
   @RHF iter  12:  -382.13660262430096   -2.42437e-10   2.66947e-08 DIIS
   @RHF iter  13:  -382.13660262434030   -3.93356e-11   8.15199e-09 DIIS
   @RHF iter  14:  -382.13660262434610   -5.79803e-12   2.86145e-09 DIIS
   @RHF iter  15:  -382.13660262434576    3.41061e-13   1.13765e-09 DIIS
   @RHF iter  16:  -382.13660262434735   -1.59162e-12   4.12506e-10 DIIS
   @RHF iter  17:  -382.13660262434445    2.89901e-12   1.37899e-10 DIIS
   @RHF iter  18:  -382.13660262434769   -3.24007e-12   4.28057e-11 DIIS
  Energy and wave function converged.

  ==> Post-Iterations <==

    Orbital Energies [Eh]
    ---------------------

    Doubly Occupied:

       1A    -15.620276     2A    -15.527867     3A    -11.292850
       4A    -11.249643     5A    -11.236610     6A    -11.220914
       7A    -11.210486     8A    -11.206958     9A    -11.203793
      10A     -1.340980    11A     -1.154705    12A     -1.050130
      13A     -1.034165    14A     -0.984950    15A     -0.855361
      16A     -0.823682    17A     -0.818028    18A     -0.759905
      19A     -0.733156    20A     -0.624258    21A     -0.607152
      22A     -0.603359    23A     -0.600725    24A     -0.595298
      25A     -0.583421    26A     -0.560701    27A     -0.515497
      28A     -0.505550    29A     -0.484750    30A     -0.483506
      31A     -0.473778    32A     -0.465880    33A     -0.409727
      34A     -0.377149    35A     -0.308959

    Virtual:

      36A      0.173694    37A      0.179255    38A      0.189121
      39A      0.203357    40A      0.212481    41A      0.226709
      42A      0.241192    43A      0.246303    44A      0.249887
      45A      0.255808    46A      0.265114    47A      0.279767
      48A      0.291157    49A      0.296372    50A      0.310397
      51A      0.345618    52A      0.386461    53A      0.393017
      54A      0.397856    55A      0.426537    56A      0.447216
      57A      0.485569    58A      0.487314    59A      0.566776
      60A      0.596872    61A      0.610292    62A      0.613400
      63A      0.625561    64A      0.634097    65A      0.644839
      66A      0.667767    67A      0.688742    68A      0.700289
      69A      0.707736    70A      0.730581    71A      0.764575
      72A      0.767861    73A      0.785575    74A      0.816080
      75A      0.830341    76A      0.865647    77A      0.882912
      78A      0.889241    79A      0.892220    80A      0.900003
      81A      0.902510    82A      0.907185    83A      0.912249
      84A      0.921899    85A      0.925788    86A      0.938795
      87A      0.946009    88A      0.962937    89A      0.969471
      90A      0.982892    91A      0.990035    92A      1.003920
      93A      1.009903    94A      1.048173    95A      1.072615
      96A      1.103840    97A      1.107911    98A      1.128612
      99A      1.144869   100A      1.147021   101A      1.158319
     102A      1.190167   103A      1.244335   104A      1.255052
     105A      1.266132   106A      1.306475   107A      1.326197
     108A      1.327559   109A      1.401840   110A      1.426220
     111A      1.446069   112A      1.450501   113A      1.482673
     114A      1.511878   115A      1.519542   116A      1.530417
     117A      1.550025   118A      1.601448   119A      1.619398
     120A      1.665710   121A      1.688078   122A      1.694036
     123A      1.707830   124A      1.736451   125A      1.753878
     126A      1.774941   127A      1.821303   128A      1.833421
     129A      1.846849   130A      1.870541   131A      1.887345
     132A      1.892292   133A      1.924023   134A      1.928503
     135A      1.938612   136A      1.943680   137A      1.956091
     138A      1.961325   139A      1.972385   140A      1.988095
     141A      1.998151   142A      2.003348   143A      2.008190
     144A      2.024890   145A      2.030418   146A      2.036492
     147A      2.046165   148A      2.081428   149A      2.107635
     150A      2.114640   151A      2.141796   152A      2.153509
     153A      2.168155   154A      2.172624   155A      2.220155
     156A      2.254580   157A      2.294819   158A      2.317265
     159A      2.327565   160A      2.337156   161A      2.355107
     162A      2.401735   163A      2.446478   164A      2.453669
     165A      2.478351   166A      2.492241   167A      2.500321
     168A      2.510655   169A      2.565157   170A      2.574894
     171A      2.584845   172A      2.609410   173A      2.614719
     174A      2.689037   175A      2.737529   176A      2.765321
     177A      2.771363   178A      2.783879   179A      2.806768
     180A      2.808181   181A      2.847874   182A      2.864569
     183A      2.877950   184A      2.895038   185A      2.905284
     186A      2.915455   187A      2.942369   188A      2.947347
     189A      2.979184   190A      2.996223   191A      3.017830
     192A      3.076370   193A      3.179821   194A      3.265118
     195A      3.481600   196A      3.793346

    Final Occupation by Irrep:
              A
    DOCC [    35 ]

  @RHF Final Energy:  -382.13660262434769

   => Energetics <=

    Nuclear Repulsion Energy =            434.1184575275725024
    One-Electron Energy =               -1377.4617833839090508
    Two-Electron Energy =                 561.2067232319889172
    Total Energy =                       -382.1366026243476881

Computation Completed

Properties will be evaluated at   0.000000,   0.000000,   0.000000 [a0]

Properties computed using the SCF density matrix

  Nuclear Dipole Moment: [e a0]
     X:    -5.7395      Y:   -12.1250      Z:    -5.1475

  Electronic Dipole Moment: [e a0]
     X:     5.3389      Y:    12.5221      Z:     6.3897

  Dipole Moment: [e a0]
     X:    -0.4006      Y:     0.3971      Z:     1.2422     Total:     1.3643

  Dipole Moment: [D]
     X:    -1.0181      Y:     1.0095      Z:     3.1573     Total:     3.4676

*** tstop() called on ds3 at Tue Apr 28 14:48:10 2020
Module time:
	user time   =      64.17 seconds =       1.07 minutes
	system time =      26.96 seconds =       0.45 minutes
	total time  =        129 seconds =       2.15 minutes
Total time:
	user time   =      64.17 seconds =       1.07 minutes
	system time =      26.96 seconds =       0.45 minutes
	total time  =        129 seconds =       2.15 minutes
                                     G D M A

                                 by Anthony Stone

                           version 2.2.06, 22 June 2011

               Distributed Multipoles from Gaussian wavefunctions

Starting at 14:48:10 on 28 Apr 2020

Using SCF density matrix from file ./SSI/SSI-113ILE-164HIE-1-dimer.test.9567.fchk

                         Distributed Multipole Analysis

Standard DMA

Positions and radii in angstrom
Multipole moments in atomic units, ea_0^k for rank k

C          x = -0.847668  y = -3.006715  z =  0.353113 angstrom
           Maximum rank =  0   Radius =  0.650 angstrom
                   Q00  =  -0.212460

C          x = -0.362668  y = -4.203715  z = -0.308887 angstrom
           Maximum rank =  0   Radius =  0.650 angstrom
                   Q00  =  -0.214197

H          x = -0.017668  y = -2.344715  z =  0.602113 angstrom
           Maximum rank =  0   Radius =  0.325 angstrom
                   Q00  =   0.082615

H          x = -1.531668  y = -2.479715  z = -0.311887 angstrom
           Maximum rank =  0   Radius =  0.325 angstrom
                   Q00  =   0.069090

H          x = -1.389668  y = -3.274715  z =  1.258113 angstrom
           Maximum rank =  0   Radius =  0.325 angstrom
                   Q00  =   0.062682

H          x = -0.002668  y = -3.861715  z = -1.280887 angstrom
           Maximum rank =  0   Radius =  0.325 angstrom
                   Q00  =   0.068788

H          x = -1.203668  y = -4.868715  z = -0.511887 angstrom
           Maximum rank =  0   Radius =  0.325 angstrom
                   Q00  =   0.067372

H          x =  0.444862  y = -4.736835  z =  0.214259 angstrom
           Maximum rank =  0   Radius =  0.325 angstrom
                   Q00  =   0.076759

C          x = -0.747668  y =  0.316285  z = -1.314887 angstrom
           Maximum rank =  0   Radius =  0.650 angstrom
                   Q00  =  -0.011928

C          x = -0.600668  y =  1.211285  z = -2.536887 angstrom
           Maximum rank =  0   Radius =  0.650 angstrom
                   Q00  =  -0.244079

C          x = -0.070668  y =  0.866285  z = -0.101887 angstrom
           Maximum rank =  0   Radius =  0.650 angstrom
                   Q00  =   0.218862

C          x = -0.550668  y =  1.135285  z =  1.139113 angstrom
           Maximum rank =  0   Radius =  0.650 angstrom
                   Q00  =   0.004208

C          x =  1.605332  y =  1.572285  z =  1.129113 angstrom
           Maximum rank =  0   Radius =  0.650 angstrom
                   Q00  =   0.463757

N          x =  1.282332  y =  1.134285  z = -0.080887 angstrom
           Maximum rank =  0   Radius =  0.650 angstrom
                   Q00  =  -0.788764

N          x =  0.507332  y =  1.603285  z =  1.882113 angstrom
           Maximum rank =  0   Radius =  0.650 angstrom
                   Q00  =  -0.481989

H          x = -1.801668  y =  0.165285  z = -1.098887 angstrom
           Maximum rank =  0   Radius =  0.325 angstrom
                   Q00  =   0.058344

H          x = -0.315668  y = -0.658715  z = -1.537887 angstrom
           Maximum rank =  0   Radius =  0.325 angstrom
                   Q00  =   0.080002

H          x = -1.180668  y =  0.756285  z = -3.340887 angstrom
           Maximum rank =  0   Radius =  0.325 angstrom
                   Q00  =   0.072997

H          x = -1.575668  y =  1.023285  z =  1.460113 angstrom
           Maximum rank =  0   Radius =  0.325 angstrom
                   Q00  =   0.105391

H          x =  2.589332  y =  1.904285  z =  1.432113 angstrom
           Maximum rank =  0   Radius =  0.325 angstrom
                   Q00  =   0.123430

H          x =  0.454332  y =  1.978285  z =  2.823113 angstrom
           Maximum rank =  0   Radius =  0.325 angstrom
                   Q00  =   0.219501

H          x =  0.456822  y =  1.269955  z = -2.833979 angstrom
           Maximum rank =  0   Radius =  0.325 angstrom
                   Q00  =   0.102516

H          x = -1.043118  y =  2.202495  z = -2.358756 angstrom
           Maximum rank =  0   Radius =  0.325 angstrom
                   Q00  =   0.077104

Total multipoles referred to origin at
           x =   0.000000,  y =    0.000000,  z =    0.000000 angstrom
                   Q00  =  -0.000000

Finished at 14:48:10 on 28 Apr 2020

  DMA results are available in the Python driver through the
	  variable('DMA DISTRIBUTED MULTIPOLES')
  and
	  variable('DMA TOTAL MULTIPOLES')
  commands.

    Psi4 stopped on: Tuesday, 28 April 2020 02:48PM
    Psi4 wall time for execution: 0:02:09.67

*** Psi4 exiting successfully. Buy a developer a beer!
