                               Psi4 1.3.2 release

  ==> Input File <==

--------------------------------------------------------------------------
import numpy as np
set {scf_type pk
basis cc-pvdz
d_convergence 10
gdma_switch   0
gdma_limit    0
gdma_origin   [ 0.0,  0.0,  0.0 ]
}
molecule test {
    units Angstrom
    1 1
    --
    1 1
    C                2.220921179108408    -0.570098343504929    -1.813346414774297
    C                1.067921179108408    -1.210098343504929     0.401653585225703
    C                1.805921179108408    -0.394098343504929    -0.385346414774297
    C                1.696921179108408     0.523901656495071     1.632653585225703
    N                0.956921179108408    -0.578098343504929     1.631653585225703
    N                2.242921179108408     0.645901656495071     0.432653585225703
    H                0.619921179108408    -2.149098343504929     0.111653585225703
    H                0.429921179108408    -0.921098343504929     2.427653585225703
    H                2.125921179108408     0.379901656495071    -2.341346414774298
    H                1.540921179108407    -1.285098343504929    -2.277346414774297
    H                1.849921179108408     1.191901656495071     2.473653585225703
    H                3.251001179108408    -0.946358343504929    -1.899186414774297
    C               -2.448078820891592    -1.049098343504929    -1.630346414774297
    C               -1.675078820891592     0.642901656495071    -0.031346414774297
    N               -1.710078820891592     0.147901656495071    -1.258346414774297
    N               -2.371078820891592     0.048901656495071     0.935653585225703
    N               -0.973078820891592     1.728901656495071     0.219653585225703
    H               -1.222078820891592     0.650901656495071    -1.985346414774297
    H               -2.926078820891592    -0.763098343504929     0.731653585225703
    H               -2.384078820891592     0.439901656495071     1.864653585225703
    H               -0.400078820891592     2.139901656495071    -0.498346414774297
    H               -0.945078820891592     2.109901656495071     1.149653585225703
    H               -3.137078820891592    -0.766098343504929    -2.429346414774297
    H               -3.049078820891592    -1.472098343504929    -0.825346414774297
    H               -1.762148820891592    -1.820498343504929    -2.010396414774297

}
e, wfn = energy('scf', return_wfn=True)
gdma(wfn)
dmavals = variable('DMA DISTRIBUTED MULTIPOLES')
charges = np.array(dmavals)
print(charges)
np.save('SSI-035HIE-059ARG-2-dimer.npy', np.array(charges))--------------------------------------------------------------------------

*** tstart() called on ds3
*** at Sun Apr 26 18:39:09 2020

   => Loading Basis Set <=

    Name: CC-PVDZ
    Role: ORBITAL
    Keyword: BASIS
    atoms 1-4, 13-14  entry C          line   138 file /theoryfs2/ds/metcalf/miniconda2/envs/tf2gpu/share/psi4/basis/cc-pvdz.gbs
    atoms 5-6, 15-17  entry N          line   168 file /theoryfs2/ds/metcalf/miniconda2/envs/tf2gpu/share/psi4/basis/cc-pvdz.gbs
    atoms 7-12, 18-25 entry H          line    22 file /theoryfs2/ds/metcalf/miniconda2/envs/tf2gpu/share/psi4/basis/cc-pvdz.gbs

         ---------------------------------------------------------
                                   SCF
               by Justin Turney, Rob Parrish, Andy Simmonett
                          and Daniel G. A. Smith
                              RHF Reference
                        1 Threads,    500 MiB Core
         ---------------------------------------------------------

  ==> Geometry <==

    Molecular point group: c1
    Full point group: C1

    Geometry (in Angstrom), charge = 1, multiplicity = 1:

       Center              X                  Y                   Z               Mass
    ------------   -----------------  -----------------  -----------------  -----------------
         C            2.220921179108    -0.570098343505    -1.813346414774    12.000000000000
         C            1.067921179108    -1.210098343505     0.401653585226    12.000000000000
         C            1.805921179108    -0.394098343505    -0.385346414774    12.000000000000
         C            1.696921179108     0.523901656495     1.632653585226    12.000000000000
         N            0.956921179108    -0.578098343505     1.631653585226    14.003074004430
         N            2.242921179108     0.645901656495     0.432653585226    14.003074004430
         H            0.619921179108    -2.149098343505     0.111653585226     1.007825032230
         H            0.429921179108    -0.921098343505     2.427653585226     1.007825032230
         H            2.125921179108     0.379901656495    -2.341346414774     1.007825032230
         H            1.540921179108    -1.285098343505    -2.277346414774     1.007825032230
         H            1.849921179108     1.191901656495     2.473653585226     1.007825032230
         H            3.251001179108    -0.946358343505    -1.899186414774     1.007825032230
         C           -2.448078820892    -1.049098343505    -1.630346414774    12.000000000000
         C           -1.675078820892     0.642901656495    -0.031346414774    12.000000000000
         N           -1.710078820892     0.147901656495    -1.258346414774    14.003074004430
         N           -2.371078820892     0.048901656495     0.935653585226    14.003074004430
         N           -0.973078820892     1.728901656495     0.219653585226    14.003074004430
         H           -1.222078820892     0.650901656495    -1.985346414774     1.007825032230
         H           -2.926078820892    -0.763098343505     0.731653585226     1.007825032230
         H           -2.384078820892     0.439901656495     1.864653585226     1.007825032230
         H           -0.400078820892     2.139901656495    -0.498346414774     1.007825032230
         H           -0.945078820892     2.109901656495     1.149653585226     1.007825032230
         H           -3.137078820892    -0.766098343505    -2.429346414774     1.007825032230
         H           -3.049078820892    -1.472098343505    -0.825346414774     1.007825032230
         H           -1.762148820892    -1.820498343505    -2.010396414774     1.007825032230

  Running in c1 symmetry.

  Rotational constants: A =      0.04959  B =      0.02615  C =      0.02164 [cm^-1]
  Rotational constants: A =   1486.66977  B =    783.83707  C =    648.81638 [MHz]
  Nuclear repulsion =  651.523090838055737

  Charge       = 1
  Multiplicity = 1
  Electrons    = 84
  Nalpha       = 42
  Nbeta        = 42

  ==> Algorithm <==

  SCF Algorithm Type is PK.
  DIIS enabled.
  MOM disabled.
  Fractional occupation disabled.
  Guess Type is SAD.
  Energy threshold   = 1.00e-06
  Density threshold  = 1.00e-10
  Integral threshold = 0.00e+00

  ==> Primary Basis <==

  Basis Set: CC-PVDZ
    Blend: CC-PVDZ
    Number of shells: 108
    Number of basis function: 224
    Number of Cartesian functions: 235
    Spherical Harmonics?: true
    Max angular momentum: 2

  ==> Pre-Iterations <==

   -------------------------------------------------------
    Irrep   Nso     Nmo     Nalpha   Nbeta   Ndocc  Nsocc
   -------------------------------------------------------
     A        224     224       0       0       0       0
   -------------------------------------------------------
    Total     224     224      42      42      42       0
   -------------------------------------------------------

  ==> Integral Setup <==

  Using integral reordering PK algorithm.
  Sizing the integral batches needed.
  Building batch lookup table.
   Calculation information:
      Number of atoms:                  25
      Number of AO shells:             108
      Number of primitives:            312
      Number of atomic orbitals:       235
      Number of basis functions:       224

      Integral cutoff                 1.00e-12
      Number of threads:                 1

	Batch   1 pq = [       0,    9405] index = [             0,44231715] size =     44231715
	Batch   2 pq = [    9405,   13301] index = [      44231715,88464951] size =     44233236
	Batch   3 pq = [   13301,   16290] index = [      88464951,132690195] size =     44225244
	Batch   4 pq = [   16290,   18810] index = [     132690195,176917455] size =     44227260
	Batch   5 pq = [   18810,   21030] index = [     176917455,221140965] size =     44223510
	Batch   6 pq = [   21030,   23037] index = [     221140965,265363203] size =     44222238
	Batch   7 pq = [   23037,   24883] index = [     265363203,309594286] size =     44231083
	Batch   8 pq = [   24883,   25200] index = [     309594286,317532600] size =      7938314
  Task number: 29
  Buffer size: 11059200
  Buffer per thread: 2
  We computed 18953668 shell quartets total.
  Whereas there are 17325441 unique shell quartets.
     9.40 percent of shell quartets recomputed by reordering.

  ==> DiskJK: Disk-Based J/K Matrices <==

    J tasked:                  Yes
    K tasked:                  Yes
    wK tasked:                  No
    Memory [MiB]:              375
    Schwarz Cutoff:          1E-12

    OpenMP threads:              1

  Minimum eigenvalue in the overlap matrix is 1.0587110324E-03.
  Using Symmetric Orthogonalization.

  SCF Guess: Superposition of Atomic Densities via on-the-fly atomic UHF.

  ==> Iterations <==

                        Total Energy        Delta E     RMS |[F,P]|

   @RHF iter SAD:  -507.00407101207418   -5.07004e+02   0.00000e+00
   @RHF iter   1:  -507.19089036835157   -1.86819e-01   2.92471e-03 DIIS
   @RHF iter   2:  -507.40231632343824   -2.11426e-01   1.37993e-03 DIIS
   @RHF iter   3:  -507.44501772093901   -4.27014e-02   3.97802e-04 DIIS
   @RHF iter   4:  -507.44965411813001   -4.63640e-03   1.51492e-04 DIIS
   @RHF iter   5:  -507.45027384538378   -6.19727e-04   2.51310e-05 DIIS
   @RHF iter   6:  -507.45030640372761   -3.25583e-05   1.07899e-05 DIIS
   @RHF iter   7:  -507.45031150930129   -5.10557e-06   3.48123e-06 DIIS
   @RHF iter   8:  -507.45031237710714   -8.67806e-07   1.21088e-06 DIIS
   @RHF iter   9:  -507.45031250025733   -1.23150e-07   5.13089e-07 DIIS
   @RHF iter  10:  -507.45031252315323   -2.28959e-08   1.84134e-07 DIIS
   @RHF iter  11:  -507.45031252687807   -3.72484e-09   6.56356e-08 DIIS
   @RHF iter  12:  -507.45031252718928   -3.11218e-10   2.55898e-08 DIIS
   @RHF iter  13:  -507.45031252723032   -4.10409e-11   8.71922e-09 DIIS
   @RHF iter  14:  -507.45031252723709   -6.76437e-12   3.18799e-09 DIIS
   @RHF iter  15:  -507.45031252723868   -1.59162e-12   1.20655e-09 DIIS
   @RHF iter  16:  -507.45031252724067   -1.98952e-12   3.84759e-10 DIIS
   @RHF iter  17:  -507.45031252723606    4.60432e-12   1.29646e-10 DIIS
   @RHF iter  18:  -507.45031252723447    1.59162e-12   4.27752e-11 DIIS
  Energy and wave function converged.

  ==> Post-Iterations <==

    Orbital Energies [Eh]
    ---------------------

    Doubly Occupied:

       1A    -15.783859     2A    -15.780655     3A    -15.778355
       4A    -15.738612     5A    -15.644703     6A    -11.584734
       7A    -11.440641     8A    -11.411104     9A    -11.370068
      10A    -11.360382    11A    -11.335670    12A     -1.539042
      13A     -1.459084    14A     -1.398181    15A     -1.386386
      16A     -1.266494    17A     -1.151792    18A     -1.140836
      19A     -1.056167    20A     -1.033820    21A     -0.976459
      22A     -0.936731    23A     -0.932687    24A     -0.879288
      25A     -0.857750    26A     -0.856143    27A     -0.852442
      28A     -0.820603    29A     -0.793467    30A     -0.744508
      31A     -0.726258    32A     -0.725104    33A     -0.717284
      34A     -0.714631    35A     -0.665100    36A     -0.655724
      37A     -0.635515    38A     -0.612687    39A     -0.577289
      40A     -0.522944    41A     -0.493183    42A     -0.432251

    Virtual:

      43A     -0.009565    44A      0.021477    45A      0.026714
      46A      0.034760    47A      0.053538    48A      0.062554
      49A      0.076610    50A      0.085073    51A      0.097994
      52A      0.107365    53A      0.118955    54A      0.133551
      55A      0.137285    56A      0.141660    57A      0.164087
      58A      0.189901    59A      0.200238    60A      0.217980
      61A      0.248974    62A      0.272693    63A      0.281589
      64A      0.306095    65A      0.334662    66A      0.346351
      67A      0.358076    68A      0.371727    69A      0.421916
      70A      0.437657    71A      0.483085    72A      0.500245
      73A      0.505873    74A      0.524659    75A      0.534471
      76A      0.537578    77A      0.548866    78A      0.557519
      79A      0.565708    80A      0.584228    81A      0.602402
      82A      0.631079    83A      0.635603    84A      0.647995
      85A      0.668632    86A      0.685413    87A      0.686955
      88A      0.700879    89A      0.716115    90A      0.719485
      91A      0.738170    92A      0.752261    93A      0.762576
      94A      0.766019    95A      0.778007    96A      0.794930
      97A      0.811150    98A      0.815499    99A      0.827352
     100A      0.833340   101A      0.852995   102A      0.863822
     103A      0.887322   104A      0.891594   105A      0.899953
     106A      0.926530   107A      0.931037   108A      0.949299
     109A      0.979345   110A      0.995759   111A      1.000048
     112A      1.018681   113A      1.049027   114A      1.050663
     115A      1.071136   116A      1.089048   117A      1.124590
     118A      1.136776   119A      1.164852   120A      1.167249
     121A      1.176222   122A      1.191124   123A      1.199614
     124A      1.217757   125A      1.222278   126A      1.231175
     127A      1.249065   128A      1.304105   129A      1.320764
     130A      1.330142   131A      1.357414   132A      1.380509
     133A      1.416014   134A      1.452097   135A      1.491521
     136A      1.507869   137A      1.519075   138A      1.528246
     139A      1.543547   140A      1.564867   141A      1.578582
     142A      1.600972   143A      1.619323   144A      1.652719
     145A      1.658816   146A      1.670479   147A      1.697279
     148A      1.712147   149A      1.722493   150A      1.737475
     151A      1.738139   152A      1.753699   153A      1.758729
     154A      1.782733   155A      1.793071   156A      1.804967
     157A      1.813196   158A      1.830361   159A      1.847883
     160A      1.851081   161A      1.860567   162A      1.867405
     163A      1.880267   164A      1.905747   165A      1.928268
     166A      1.969326   167A      1.986641   168A      1.994379
     169A      2.002822   170A      2.012279   171A      2.034142
     172A      2.068301   173A      2.088902   174A      2.102183
     175A      2.112222   176A      2.119040   177A      2.158309
     178A      2.193653   179A      2.213480   180A      2.261427
     181A      2.274043   182A      2.277776   183A      2.300069
     184A      2.316187   185A      2.319731   186A      2.334181
     187A      2.343613   188A      2.366493   189A      2.388685
     190A      2.419065   191A      2.433685   192A      2.445492
     193A      2.473760   194A      2.491831   195A      2.555941
     196A      2.580177   197A      2.594166   198A      2.596026
     199A      2.614528   200A      2.630024   201A      2.647846
     202A      2.674933   203A      2.680023   204A      2.711088
     205A      2.743286   206A      2.747115   207A      2.757722
     208A      2.781455   209A      2.790375   210A      2.810542
     211A      2.834552   212A      2.862655   213A      2.867751
     214A      2.941768   215A      2.953755   216A      3.046236
     217A      3.074559   218A      3.111625   219A      3.133091
     220A      3.137520   221A      3.360572   222A      3.597021
     223A      3.657045   224A      3.691197

    Final Occupation by Irrep:
              A
    DOCC [    42 ]

  @RHF Final Energy:  -507.45031252723447

   => Energetics <=

    Nuclear Repulsion Energy =            651.5230908380557366
    One-Electron Energy =               -1968.3695464656243530
    Two-Electron Energy =                 809.3961431003340294
    Total Energy =                       -507.4503125272344732

Computation Completed

Properties will be evaluated at   0.000000,   0.000000,   0.000000 [a0]

Properties computed using the SCF density matrix

  Nuclear Dipole Moment: [e a0]
     X:    -5.6270      Y:    -3.0160      Z:    -5.1690

  Electronic Dipole Moment: [e a0]
     X:     1.9967      Y:     3.1662      Z:     5.6394

  Dipole Moment: [e a0]
     X:    -3.6303      Y:     0.1502      Z:     0.4704     Total:     3.6637

  Dipole Moment: [D]
     X:    -9.2273      Y:     0.3817      Z:     1.1957     Total:     9.3123

*** tstop() called on ds3 at Sun Apr 26 18:42:10 2020
Module time:
	user time   =     136.78 seconds =       2.28 minutes
	system time =      50.23 seconds =       0.84 minutes
	total time  =        181 seconds =       3.02 minutes
Total time:
	user time   =     136.78 seconds =       2.28 minutes
	system time =      50.23 seconds =       0.84 minutes
	total time  =        181 seconds =       3.02 minutes
                                     G D M A

                                 by Anthony Stone

                           version 2.2.06, 22 June 2011

               Distributed Multipoles from Gaussian wavefunctions

Starting at 18:42:10 on 26 Apr 2020

Using SCF density matrix from file ./SSI/SSI-035HIE-059ARG-2-dimer.test.31828.fchk

                         Distributed Multipole Analysis

Standard DMA

Positions and radii in angstrom
Multipole moments in atomic units, ea_0^k for rank k

C          x =  2.220921  y = -0.570098  z = -1.813346 angstrom
           Maximum rank =  0   Radius =  0.650 angstrom
                   Q00  =  -0.182476

C          x =  1.067921  y = -1.210098  z =  0.401654 angstrom
           Maximum rank =  0   Radius =  0.650 angstrom
                   Q00  =  -0.012829

C          x =  1.805921  y = -0.394098  z = -0.385346 angstrom
           Maximum rank =  0   Radius =  0.650 angstrom
                   Q00  =   0.210947

C          x =  1.696921  y =  0.523902  z =  1.632654 angstrom
           Maximum rank =  0   Radius =  0.650 angstrom
                   Q00  =   0.443336

N          x =  0.956921  y = -0.578098  z =  1.631654 angstrom
           Maximum rank =  0   Radius =  0.650 angstrom
                   Q00  =  -0.487196

N          x =  2.242921  y =  0.645902  z =  0.432654 angstrom
           Maximum rank =  0   Radius =  0.650 angstrom
                   Q00  =  -0.762166

H          x =  0.619921  y = -2.149098  z =  0.111654 angstrom
           Maximum rank =  0   Radius =  0.325 angstrom
                   Q00  =   0.102407

H          x =  0.429921  y = -0.921098  z =  2.427654 angstrom
           Maximum rank =  0   Radius =  0.325 angstrom
                   Q00  =   0.218012

H          x =  2.125921  y =  0.379902  z = -2.341346 angstrom
           Maximum rank =  0   Radius =  0.325 angstrom
                   Q00  =   0.107486

H          x =  1.540921  y = -1.285098  z = -2.277346 angstrom
           Maximum rank =  0   Radius =  0.325 angstrom
                   Q00  =   0.081938

H          x =  1.849921  y =  1.191902  z =  2.473654 angstrom
           Maximum rank =  0   Radius =  0.325 angstrom
                   Q00  =   0.135478

H          x =  3.251001  y = -0.946358  z = -1.899186 angstrom
           Maximum rank =  0   Radius =  0.325 angstrom
                   Q00  =   0.138850

C          x = -2.448079  y = -1.049098  z = -1.630346 angstrom
           Maximum rank =  0   Radius =  0.650 angstrom
                   Q00  =  -0.122235

C          x = -1.675079  y =  0.642902  z = -0.031346 angstrom
           Maximum rank =  0   Radius =  0.650 angstrom
                   Q00  =   1.069485

N          x = -1.710079  y =  0.147902  z = -1.258346 angstrom
           Maximum rank =  0   Radius =  0.650 angstrom
                   Q00  =  -0.469573

N          x = -2.371079  y =  0.048902  z =  0.935654 angstrom
           Maximum rank =  0   Radius =  0.650 angstrom
                   Q00  =  -0.587897

N          x = -0.973079  y =  1.728902  z =  0.219654 angstrom
           Maximum rank =  0   Radius =  0.650 angstrom
                   Q00  =  -0.567660

H          x = -1.222079  y =  0.650902  z = -1.985346 angstrom
           Maximum rank =  0   Radius =  0.325 angstrom
                   Q00  =   0.241544

H          x = -2.926079  y = -0.763098  z =  0.731654 angstrom
           Maximum rank =  0   Radius =  0.325 angstrom
                   Q00  =   0.263962

H          x = -2.384079  y =  0.439902  z =  1.864654 angstrom
           Maximum rank =  0   Radius =  0.325 angstrom
                   Q00  =   0.258883

H          x = -0.400079  y =  2.139902  z = -0.498346 angstrom
           Maximum rank =  0   Radius =  0.325 angstrom
                   Q00  =   0.274062

H          x = -0.945079  y =  2.109902  z =  1.149654 angstrom
           Maximum rank =  0   Radius =  0.325 angstrom
                   Q00  =   0.260975

H          x = -3.137079  y = -0.766098  z = -2.429346 angstrom
           Maximum rank =  0   Radius =  0.325 angstrom
                   Q00  =   0.140224

H          x = -3.049079  y = -1.472098  z = -0.825346 angstrom
           Maximum rank =  0   Radius =  0.325 angstrom
                   Q00  =   0.107575

H          x = -1.762149  y = -1.820498  z = -2.010396 angstrom
           Maximum rank =  0   Radius =  0.325 angstrom
                   Q00  =   0.136870

Total multipoles referred to origin at
           x =   0.000000,  y =    0.000000,  z =    0.000000 angstrom
                   Q00  =   1.000000

Finished at 18:42:10 on 26 Apr 2020

  DMA results are available in the Python driver through the
	  variable('DMA DISTRIBUTED MULTIPOLES')
  and
	  variable('DMA TOTAL MULTIPOLES')
  commands.

    Psi4 stopped on: Sunday, 26 April 2020 06:42PM
    Psi4 wall time for execution: 0:03:01.07

*** Psi4 exiting successfully. Buy a developer a beer!
