                               Psi4 1.3.2 release

  ==> Input File <==

--------------------------------------------------------------------------
import numpy as np
set {scf_type pk
basis cc-pvdz
d_convergence 10
gdma_switch   0
gdma_limit    0
gdma_origin   [ 0.0,  0.0,  0.0 ]
}
molecule test {
    units Angstrom
    0 1
    --
    0 1
    C                2.817640019454977     1.563897273269833    -1.439730772789722
    C                4.308640019454977     1.855897273269833    -1.281730772789722
    H                2.656640019454977     0.756897273269833    -2.151730772789722
    H                2.392640019454977     1.270897273269833    -0.485730772789722
    H                2.299640019454976     2.456897273269834    -1.775730772789722
    H                4.812640019454976     0.943897273269833    -0.971730772789722
    H                4.389640019454976     2.574897273269833    -0.467730772789722
    H                4.779400019454976     2.244167273269833    -2.196950772789722
    C               -2.723359980545023     1.294897273269833     0.728269227210278
    C                0.224640019454977    -0.770102726730167    -0.448730772789722
    C               -0.675359980545023     0.280897273269833    -0.277730772789722
    C                0.021640019454977    -1.948102726730167     0.224269227210278
    C               -1.770359980545023     0.143897273269833     0.558269227210278
    C               -1.051359980545023    -2.093102726730167     1.065269227210278
    C               -1.965359980545023    -1.050102726730167     1.224269227210278
    H                1.070640019454977    -0.669102726730167    -1.111730772789722
    H               -0.507359980545023     1.211897273269833    -0.801730772789722
    H                0.723640019454977    -2.754102726730167     0.085269227210278
    H               -1.199359980545023    -3.025102726730167     1.594269227210279
    H               -3.737359980545023     0.911897273269833     0.727269227210278
    H               -2.630359980545023     1.935897273269833    -0.149730772789722
    H               -2.815359980545023    -1.165102726730167     1.880269227210278
    H               -2.551972980545024     1.901897273269833     1.629479227210278

}
e, wfn = energy('scf', return_wfn=True)
gdma(wfn)
dmavals = variable('DMA DISTRIBUTED MULTIPOLES')
charges = np.array(dmavals)
print(charges)
np.save('SSI-037ILE-116PHE-1-dimer.npy', np.array(charges))--------------------------------------------------------------------------

*** tstart() called on ds3
*** at Mon Apr 27 19:27:03 2020

   => Loading Basis Set <=

    Name: CC-PVDZ
    Role: ORBITAL
    Keyword: BASIS
    atoms 1-2, 9-15  entry C          line   138 file /theoryfs2/ds/metcalf/miniconda2/envs/tf2gpu/share/psi4/basis/cc-pvdz.gbs
    atoms 3-8, 16-23 entry H          line    22 file /theoryfs2/ds/metcalf/miniconda2/envs/tf2gpu/share/psi4/basis/cc-pvdz.gbs

         ---------------------------------------------------------
                                   SCF
               by Justin Turney, Rob Parrish, Andy Simmonett
                          and Daniel G. A. Smith
                              RHF Reference
                        1 Threads,    500 MiB Core
         ---------------------------------------------------------

  ==> Geometry <==

    Molecular point group: c1
    Full point group: C1

    Geometry (in Angstrom), charge = 0, multiplicity = 1:

       Center              X                  Y                   Z               Mass
    ------------   -----------------  -----------------  -----------------  -----------------
         C            2.817640019455     1.563897273270    -1.439730772790    12.000000000000
         C            4.308640019455     1.855897273270    -1.281730772790    12.000000000000
         H            2.656640019455     0.756897273270    -2.151730772790     1.007825032230
         H            2.392640019455     1.270897273270    -0.485730772790     1.007825032230
         H            2.299640019455     2.456897273270    -1.775730772790     1.007825032230
         H            4.812640019455     0.943897273270    -0.971730772790     1.007825032230
         H            4.389640019455     2.574897273270    -0.467730772790     1.007825032230
         H            4.779400019455     2.244167273270    -2.196950772790     1.007825032230
         C           -2.723359980545     1.294897273270     0.728269227210    12.000000000000
         C            0.224640019455    -0.770102726730    -0.448730772790    12.000000000000
         C           -0.675359980545     0.280897273270    -0.277730772790    12.000000000000
         C            0.021640019455    -1.948102726730     0.224269227210    12.000000000000
         C           -1.770359980545     0.143897273270     0.558269227210    12.000000000000
         C           -1.051359980545    -2.093102726730     1.065269227210    12.000000000000
         C           -1.965359980545    -1.050102726730     1.224269227210    12.000000000000
         H            1.070640019455    -0.669102726730    -1.111730772790     1.007825032230
         H           -0.507359980545     1.211897273270    -0.801730772790     1.007825032230
         H            0.723640019455    -2.754102726730     0.085269227210     1.007825032230
         H           -1.199359980545    -3.025102726730     1.594269227210     1.007825032230
         H           -3.737359980545     0.911897273270     0.727269227210     1.007825032230
         H           -2.630359980545     1.935897273270    -0.149730772790     1.007825032230
         H           -2.815359980545    -1.165102726730     1.880269227210     1.007825032230
         H           -2.551972980545     1.901897273270     1.629479227210     1.007825032230

  Running in c1 symmetry.

  Rotational constants: A =      0.08102  B =      0.02058  C =      0.01702 [cm^-1]
  Rotational constants: A =   2428.86726  B =    616.85552  C =    510.36481 [MHz]
  Nuclear repulsion =  400.691421660249205

  Charge       = 0
  Multiplicity = 1
  Electrons    = 68
  Nalpha       = 34
  Nbeta        = 34

  ==> Algorithm <==

  SCF Algorithm Type is PK.
  DIIS enabled.
  MOM disabled.
  Fractional occupation disabled.
  Guess Type is SAD.
  Energy threshold   = 1.00e-06
  Density threshold  = 1.00e-10
  Integral threshold = 0.00e+00

  ==> Primary Basis <==

  Basis Set: CC-PVDZ
    Blend: CC-PVDZ
    Number of shells: 96
    Number of basis function: 196
    Number of Cartesian functions: 205
    Spherical Harmonics?: true
    Max angular momentum: 2

  ==> Pre-Iterations <==

   -------------------------------------------------------
    Irrep   Nso     Nmo     Nalpha   Nbeta   Ndocc  Nsocc
   -------------------------------------------------------
     A        196     196       0       0       0       0
   -------------------------------------------------------
    Total     196     196      34      34      34       0
   -------------------------------------------------------

  ==> Integral Setup <==

  Using integral reordering PK algorithm.
  Sizing the integral batches needed.
  Building batch lookup table.
   Calculation information:
      Number of atoms:                  23
      Number of AO shells:              96
      Number of primitives:            268
      Number of atomic orbitals:       205
      Number of basis functions:       196

      Integral cutoff                 1.00e-12
      Number of threads:                 1

	Batch   1 pq = [       0,    9405] index = [             0,44231715] size =     44231715
	Batch   2 pq = [    9405,   13301] index = [      44231715,88464951] size =     44233236
	Batch   3 pq = [   13301,   16290] index = [      88464951,132690195] size =     44225244
	Batch   4 pq = [   16290,   18810] index = [     132690195,176917455] size =     44227260
	Batch   5 pq = [   18810,   19306] index = [     176917455,186370471] size =      9453016
  Task number: 17
  Buffer size: 11059200
  Buffer per thread: 2
  We computed 8503283 shell quartets total.
  Whereas there are 10841496 unique shell quartets.

  ==> DiskJK: Disk-Based J/K Matrices <==

    J tasked:                  Yes
    K tasked:                  Yes
    wK tasked:                  No
    Memory [MiB]:              375
    Schwarz Cutoff:          1E-12

    OpenMP threads:              1

  Minimum eigenvalue in the overlap matrix is 2.8722625405E-04.
  Using Symmetric Orthogonalization.

  SCF Guess: Superposition of Atomic Densities via on-the-fly atomic UHF.

  ==> Iterations <==

                        Total Energy        Delta E     RMS |[F,P]|

   @RHF iter SAD:  -348.01131237163463   -3.48011e+02   0.00000e+00
   @RHF iter   1:  -348.76168053674610   -7.50368e-01   2.92678e-03 DIIS
   @RHF iter   2:  -348.95716634194105   -1.95486e-01   1.21807e-03 DIIS
   @RHF iter   3:  -348.98809736316099   -3.09310e-02   2.61106e-04 DIIS
   @RHF iter   4:  -348.99059975977707   -2.50240e-03   5.34026e-05 DIIS
   @RHF iter   5:  -348.99067520285195   -7.54431e-05   1.72474e-05 DIIS
   @RHF iter   6:  -348.99068254226563   -7.33941e-06   4.68267e-06 DIIS
   @RHF iter   7:  -348.99068315459732   -6.12332e-07   1.28700e-06 DIIS
   @RHF iter   8:  -348.99068320117840   -4.65811e-08   2.61521e-07 DIIS
   @RHF iter   9:  -348.99068320413323   -2.95483e-09   8.94472e-08 DIIS
   @RHF iter  10:  -348.99068320445576   -3.22530e-10   3.16087e-08 DIIS
   @RHF iter  11:  -348.99068320451272   -5.69571e-11   9.48086e-09 DIIS
   @RHF iter  12:  -348.99068320452182   -9.09495e-12   4.60164e-09 DIIS
   @RHF iter  13:  -348.99068320452534   -3.52429e-12   2.40034e-09 DIIS
   @RHF iter  14:  -348.99068320452443    9.09495e-13   7.74635e-10 DIIS
   @RHF iter  15:  -348.99068320452557   -1.13687e-12   3.06910e-10 DIIS
   @RHF iter  16:  -348.99068320452602   -4.54747e-13   6.72463e-11 DIIS
  Energy and wave function converged.

  ==> Post-Iterations <==

    Orbital Energies [Eh]
    ---------------------

    Doubly Occupied:

       1A    -11.235913     2A    -11.232145     3A    -11.230028
       4A    -11.228066     5A    -11.227144     6A    -11.227028
       7A    -11.224382     8A    -11.218381     9A    -11.216191
      10A     -1.157272    11A     -1.048258    12A     -1.021198
      13A     -1.010311    14A     -0.932163    15A     -0.840026
      16A     -0.828060    17A     -0.793004    18A     -0.692679
      19A     -0.633078    20A     -0.628384    21A     -0.601739
      22A     -0.599545    23A     -0.580692    24A     -0.578043
      25A     -0.563105    26A     -0.532769    27A     -0.503632
      28A     -0.490665    29A     -0.490313    30A     -0.485562
      31A     -0.481565    32A     -0.477590    33A     -0.329766
      34A     -0.325767

    Virtual:

      35A      0.136550    36A      0.145546    37A      0.177244
      38A      0.192381    39A      0.205421    40A      0.214414
      41A      0.233830    42A      0.246056    43A      0.256698
      44A      0.261866    45A      0.264161    46A      0.279065
      47A      0.282814    48A      0.292470    49A      0.305852
      50A      0.333606    51A      0.369295    52A      0.372075
      53A      0.404408    54A      0.459887    55A      0.467893
      56A      0.483796    57A      0.498304    58A      0.562815
      59A      0.593778    60A      0.597484    61A      0.603652
      62A      0.635165    63A      0.647975    64A      0.678737
      65A      0.680168    66A      0.690124    67A      0.699240
      68A      0.713998    69A      0.722440    70A      0.744436
      71A      0.748597    72A      0.753629    73A      0.761582
      74A      0.776804    75A      0.782971    76A      0.794740
      77A      0.836917    78A      0.850136    79A      0.864690
      80A      0.871001    81A      0.881094    82A      0.887967
      83A      0.893604    84A      0.894906    85A      0.897646
      86A      0.908509    87A      0.918649    88A      0.923338
      89A      0.929523    90A      0.936388    91A      0.943382
      92A      0.958974    93A      0.987704    94A      1.007809
      95A      1.037024    96A      1.055697    97A      1.115907
      98A      1.130226    99A      1.136640   100A      1.159571
     101A      1.163743   102A      1.183022   103A      1.213674
     104A      1.225975   105A      1.253557   106A      1.255057
     107A      1.258583   108A      1.281713   109A      1.312052
     110A      1.321523   111A      1.333944   112A      1.334259
     113A      1.414181   114A      1.461529   115A      1.485452
     116A      1.511303   117A      1.529606   118A      1.558818
     119A      1.584592   120A      1.611942   121A      1.679994
     122A      1.682120   123A      1.702713   124A      1.706102
     125A      1.738603   126A      1.752264   127A      1.767252
     128A      1.794554   129A      1.816763   130A      1.854330
     131A      1.864678   132A      1.881141   133A      1.895552
     134A      1.900465   135A      1.910199   136A      1.913224
     137A      1.919526   138A      1.937530   139A      1.939832
     140A      1.947038   141A      1.951947   142A      1.958943
     143A      1.968113   144A      1.974846   145A      1.977835
     146A      1.990733   147A      2.004487   148A      2.023256
     149A      2.048033   150A      2.066152   151A      2.077371
     152A      2.093515   153A      2.119125   154A      2.132407
     155A      2.149984   156A      2.173387   157A      2.185357
     158A      2.189559   159A      2.208682   160A      2.258478
     161A      2.284502   162A      2.292155   163A      2.306912
     164A      2.311990   165A      2.319028   166A      2.327878
     167A      2.362449   168A      2.462656   169A      2.474229
     170A      2.477841   171A      2.488476   172A      2.519680
     173A      2.551576   174A      2.566098   175A      2.591751
     176A      2.630544   177A      2.751496   178A      2.771759
     179A      2.774049   180A      2.776216   181A      2.795880
     182A      2.810527   183A      2.825818   184A      2.848156
     185A      2.859376   186A      2.872300   187A      2.887309
     188A      2.957485   189A      2.969586   190A      2.991937
     191A      3.030274   192A      3.045317   193A      3.171387
     194A      3.224281   195A      3.321353   196A      4.005379

    Final Occupation by Irrep:
              A
    DOCC [    34 ]

  @RHF Final Energy:  -348.99068320452602

   => Energetics <=

    Nuclear Repulsion Energy =            400.6914216602492047
    One-Electron Energy =               -1264.0352805980678568
    Two-Electron Energy =                 514.3531757332925736
    Total Energy =                       -348.9906832045260217

Computation Completed

Properties will be evaluated at   0.000000,   0.000000,   0.000000 [a0]

Properties computed using the SCF density matrix

  Nuclear Dipole Moment: [e a0]
     X:     9.0776      Y:     8.0583      Z:    -3.9338

  Electronic Dipole Moment: [e a0]
     X:    -9.1400      Y:    -7.9671      Z:     3.9666

  Dipole Moment: [e a0]
     X:    -0.0624      Y:     0.0913      Z:     0.0327     Total:     0.1153

  Dipole Moment: [D]
     X:    -0.1586      Y:     0.2320      Z:     0.0832     Total:     0.2931

*** tstop() called on ds3 at Mon Apr 27 19:29:42 2020
Module time:
	user time   =      58.57 seconds =       0.98 minutes
	system time =      24.72 seconds =       0.41 minutes
	total time  =        159 seconds =       2.65 minutes
Total time:
	user time   =      58.57 seconds =       0.98 minutes
	system time =      24.72 seconds =       0.41 minutes
	total time  =        159 seconds =       2.65 minutes
                                     G D M A

                                 by Anthony Stone

                           version 2.2.06, 22 June 2011

               Distributed Multipoles from Gaussian wavefunctions

Starting at 19:29:42 on 27 Apr 2020

Using SCF density matrix from file ./SSI/SSI-037ILE-116PHE-1-dimer.test.6477.fchk

                         Distributed Multipole Analysis

Standard DMA

Positions and radii in angstrom
Multipole moments in atomic units, ea_0^k for rank k

C          x =  2.817640  y =  1.563897  z = -1.439731 angstrom
           Maximum rank =  0   Radius =  0.650 angstrom
                   Q00  =  -0.247018

C          x =  4.308640  y =  1.855897  z = -1.281731 angstrom
           Maximum rank =  0   Radius =  0.650 angstrom
                   Q00  =  -0.230690

H          x =  2.656640  y =  0.756897  z = -2.151731 angstrom
           Maximum rank =  0   Radius =  0.325 angstrom
                   Q00  =   0.073705

H          x =  2.392640  y =  1.270897  z = -0.485731 angstrom
           Maximum rank =  0   Radius =  0.325 angstrom
                   Q00  =   0.085643

H          x =  2.299640  y =  2.456897  z = -1.775731 angstrom
           Maximum rank =  0   Radius =  0.325 angstrom
                   Q00  =   0.079165

H          x =  4.812640  y =  0.943897  z = -0.971731 angstrom
           Maximum rank =  0   Radius =  0.325 angstrom
                   Q00  =   0.079003

H          x =  4.389640  y =  2.574897  z = -0.467731 angstrom
           Maximum rank =  0   Radius =  0.325 angstrom
                   Q00  =   0.077522

H          x =  4.779400  y =  2.244167  z = -2.196951 angstrom
           Maximum rank =  0   Radius =  0.325 angstrom
                   Q00  =   0.082384

C          x = -2.723360  y =  1.294897  z =  0.728269 angstrom
           Maximum rank =  0   Radius =  0.650 angstrom
                   Q00  =  -0.204554

C          x =  0.224640  y = -0.770103  z = -0.448731 angstrom
           Maximum rank =  0   Radius =  0.650 angstrom
                   Q00  =  -0.065183

C          x = -0.675360  y =  0.280897  z = -0.277731 angstrom
           Maximum rank =  0   Radius =  0.650 angstrom
                   Q00  =  -0.032383

C          x =  0.021640  y = -1.948103  z =  0.224269 angstrom
           Maximum rank =  0   Radius =  0.650 angstrom
                   Q00  =  -0.080348

C          x = -1.770360  y =  0.143897  z =  0.558269 angstrom
           Maximum rank =  0   Radius =  0.650 angstrom
                   Q00  =  -0.095620

C          x = -1.051360  y = -2.093103  z =  1.065269 angstrom
           Maximum rank =  0   Radius =  0.650 angstrom
                   Q00  =  -0.029555

C          x = -1.965360  y = -1.050103  z =  1.224269 angstrom
           Maximum rank =  0   Radius =  0.650 angstrom
                   Q00  =  -0.084008

H          x =  1.070640  y = -0.669103  z = -1.111731 angstrom
           Maximum rank =  0   Radius =  0.325 angstrom
                   Q00  =   0.065591

H          x = -0.507360  y =  1.211897  z = -0.801731 angstrom
           Maximum rank =  0   Radius =  0.325 angstrom
                   Q00  =   0.055627

H          x =  0.723640  y = -2.754103  z =  0.085269 angstrom
           Maximum rank =  0   Radius =  0.325 angstrom
                   Q00  =   0.053777

H          x = -1.199360  y = -3.025103  z =  1.594269 angstrom
           Maximum rank =  0   Radius =  0.325 angstrom
                   Q00  =   0.061705

H          x = -3.737360  y =  0.911897  z =  0.727269 angstrom
           Maximum rank =  0   Radius =  0.325 angstrom
                   Q00  =   0.099577

H          x = -2.630360  y =  1.935897  z = -0.149731 angstrom
           Maximum rank =  0   Radius =  0.325 angstrom
                   Q00  =   0.094610

H          x = -2.815360  y = -1.165103  z =  1.880269 angstrom
           Maximum rank =  0   Radius =  0.325 angstrom
                   Q00  =   0.055701

H          x = -2.551973  y =  1.901897  z =  1.629479 angstrom
           Maximum rank =  0   Radius =  0.325 angstrom
                   Q00  =   0.105348

Total multipoles referred to origin at
           x =   0.000000,  y =    0.000000,  z =    0.000000 angstrom
                   Q00  =  -0.000000

Finished at 19:29:42 on 27 Apr 2020

  DMA results are available in the Python driver through the
	  variable('DMA DISTRIBUTED MULTIPOLES')
  and
	  variable('DMA TOTAL MULTIPOLES')
  commands.

    Psi4 stopped on: Monday, 27 April 2020 07:29PM
    Psi4 wall time for execution: 0:02:39.50

*** Psi4 exiting successfully. Buy a developer a beer!
