                               Psi4 1.3.2 release

  ==> Input File <==

--------------------------------------------------------------------------
import numpy as np
set {scf_type pk
basis cc-pvdz
d_convergence 10
gdma_switch   0
gdma_limit    0
gdma_origin   [ 0.0,  0.0,  0.0 ]
}
molecule test {
    units Angstrom
    0 1
    --
    0 1
    C                0.776424703457096     4.105345032298415     1.319276676919233
    C                1.731424703457096     2.965345032298416     1.708276676919233
    H                1.242424703457096     5.071345032298416     1.500276676919233
    H                0.537424703457096     4.033345032298415     0.258276676919234
    H               -0.151575296542904     4.038345032298415     1.885276676919233
    H                1.239424703457096     2.026345032298416     1.466276676919233
    H                1.953291203457096     2.953965032298416     2.785609676919234
    H                2.658523303457096     2.993505032298416     1.116926676919233
    C               -0.184575296542904     1.458345032298416    -1.321723323080767
    C               -0.538575296542904     1.563345032298416    -2.806723323080766
    C               -0.244575296542904     0.087345032298416    -0.680723323080767
    C               -0.499575296542904    -0.032654967701584     0.689276676919233
    C               -0.049575296542904    -1.077654967701584    -1.433723323080767
    C               -0.507575296542904    -1.272654967701584     1.307276676919233
    C               -0.094575296542904    -2.326654967701584    -0.816723323080767
    C               -0.309575296542904    -2.419654967701584     0.552276676919233
    O               -0.325575296542904    -3.645654967701584     1.148276676919233
    H                0.835424703457096     1.823345032298416    -1.201723323080767
    H               -0.824575296542904     2.134345032298416    -0.765723323080767
    H                0.213424703457096     1.025345032298416    -3.378723323080767
    H               -0.676575296542904     0.853345032298416     1.283276676919233
    H                0.153424703457096    -1.031654967701584    -2.492723323080766
    H               -0.681575296542904    -1.346654967701584     2.372276676919233
    H                0.022424703457096    -3.221654967701584    -1.394723323080767
    H               -0.210575296542904    -3.567654967701584     2.109276676919233
    H               -0.558232296542904     2.623325032298416    -3.100073323080766
    H               -1.529143296542904     1.129065032298416    -3.007163323080766

}
e, wfn = energy('scf', return_wfn=True)
gdma(wfn)
dmavals = variable('DMA DISTRIBUTED MULTIPOLES')
charges = np.array(dmavals)
print(charges)
np.save('SSI-009VAL-086TYR-1-dimer.npy', np.array(charges))--------------------------------------------------------------------------

*** tstart() called on ds3
*** at Tue Apr 28 00:04:24 2020

   => Loading Basis Set <=

    Name: CC-PVDZ
    Role: ORBITAL
    Keyword: BASIS
    atoms 1-2, 9-16  entry C          line   138 file /theoryfs2/ds/metcalf/miniconda2/envs/tf2gpu/share/psi4/basis/cc-pvdz.gbs
    atoms 3-8, 18-27 entry H          line    22 file /theoryfs2/ds/metcalf/miniconda2/envs/tf2gpu/share/psi4/basis/cc-pvdz.gbs
    atoms 17         entry O          line   198 file /theoryfs2/ds/metcalf/miniconda2/envs/tf2gpu/share/psi4/basis/cc-pvdz.gbs

         ---------------------------------------------------------
                                   SCF
               by Justin Turney, Rob Parrish, Andy Simmonett
                          and Daniel G. A. Smith
                              RHF Reference
                        1 Threads,    500 MiB Core
         ---------------------------------------------------------

  ==> Geometry <==

    Molecular point group: c1
    Full point group: C1

    Geometry (in Angstrom), charge = 0, multiplicity = 1:

       Center              X                  Y                   Z               Mass
    ------------   -----------------  -----------------  -----------------  -----------------
         C            0.776424703457     4.105345032298     1.319276676919    12.000000000000
         C            1.731424703457     2.965345032298     1.708276676919    12.000000000000
         H            1.242424703457     5.071345032298     1.500276676919     1.007825032230
         H            0.537424703457     4.033345032298     0.258276676919     1.007825032230
         H           -0.151575296543     4.038345032298     1.885276676919     1.007825032230
         H            1.239424703457     2.026345032298     1.466276676919     1.007825032230
         H            1.953291203457     2.953965032298     2.785609676919     1.007825032230
         H            2.658523303457     2.993505032298     1.116926676919     1.007825032230
         C           -0.184575296543     1.458345032298    -1.321723323081    12.000000000000
         C           -0.538575296543     1.563345032298    -2.806723323081    12.000000000000
         C           -0.244575296543     0.087345032298    -0.680723323081    12.000000000000
         C           -0.499575296543    -0.032654967702     0.689276676919    12.000000000000
         C           -0.049575296543    -1.077654967702    -1.433723323081    12.000000000000
         C           -0.507575296543    -1.272654967702     1.307276676919    12.000000000000
         C           -0.094575296543    -2.326654967702    -0.816723323081    12.000000000000
         C           -0.309575296543    -2.419654967702     0.552276676919    12.000000000000
         O           -0.325575296543    -3.645654967702     1.148276676919    15.994914619570
         H            0.835424703457     1.823345032298    -1.201723323081     1.007825032230
         H           -0.824575296543     2.134345032298    -0.765723323081     1.007825032230
         H            0.213424703457     1.025345032298    -3.378723323081     1.007825032230
         H           -0.676575296543     0.853345032298     1.283276676919     1.007825032230
         H            0.153424703457    -1.031654967702    -2.492723323081     1.007825032230
         H           -0.681575296543    -1.346654967702     2.372276676919     1.007825032230
         H            0.022424703457    -3.221654967702    -1.394723323081     1.007825032230
         H           -0.210575296543    -3.567654967702     2.109276676919     1.007825032230
         H           -0.558232296543     2.623325032298    -3.100073323081     1.007825032230
         H           -1.529143296543     1.129065032298    -3.007163323081     1.007825032230

  Running in c1 symmetry.

  Rotational constants: A =      0.04438  B =      0.01812  C =      0.01359 [cm^-1]
  Rotational constants: A =   1330.46361  B =    543.11644  C =    407.50871 [MHz]
  Nuclear repulsion =  582.505224374101658

  Charge       = 0
  Multiplicity = 1
  Electrons    = 84
  Nalpha       = 42
  Nbeta        = 42

  ==> Algorithm <==

  SCF Algorithm Type is PK.
  DIIS enabled.
  MOM disabled.
  Fractional occupation disabled.
  Guess Type is SAD.
  Energy threshold   = 1.00e-06
  Density threshold  = 1.00e-10
  Integral threshold = 0.00e+00

  ==> Primary Basis <==

  Basis Set: CC-PVDZ
    Blend: CC-PVDZ
    Number of shells: 114
    Number of basis function: 234
    Number of Cartesian functions: 245
    Spherical Harmonics?: true
    Max angular momentum: 2

  ==> Pre-Iterations <==

   -------------------------------------------------------
    Irrep   Nso     Nmo     Nalpha   Nbeta   Ndocc  Nsocc
   -------------------------------------------------------
     A        234     234       0       0       0       0
   -------------------------------------------------------
    Total     234     234      42      42      42       0
   -------------------------------------------------------

  ==> Integral Setup <==

  Using integral reordering PK algorithm.
  Sizing the integral batches needed.
  Building batch lookup table.
   Calculation information:
      Number of atoms:                  27
      Number of AO shells:             114
      Number of primitives:            322
      Number of atomic orbitals:       245
      Number of basis functions:       234

      Integral cutoff                 1.00e-12
      Number of threads:                 1

	Batch   1 pq = [       0,    9405] index = [             0,44231715] size =     44231715
	Batch   2 pq = [    9405,   13301] index = [      44231715,88464951] size =     44233236
	Batch   3 pq = [   13301,   16290] index = [      88464951,132690195] size =     44225244
	Batch   4 pq = [   16290,   18810] index = [     132690195,176917455] size =     44227260
	Batch   5 pq = [   18810,   21030] index = [     176917455,221140965] size =     44223510
	Batch   6 pq = [   21030,   23037] index = [     221140965,265363203] size =     44222238
	Batch   7 pq = [   23037,   24883] index = [     265363203,309594286] size =     44231083
	Batch   8 pq = [   24883,   26601] index = [     309594286,353819901] size =     44225615
	Batch   9 pq = [   26601,   27495] index = [     353819901,378001260] size =     24181359
  Task number: 35
  Buffer size: 11059200
  Buffer per thread: 2
  We computed 20016381 shell quartets total.
  Whereas there are 21487290 unique shell quartets.

  ==> DiskJK: Disk-Based J/K Matrices <==

    J tasked:                  Yes
    K tasked:                  Yes
    wK tasked:                  No
    Memory [MiB]:              375
    Schwarz Cutoff:          1E-12

    OpenMP threads:              1

  Minimum eigenvalue in the overlap matrix is 3.1366727898E-04.
  Using Symmetric Orthogonalization.

  SCF Guess: Superposition of Atomic Densities via on-the-fly atomic UHF.

  ==> Iterations <==

                        Total Energy        Delta E     RMS |[F,P]|

   @RHF iter SAD:  -461.71062522478235   -4.61711e+02   0.00000e+00
   @RHF iter   1:  -462.60766446034086   -8.97039e-01   2.79367e-03 DIIS
   @RHF iter   2:  -462.84779322972406   -2.40129e-01   1.17028e-03 DIIS
   @RHF iter   3:  -462.88578536065592   -3.79921e-02   2.68229e-04 DIIS
   @RHF iter   4:  -462.88902480984979   -3.23945e-03   1.09981e-04 DIIS
   @RHF iter   5:  -462.88940902396143   -3.84214e-04   1.93639e-05 DIIS
   @RHF iter   6:  -462.88942833005615   -1.93061e-05   5.17835e-06 DIIS
   @RHF iter   7:  -462.88942966815165   -1.33810e-06   2.00118e-06 DIIS
   @RHF iter   8:  -462.88942987162096   -2.03469e-07   6.53095e-07 DIIS
   @RHF iter   9:  -462.88942990151781   -2.98969e-08   2.12628e-07 DIIS
   @RHF iter  10:  -462.88942990510645   -3.58864e-09   9.28806e-08 DIIS
   @RHF iter  11:  -462.88942990605960   -9.53150e-10   4.22104e-08 DIIS
   @RHF iter  12:  -462.88942990630534   -2.45734e-10   2.27944e-08 DIIS
   @RHF iter  13:  -462.88942990637594   -7.05995e-11   7.58526e-09 DIIS
   @RHF iter  14:  -462.88942990638725   -1.13118e-11   1.62048e-09 DIIS
   @RHF iter  15:  -462.88942990638708    1.70530e-13   5.57380e-10 DIIS
   @RHF iter  16:  -462.88942990638731   -2.27374e-13   1.64634e-10 DIIS
   @RHF iter  17:  -462.88942990638793   -6.25278e-13   5.34495e-11 DIIS
  Energy and wave function converged.

  ==> Post-Iterations <==

    Orbital Energies [Eh]
    ---------------------

    Doubly Occupied:

       1A    -20.581799     2A    -11.296316     3A    -11.238132
       4A    -11.237701     5A    -11.233729     6A    -11.232287
       7A    -11.228285     8A    -11.228019     9A    -11.224581
      10A    -11.219728    11A    -11.219151    12A     -1.396820
      13A     -1.151458    14A     -1.057663    15A     -1.019611
      16A     -1.016902    17A     -0.976573    18A     -0.868471
      19A     -0.840908    20A     -0.835164    21A     -0.792684
      22A     -0.730274    23A     -0.663382    24A     -0.647985
      25A     -0.619885    26A     -0.609044    27A     -0.598948
      28A     -0.597801    29A     -0.589185    30A     -0.582342
      31A     -0.556087    32A     -0.550151    33A     -0.512790
      34A     -0.504135    35A     -0.502066    36A     -0.490384
      37A     -0.483599    38A     -0.479318    39A     -0.472322
      40A     -0.462840    41A     -0.338936    42A     -0.300803

    Virtual:

      43A      0.128915    44A      0.154109    45A      0.170579
      46A      0.180781    47A      0.195470    48A      0.207249
      49A      0.216343    50A      0.236919    51A      0.241340
      52A      0.257704    53A      0.259126    54A      0.262653
      55A      0.276243    56A      0.279674    57A      0.298243
      58A      0.311741    59A      0.326512    60A      0.337323
      61A      0.369022    62A      0.383661    63A      0.397789
      64A      0.411494    65A      0.429650    66A      0.467963
      67A      0.485359    68A      0.506804    69A      0.515511
      70A      0.581253    71A      0.598159    72A      0.605093
      73A      0.605544    74A      0.631200    75A      0.648545
      76A      0.657684    77A      0.679923    78A      0.689050
      79A      0.694733    80A      0.705221    81A      0.716449
      82A      0.721498    83A      0.731931    84A      0.742138
      85A      0.758157    86A      0.772210    87A      0.779246
      88A      0.780894    89A      0.826844    90A      0.830975
      91A      0.836626    92A      0.856045    93A      0.864363
      94A      0.872450    95A      0.876603    96A      0.882226
      97A      0.889752    98A      0.892223    99A      0.897515
     100A      0.900659   101A      0.912036   102A      0.921784
     103A      0.926218   104A      0.932934   105A      0.942524
     106A      0.958586   107A      0.965905   108A      0.978927
     109A      0.983057   110A      0.996747   111A      1.025308
     112A      1.040161   113A      1.047084   114A      1.097815
     115A      1.126449   116A      1.130965   117A      1.142199
     118A      1.151098   119A      1.158715   120A      1.174424
     121A      1.197167   122A      1.232173   123A      1.255191
     124A      1.265465   125A      1.272850   126A      1.293085
     127A      1.303255   128A      1.313247   129A      1.338557
     130A      1.345368   131A      1.360592   132A      1.382888
     133A      1.424243   134A      1.457681   135A      1.467097
     136A      1.475870   137A      1.509368   138A      1.517353
     139A      1.561714   140A      1.584485   141A      1.588275
     142A      1.605096   143A      1.630969   144A      1.662180
     145A      1.680990   146A      1.692211   147A      1.719142
     148A      1.741595   149A      1.755204   150A      1.774891
     151A      1.791323   152A      1.802569   153A      1.820562
     154A      1.851688   155A      1.866944   156A      1.873763
     157A      1.876869   158A      1.893174   159A      1.904680
     160A      1.914290   161A      1.920436   162A      1.930486
     163A      1.938603   164A      1.941485   165A      1.944872
     166A      1.946012   167A      1.954097   168A      1.964938
     169A      1.967223   170A      1.985316   171A      1.999943
     172A      2.010299   173A      2.016527   174A      2.028570
     175A      2.050256   176A      2.060736   177A      2.066687
     178A      2.078570   179A      2.085041   180A      2.094514
     181A      2.124247   182A      2.135286   183A      2.138020
     184A      2.168084   185A      2.184666   186A      2.189326
     187A      2.227999   188A      2.247795   189A      2.272886
     190A      2.307240   191A      2.312039   192A      2.323526
     193A      2.330440   194A      2.355235   195A      2.363721
     196A      2.398786   197A      2.439902   198A      2.452610
     199A      2.463175   200A      2.470685   201A      2.496910
     202A      2.507449   203A      2.544750   204A      2.552835
     205A      2.566040   206A      2.580269   207A      2.603831
     208A      2.634683   209A      2.648345   210A      2.746815
     211A      2.760155   212A      2.771313   213A      2.773192
     214A      2.798531   215A      2.819475   216A      2.856558
     217A      2.867263   218A      2.876859   219A      2.894091
     220A      2.931269   221A      2.943558   222A      2.961840
     223A      2.974827   224A      2.996139   225A      3.040378
     226A      3.099008   227A      3.163736   228A      3.265915
     229A      3.287456   230A      3.351465   231A      3.576497
     232A      3.677199   233A      3.972984   234A      4.171265

    Final Occupation by Irrep:
              A
    DOCC [    42 ]

  @RHF Final Energy:  -462.88942990638793

   => Energetics <=

    Nuclear Repulsion Energy =            582.5052243741016582
    One-Electron Energy =               -1782.4127947437680177
    Two-Electron Energy =                 737.0181404632783142
    Total Energy =                       -462.8894299063879316

Computation Completed

Properties will be evaluated at   0.000000,   0.000000,   0.000000 [a0]

Properties computed using the SCF density matrix

  Nuclear Dipole Moment: [e a0]
     X:     3.9579      Y:    20.1737      Z:    -0.5226

  Electronic Dipole Moment: [e a0]
     X:    -3.8686      Y:   -19.7735      Z:     0.8916

  Dipole Moment: [e a0]
     X:     0.0893      Y:     0.4002      Z:     0.3689     Total:     0.5516

  Dipole Moment: [D]
     X:     0.2270      Y:     1.0172      Z:     0.9377     Total:     1.4020

*** tstop() called on ds3 at Tue Apr 28 00:09:48 2020
Module time:
	user time   =     140.95 seconds =       2.35 minutes
	system time =      66.98 seconds =       1.12 minutes
	total time  =        324 seconds =       5.40 minutes
Total time:
	user time   =     140.95 seconds =       2.35 minutes
	system time =      66.98 seconds =       1.12 minutes
	total time  =        324 seconds =       5.40 minutes
                                     G D M A

                                 by Anthony Stone

                           version 2.2.06, 22 June 2011

               Distributed Multipoles from Gaussian wavefunctions

Starting at 0:9:48 on 28 Apr 2020

Using SCF density matrix from file ./SSI/SSI-009VAL-086TYR-1-dimer.test.4808.fchk

                         Distributed Multipole Analysis

Standard DMA

Positions and radii in angstrom
Multipole moments in atomic units, ea_0^k for rank k

C          x =  0.776425  y =  4.105345  z =  1.319277 angstrom
           Maximum rank =  0   Radius =  0.650 angstrom
                   Q00  =  -0.242105

C          x =  1.731425  y =  2.965345  z =  1.708277 angstrom
           Maximum rank =  0   Radius =  0.650 angstrom
                   Q00  =  -0.246155

H          x =  1.242425  y =  5.071345  z =  1.500277 angstrom
           Maximum rank =  0   Radius =  0.325 angstrom
                   Q00  =   0.082068

H          x =  0.537425  y =  4.033345  z =  0.258277 angstrom
           Maximum rank =  0   Radius =  0.325 angstrom
                   Q00  =   0.080734

H          x = -0.151575  y =  4.038345  z =  1.885277 angstrom
           Maximum rank =  0   Radius =  0.325 angstrom
                   Q00  =   0.078347

H          x =  1.239425  y =  2.026345  z =  1.466277 angstrom
           Maximum rank =  0   Radius =  0.325 angstrom
                   Q00  =   0.085024

H          x =  1.953291  y =  2.953965  z =  2.785610 angstrom
           Maximum rank =  0   Radius =  0.325 angstrom
                   Q00  =   0.080803

H          x =  2.658523  y =  2.993505  z =  1.116927 angstrom
           Maximum rank =  0   Radius =  0.325 angstrom
                   Q00  =   0.081994

C          x = -0.184575  y =  1.458345  z = -1.321723 angstrom
           Maximum rank =  0   Radius =  0.650 angstrom
                   Q00  =  -0.065328

C          x = -0.538575  y =  1.563345  z = -2.806723 angstrom
           Maximum rank =  0   Radius =  0.650 angstrom
                   Q00  =  -0.229095

C          x = -0.244575  y =  0.087345  z = -0.680723 angstrom
           Maximum rank =  0   Radius =  0.650 angstrom
                   Q00  =  -0.125712

C          x = -0.499575  y = -0.032655  z =  0.689277 angstrom
           Maximum rank =  0   Radius =  0.650 angstrom
                   Q00  =   0.026051

C          x = -0.049575  y = -1.077655  z = -1.433723 angstrom
           Maximum rank =  0   Radius =  0.650 angstrom
                   Q00  =  -0.080786

C          x = -0.507575  y = -1.272655  z =  1.307277 angstrom
           Maximum rank =  0   Radius =  0.650 angstrom
                   Q00  =  -0.191383

C          x = -0.094575  y = -2.326655  z = -0.816723 angstrom
           Maximum rank =  0   Radius =  0.650 angstrom
                   Q00  =  -0.103319

C          x = -0.309575  y = -2.419655  z =  0.552277 angstrom
           Maximum rank =  0   Radius =  0.650 angstrom
                   Q00  =   0.350961

O          x = -0.325575  y = -3.645655  z =  1.148277 angstrom
           Maximum rank =  0   Radius =  0.650 angstrom
                   Q00  =  -0.671370

H          x =  0.835425  y =  1.823345  z = -1.201723 angstrom
           Maximum rank =  0   Radius =  0.325 angstrom
                   Q00  =   0.072468

H          x = -0.824575  y =  2.134345  z = -0.765723 angstrom
           Maximum rank =  0   Radius =  0.325 angstrom
                   Q00  =   0.061417

H          x =  0.213425  y =  1.025345  z = -3.378723 angstrom
           Maximum rank =  0   Radius =  0.325 angstrom
                   Q00  =   0.083094

H          x = -0.676575  y =  0.853345  z =  1.283277 angstrom
           Maximum rank =  0   Radius =  0.325 angstrom
                   Q00  =   0.070987

H          x =  0.153425  y = -1.031655  z = -2.492723 angstrom
           Maximum rank =  0   Radius =  0.325 angstrom
                   Q00  =   0.065707

H          x = -0.681575  y = -1.346655  z =  2.372277 angstrom
           Maximum rank =  0   Radius =  0.325 angstrom
                   Q00  =   0.072049

H          x =  0.022425  y = -3.221655  z = -1.394723 angstrom
           Maximum rank =  0   Radius =  0.325 angstrom
                   Q00  =   0.080436

H          x = -0.210575  y = -3.567655  z =  2.109277 angstrom
           Maximum rank =  0   Radius =  0.325 angstrom
                   Q00  =   0.407663

H          x = -0.558232  y =  2.623325  z = -3.100073 angstrom
           Maximum rank =  0   Radius =  0.325 angstrom
                   Q00  =   0.092693

H          x = -1.529143  y =  1.129065  z = -3.007163 angstrom
           Maximum rank =  0   Radius =  0.325 angstrom
                   Q00  =   0.082755

Total multipoles referred to origin at
           x =   0.000000,  y =    0.000000,  z =    0.000000 angstrom
                   Q00  =  -0.000000

Finished at 0:9:48 on 28 Apr 2020

  DMA results are available in the Python driver through the
	  variable('DMA DISTRIBUTED MULTIPOLES')
  and
	  variable('DMA TOTAL MULTIPOLES')
  commands.

    Psi4 stopped on: Tuesday, 28 April 2020 12:09AM
    Psi4 wall time for execution: 0:05:24.08

*** Psi4 exiting successfully. Buy a developer a beer!
