                               Psi4 1.3.2 release

  ==> Input File <==

--------------------------------------------------------------------------
import numpy as np
set {scf_type pk
basis cc-pvdz
d_convergence 10
gdma_switch   0
gdma_limit    0
gdma_origin   [ 0.0,  0.0,  0.0 ]
}
molecule test {
    units Angstrom
    0 1
    --
    0 1
    C                1.529413767227229     1.012664566949185     1.206695052990372
    C                0.383413767227229     1.103664566949185     2.207695052990372
    H                2.392413767227229     1.564664566949185     1.572695052990372
    H                1.803413767227229    -0.031335433050815     1.055695052990372
    H                1.223413767227229     1.427664566949185     0.248695052990372
    H               -0.496586232772771     0.622664566949185     1.782695052990372
    H                0.179039767227229     2.157804566949185     2.446485052990372
    H                0.630067767227229     0.552664566949185     3.127235052990372
    C               -0.283586232772771    -0.968335433050815    -1.366304947009627
    C               -1.628586232772771    -1.143335433050815    -2.050304947009627
    H               -0.063586232772771     0.084664566949185    -1.212304947009628
    H               -0.296586232772771    -1.465335433050815    -0.396304947009628
    H                0.502413767227229    -1.409335433050815    -1.979304947009628
    H               -2.401586232772770    -0.748335433050815    -1.390304947009627
    H               -1.652150232772771    -0.599935433050815    -3.006424947009628
    H               -1.828067232772771    -2.211315433050815    -2.222424947009627

}
e, wfn = energy('scf', return_wfn=True)
gdma(wfn)
dmavals = variable('DMA DISTRIBUTED MULTIPOLES')
charges = np.array(dmavals)
print(charges)
np.save('SSI-009LEU-013VAL-1-dimer.npy', np.array(charges))--------------------------------------------------------------------------

*** tstart() called on ds3
*** at Mon Apr 27 16:39:55 2020

   => Loading Basis Set <=

    Name: CC-PVDZ
    Role: ORBITAL
    Keyword: BASIS
    atoms 1-2, 9-10  entry C          line   138 file /theoryfs2/ds/metcalf/miniconda2/envs/tf2gpu/share/psi4/basis/cc-pvdz.gbs
    atoms 3-8, 11-16 entry H          line    22 file /theoryfs2/ds/metcalf/miniconda2/envs/tf2gpu/share/psi4/basis/cc-pvdz.gbs

         ---------------------------------------------------------
                                   SCF
               by Justin Turney, Rob Parrish, Andy Simmonett
                          and Daniel G. A. Smith
                              RHF Reference
                        1 Threads,    500 MiB Core
         ---------------------------------------------------------

  ==> Geometry <==

    Molecular point group: c1
    Full point group: C1

    Geometry (in Angstrom), charge = 0, multiplicity = 1:

       Center              X                  Y                   Z               Mass
    ------------   -----------------  -----------------  -----------------  -----------------
         C            1.529413767227     1.012664566949     1.206695052990    12.000000000000
         C            0.383413767227     1.103664566949     2.207695052990    12.000000000000
         H            2.392413767227     1.564664566949     1.572695052990     1.007825032230
         H            1.803413767227    -0.031335433051     1.055695052990     1.007825032230
         H            1.223413767227     1.427664566949     0.248695052990     1.007825032230
         H           -0.496586232773     0.622664566949     1.782695052990     1.007825032230
         H            0.179039767227     2.157804566949     2.446485052990     1.007825032230
         H            0.630067767227     0.552664566949     3.127235052990     1.007825032230
         C           -0.283586232773    -0.968335433051    -1.366304947010    12.000000000000
         C           -1.628586232773    -1.143335433051    -2.050304947010    12.000000000000
         H           -0.063586232773     0.084664566949    -1.212304947010     1.007825032230
         H           -0.296586232773    -1.465335433051    -0.396304947010     1.007825032230
         H            0.502413767227    -1.409335433051    -1.979304947010     1.007825032230
         H           -2.401586232773    -0.748335433051    -1.390304947010     1.007825032230
         H           -1.652150232773    -0.599935433051    -3.006424947010     1.007825032230
         H           -1.828067232773    -2.211315433051    -2.222424947010     1.007825032230

  Running in c1 symmetry.

  Rotational constants: A =      0.44921  B =      0.05213  C =      0.04881 [cm^-1]
  Rotational constants: A =  13466.90740  B =   1562.82207  C =   1463.24480 [MHz]
  Nuclear repulsion =  123.239229665739970

  Charge       = 0
  Multiplicity = 1
  Electrons    = 36
  Nalpha       = 18
  Nbeta        = 18

  ==> Algorithm <==

  SCF Algorithm Type is PK.
  DIIS enabled.
  MOM disabled.
  Fractional occupation disabled.
  Guess Type is SAD.
  Energy threshold   = 1.00e-06
  Density threshold  = 1.00e-10
  Integral threshold = 0.00e+00

  ==> Primary Basis <==

  Basis Set: CC-PVDZ
    Blend: CC-PVDZ
    Number of shells: 60
    Number of basis function: 116
    Number of Cartesian functions: 120
    Spherical Harmonics?: true
    Max angular momentum: 2

  ==> Pre-Iterations <==

   -------------------------------------------------------
    Irrep   Nso     Nmo     Nalpha   Nbeta   Ndocc  Nsocc
   -------------------------------------------------------
     A        116     116       0       0       0       0
   -------------------------------------------------------
    Total     116     116      18      18      18       0
   -------------------------------------------------------

  ==> Integral Setup <==

  Using integral reordering PK algorithm.
  Sizing the integral batches needed.
  Building batch lookup table.
   Calculation information:
      Number of atoms:                  16
      Number of AO shells:              60
      Number of primitives:            148
      Number of atomic orbitals:       120
      Number of basis functions:       116

      Integral cutoff                 1.00e-12
      Number of threads:                 1

	Batch   1 pq = [       0,    6786] index = [             0,23028291] size =     23028291
  Task number: 3
  Buffer size: 11059200
  Buffer per thread: 2
  We computed 1454770 shell quartets total.
  Whereas there are 1675365 unique shell quartets.

  ==> DiskJK: Disk-Based J/K Matrices <==

    J tasked:                  Yes
    K tasked:                  Yes
    wK tasked:                  No
    Memory [MiB]:              375
    Schwarz Cutoff:          1E-12

    OpenMP threads:              1

  Minimum eigenvalue in the overlap matrix is 7.0555372913E-03.
  Using Symmetric Orthogonalization.

  SCF Guess: Superposition of Atomic Densities via on-the-fly atomic UHF.

  ==> Iterations <==

                        Total Energy        Delta E     RMS |[F,P]|

   @RHF iter SAD:  -157.37545405241588   -1.57375e+02   0.00000e+00
   @RHF iter   1:  -158.30612509932683   -9.30671e-01   4.23848e-03 DIIS
   @RHF iter   2:  -158.44080638666989   -1.34681e-01   1.81193e-03 DIIS
   @RHF iter   3:  -158.46458691999803   -2.37805e-02   3.50943e-04 DIIS
   @RHF iter   4:  -158.46642818488613   -1.84126e-03   3.86190e-05 DIIS
   @RHF iter   5:  -158.46645153387578   -2.33490e-05   6.42957e-06 DIIS
   @RHF iter   6:  -158.46645214938474   -6.15509e-07   1.00021e-06 DIIS
   @RHF iter   7:  -158.46645215949411   -1.01094e-08   3.03286e-07 DIIS
   @RHF iter   8:  -158.46645216028901   -7.94898e-10   3.92963e-08 DIIS
   @RHF iter   9:  -158.46645216031362   -2.46132e-11   7.30815e-09 DIIS
   @RHF iter  10:  -158.46645216031521   -1.59162e-12   1.98172e-09 DIIS
   @RHF iter  11:  -158.46645216031425    9.66338e-13   5.54939e-10 DIIS
   @RHF iter  12:  -158.46645216031473   -4.83169e-13   1.42536e-10 DIIS
   @RHF iter  13:  -158.46645216031439    3.41061e-13   2.30795e-11 DIIS
  Energy and wave function converged.

  ==> Post-Iterations <==

    Orbital Energies [Eh]
    ---------------------

    Doubly Occupied:

       1A    -11.218835     2A    -11.218649     3A    -11.215690
       4A    -11.215296     5A     -1.021778     6A     -1.018469
       7A     -0.838100     8A     -0.834140     9A     -0.604886
      10A     -0.601016    11A     -0.598046    12A     -0.592601
      13A     -0.504585    14A     -0.499085    15A     -0.488463
      16A     -0.487305    17A     -0.484570    18A     -0.478968

    Virtual:

      19A      0.169054    20A      0.199176    21A      0.226697
      22A      0.232580    23A      0.241852    24A      0.258140
      25A      0.261236    26A      0.273366    27A      0.276831
      28A      0.296544    29A      0.316436    30A      0.353940
      31A      0.397648    32A      0.404064    33A      0.568316
      34A      0.589425    35A      0.595969    36A      0.600388
      37A      0.612175    38A      0.628504    39A      0.681845
      40A      0.684259    41A      0.695250    42A      0.783811
      43A      0.846941    44A      0.863663    45A      0.885929
      46A      0.887896    47A      0.890789    48A      0.894376
      49A      0.902240    50A      0.910134    51A      0.919309
      52A      0.923407    53A      0.939720    54A      0.964254
      55A      0.977057    56A      0.991586    57A      1.126979
      58A      1.128659    59A      1.129029    60A      1.148021
      61A      1.220113    62A      1.263193    63A      1.471249
      64A      1.476719    65A      1.481183    66A      1.497120
      67A      1.564101    68A      1.584027    69A      1.679401
      70A      1.683031    71A      1.693532    72A      1.706858
      73A      1.854976    74A      1.860762    75A      1.861446
      76A      1.881138    77A      1.902126    78A      1.917456
      79A      1.940640    80A      1.942905    81A      1.944773
      82A      1.947918    83A      1.952956    84A      1.955763
      85A      1.964923    86A      1.969397    87A      1.981045
      88A      2.037682    89A      2.094610    90A      2.112614
      91A      2.113390    92A      2.133534    93A      2.294480
      94A      2.302740    95A      2.318228    96A      2.322445
      97A      2.449584    98A      2.453733    99A      2.464071
     100A      2.475217   101A      2.559968   102A      2.566007
     103A      2.575923   104A      2.583948   105A      2.758945
     106A      2.762231   107A      2.792556   108A      2.802177
     109A      2.846838   110A      2.850749   111A      2.860292
     112A      2.867783   113A      2.946030   114A      2.954593
     115A      2.967531   116A      2.974669

    Final Occupation by Irrep:
              A
    DOCC [    18 ]

  @RHF Final Energy:  -158.46645216031439

   => Energetics <=

    Nuclear Repulsion Energy =            123.2392296657399697
    One-Electron Energy =                -455.5703981159931004
    Two-Electron Energy =                 173.8647162899387411
    Total Energy =                       -158.4664521603143896

Computation Completed

Properties will be evaluated at   0.000000,   0.000000,   0.000000 [a0]

Properties computed using the SCF density matrix

  Nuclear Dipole Moment: [e a0]
     X:    -0.0073      Y:    -0.0520      Z:     0.0248

  Electronic Dipole Moment: [e a0]
     X:     0.0172      Y:     0.0469      Z:    -0.0273

  Dipole Moment: [e a0]
     X:     0.0099      Y:    -0.0051      Z:    -0.0025     Total:     0.0114

  Dipole Moment: [D]
     X:     0.0252      Y:    -0.0131      Z:    -0.0063     Total:     0.0291

*** tstop() called on ds3 at Mon Apr 27 16:40:07 2020
Module time:
	user time   =       8.43 seconds =       0.14 minutes
	system time =       3.94 seconds =       0.07 minutes
	total time  =         12 seconds =       0.20 minutes
Total time:
	user time   =       8.43 seconds =       0.14 minutes
	system time =       3.94 seconds =       0.07 minutes
	total time  =         12 seconds =       0.20 minutes
                                     G D M A

                                 by Anthony Stone

                           version 2.2.06, 22 June 2011

               Distributed Multipoles from Gaussian wavefunctions

Starting at 16:40:7 on 27 Apr 2020

Using SCF density matrix from file ./SSI/SSI-009LEU-013VAL-1-dimer.test.27628.fchk

                         Distributed Multipole Analysis

Standard DMA

Positions and radii in angstrom
Multipole moments in atomic units, ea_0^k for rank k

C          x =  1.529414  y =  1.012665  z =  1.206695 angstrom
           Maximum rank =  0   Radius =  0.650 angstrom
                   Q00  =  -0.224065

C          x =  0.383414  y =  1.103665  z =  2.207695 angstrom
           Maximum rank =  0   Radius =  0.650 angstrom
                   Q00  =  -0.245407

H          x =  2.392414  y =  1.564665  z =  1.572695 angstrom
           Maximum rank =  0   Radius =  0.325 angstrom
                   Q00  =   0.078406

H          x =  1.803414  y = -0.031335  z =  1.055695 angstrom
           Maximum rank =  0   Radius =  0.325 angstrom
                   Q00  =   0.079795

H          x =  1.223414  y =  1.427665  z =  0.248695 angstrom
           Maximum rank =  0   Radius =  0.325 angstrom
                   Q00  =   0.077842

H          x = -0.496586  y =  0.622665  z =  1.782695 angstrom
           Maximum rank =  0   Radius =  0.325 angstrom
                   Q00  =   0.078000

H          x =  0.179040  y =  2.157805  z =  2.446485 angstrom
           Maximum rank =  0   Radius =  0.325 angstrom
                   Q00  =   0.078586

H          x =  0.630068  y =  0.552665  z =  3.127235 angstrom
           Maximum rank =  0   Radius =  0.325 angstrom
                   Q00  =   0.077502

C          x = -0.283586  y = -0.968335  z = -1.366305 angstrom
           Maximum rank =  0   Radius =  0.650 angstrom
                   Q00  =  -0.247460

C          x = -1.628586  y = -1.143335  z = -2.050305 angstrom
           Maximum rank =  0   Radius =  0.650 angstrom
                   Q00  =  -0.223088

H          x = -0.063586  y =  0.084665  z = -1.212305 angstrom
           Maximum rank =  0   Radius =  0.325 angstrom
                   Q00  =   0.081670

H          x = -0.296586  y = -1.465335  z = -0.396305 angstrom
           Maximum rank =  0   Radius =  0.325 angstrom
                   Q00  =   0.076638

H          x =  0.502414  y = -1.409335  z = -1.979305 angstrom
           Maximum rank =  0   Radius =  0.325 angstrom
                   Q00  =   0.077784

H          x = -2.401586  y = -0.748335  z = -1.390305 angstrom
           Maximum rank =  0   Radius =  0.325 angstrom
                   Q00  =   0.076582

H          x = -1.652150  y = -0.599935  z = -3.006425 angstrom
           Maximum rank =  0   Radius =  0.325 angstrom
                   Q00  =   0.079047

H          x = -1.828067  y = -2.211315  z = -2.222425 angstrom
           Maximum rank =  0   Radius =  0.325 angstrom
                   Q00  =   0.078168

Total multipoles referred to origin at
           x =   0.000000,  y =    0.000000,  z =    0.000000 angstrom
                   Q00  =  -0.000000

Finished at 16:40:7 on 27 Apr 2020

  DMA results are available in the Python driver through the
	  variable('DMA DISTRIBUTED MULTIPOLES')
  and
	  variable('DMA TOTAL MULTIPOLES')
  commands.

    Psi4 stopped on: Monday, 27 April 2020 04:40PM
    Psi4 wall time for execution: 0:00:12.01

*** Psi4 exiting successfully. Buy a developer a beer!
