                               Psi4 1.3.2 release

  ==> Input File <==

--------------------------------------------------------------------------
import numpy as np
set {scf_type pk
basis cc-pvdz
d_convergence 10
gdma_switch   0
gdma_limit    0
gdma_origin   [ 0.0,  0.0,  0.0 ]
}
molecule test {
    units Angstrom
    0 1
    --
    0 1
    C               -0.771670952821937    -0.371441468321525    -0.719240014307029
    C               -1.696670952821937     0.195558531678475    -1.813240014307029
    C               -0.318670952821937    -1.787441468321525    -0.997240014307029
    O                0.864329047178063    -2.113441468321525    -0.875240014307029
    N               -1.263670952821937    -2.633441468321525    -1.356240014307029
    H                0.114329047178063     0.256558531678475    -0.620240014307029
    H               -1.323670952821937    -0.365441468321525     0.222759985692971
    H               -2.599670952821937    -0.414441468321525    -1.863240014307029
    H               -1.018670952821937    -3.588441468321525    -1.561240014307029
    H               -2.221670952821936    -2.323441468321525    -1.428240014307029
    H               -1.187027952821937     0.178918531678475    -2.787910014307029
    H               -2.069848952821937     1.193368531678475    -1.539190014307029
    C                0.906329047178063     2.176558531678475     1.293759985692971
    C                1.351329047178063     1.088558531678475     2.341759985692971
    C                0.966329047178063     3.482558531678475     2.104759985692971
    H               -0.102670952821937     2.013558531678475     0.916759985692971
    H                1.594329047178063     2.237558531678475     0.448759985692971
    H                0.548329047178063     0.856558531678475     3.048759985692971
    H                1.688329047178063     0.171558531678475     1.861759985692971
    H                1.352329047178063     4.309558531678475     1.502759985692971
    H                2.173489047178063     1.621398531678475     2.841889985692971
    H                1.716549047178063     3.264338531678475     2.879059985692971
    H               -0.027071952821937     3.753748531678475     2.491559985692971

}
e, wfn = energy('scf', return_wfn=True)
gdma(wfn)
dmavals = variable('DMA DISTRIBUTED MULTIPOLES')
charges = np.array(dmavals)
print(charges)
np.save('SSI-047ASN-276PRO-1-dimer.npy', np.array(charges))--------------------------------------------------------------------------

*** tstart() called on ds3
*** at Mon Apr 27 07:49:18 2020

   => Loading Basis Set <=

    Name: CC-PVDZ
    Role: ORBITAL
    Keyword: BASIS
    atoms 1-3, 13-15  entry C          line   138 file /theoryfs2/ds/metcalf/miniconda2/envs/tf2gpu/share/psi4/basis/cc-pvdz.gbs
    atoms 4           entry O          line   198 file /theoryfs2/ds/metcalf/miniconda2/envs/tf2gpu/share/psi4/basis/cc-pvdz.gbs
    atoms 5           entry N          line   168 file /theoryfs2/ds/metcalf/miniconda2/envs/tf2gpu/share/psi4/basis/cc-pvdz.gbs
    atoms 6-12, 16-23 entry H          line    22 file /theoryfs2/ds/metcalf/miniconda2/envs/tf2gpu/share/psi4/basis/cc-pvdz.gbs

         ---------------------------------------------------------
                                   SCF
               by Justin Turney, Rob Parrish, Andy Simmonett
                          and Daniel G. A. Smith
                              RHF Reference
                        1 Threads,    500 MiB Core
         ---------------------------------------------------------

  ==> Geometry <==

    Molecular point group: c1
    Full point group: C1

    Geometry (in Angstrom), charge = 0, multiplicity = 1:

       Center              X                  Y                   Z               Mass
    ------------   -----------------  -----------------  -----------------  -----------------
         C           -0.771670952822    -0.371441468322    -0.719240014307    12.000000000000
         C           -1.696670952822     0.195558531678    -1.813240014307    12.000000000000
         C           -0.318670952822    -1.787441468322    -0.997240014307    12.000000000000
         O            0.864329047178    -2.113441468322    -0.875240014307    15.994914619570
         N           -1.263670952822    -2.633441468322    -1.356240014307    14.003074004430
         H            0.114329047178     0.256558531678    -0.620240014307     1.007825032230
         H           -1.323670952822    -0.365441468322     0.222759985693     1.007825032230
         H           -2.599670952822    -0.414441468322    -1.863240014307     1.007825032230
         H           -1.018670952822    -3.588441468322    -1.561240014307     1.007825032230
         H           -2.221670952822    -2.323441468322    -1.428240014307     1.007825032230
         H           -1.187027952822     0.178918531678    -2.787910014307     1.007825032230
         H           -2.069848952822     1.193368531678    -1.539190014307     1.007825032230
         C            0.906329047178     2.176558531678     1.293759985693    12.000000000000
         C            1.351329047178     1.088558531678     2.341759985693    12.000000000000
         C            0.966329047178     3.482558531678     2.104759985693    12.000000000000
         H           -0.102670952822     2.013558531678     0.916759985693     1.007825032230
         H            1.594329047178     2.237558531678     0.448759985693     1.007825032230
         H            0.548329047178     0.856558531678     3.048759985693     1.007825032230
         H            1.688329047178     0.171558531678     1.861759985693     1.007825032230
         H            1.352329047178     4.309558531678     1.502759985693     1.007825032230
         H            2.173489047178     1.621398531678     2.841889985693     1.007825032230
         H            1.716549047178     3.264338531678     2.879059985693     1.007825032230
         H           -0.027071952822     3.753748531678     2.491559985693     1.007825032230

  Running in c1 symmetry.

  Rotational constants: A =      0.09872  B =      0.02094  C =      0.01824 [cm^-1]
  Rotational constants: A =   2959.66300  B =    627.63905  C =    546.67161 [MHz]
  Nuclear repulsion =  370.230338412803121

  Charge       = 0
  Multiplicity = 1
  Electrons    = 66
  Nalpha       = 33
  Nbeta        = 33

  ==> Algorithm <==

  SCF Algorithm Type is PK.
  DIIS enabled.
  MOM disabled.
  Fractional occupation disabled.
  Guess Type is SAD.
  Energy threshold   = 1.00e-06
  Density threshold  = 1.00e-10
  Integral threshold = 0.00e+00

  ==> Primary Basis <==

  Basis Set: CC-PVDZ
    Blend: CC-PVDZ
    Number of shells: 93
    Number of basis function: 187
    Number of Cartesian functions: 195
    Spherical Harmonics?: true
    Max angular momentum: 2

  ==> Pre-Iterations <==

   -------------------------------------------------------
    Irrep   Nso     Nmo     Nalpha   Nbeta   Ndocc  Nsocc
   -------------------------------------------------------
     A        187     187       0       0       0       0
   -------------------------------------------------------
    Total     187     187      33      33      33       0
   -------------------------------------------------------

  ==> Integral Setup <==

  Using integral reordering PK algorithm.
  Sizing the integral batches needed.
  Building batch lookup table.
   Calculation information:
      Number of atoms:                  23
      Number of AO shells:              93
      Number of primitives:            251
      Number of atomic orbitals:       195
      Number of basis functions:       187

      Integral cutoff                 1.00e-12
      Number of threads:                 1

	Batch   1 pq = [       0,    9405] index = [             0,44231715] size =     44231715
	Batch   2 pq = [    9405,   13301] index = [      44231715,88464951] size =     44233236
	Batch   3 pq = [   13301,   16290] index = [      88464951,132690195] size =     44225244
	Batch   4 pq = [   16290,   17578] index = [     132690195,154501831] size =     21811636
  Task number: 14
  Buffer size: 11059200
  Buffer per thread: 2
  We computed 7520494 shell quartets total.
  Whereas there are 9555006 unique shell quartets.

  ==> DiskJK: Disk-Based J/K Matrices <==

    J tasked:                  Yes
    K tasked:                  Yes
    wK tasked:                  No
    Memory [MiB]:              375
    Schwarz Cutoff:          1E-12

    OpenMP threads:              1

  Minimum eigenvalue in the overlap matrix is 3.3726742547E-03.
  Using Symmetric Orthogonalization.

  SCF Guess: Superposition of Atomic Densities via on-the-fly atomic UHF.

  ==> Iterations <==

                        Total Energy        Delta E     RMS |[F,P]|

   @RHF iter SAD:  -363.98611737782517   -3.63986e+02   0.00000e+00
   @RHF iter   1:  -364.99600771613427   -1.00989e+00   3.71881e-03 DIIS
   @RHF iter   2:  -365.21626297967589   -2.20255e-01   2.00148e-03 DIIS
   @RHF iter   3:  -365.27228193941551   -5.60190e-02   4.41479e-04 DIIS
   @RHF iter   4:  -365.27636353841660   -4.08160e-03   1.87403e-04 DIIS
   @RHF iter   5:  -365.27707707270196   -7.13534e-04   2.73480e-05 DIIS
   @RHF iter   6:  -365.27711077908884   -3.37064e-05   1.12721e-05 DIIS
   @RHF iter   7:  -365.27711570162819   -4.92254e-06   4.60820e-06 DIIS
   @RHF iter   8:  -365.27711676081123   -1.05918e-06   1.72639e-06 DIIS
   @RHF iter   9:  -365.27711691628014   -1.55469e-07   4.10675e-07 DIIS
   @RHF iter  10:  -365.27711692340097   -7.12083e-09   1.32687e-07 DIIS
   @RHF iter  11:  -365.27711692406405   -6.63078e-10   3.81548e-08 DIIS
   @RHF iter  12:  -365.27711692411907   -5.50244e-11   9.44169e-09 DIIS
   @RHF iter  13:  -365.27711692412453   -5.45697e-12   2.36764e-09 DIIS
   @RHF iter  14:  -365.27711692412464   -1.13687e-13   8.05597e-10 DIIS
   @RHF iter  15:  -365.27711692412402    6.25278e-13   2.77505e-10 DIIS
   @RHF iter  16:  -365.27711692412362    3.97904e-13   1.14317e-10 DIIS
   @RHF iter  17:  -365.27711692412254    1.08002e-12   5.75964e-11 DIIS
  Energy and wave function converged.

  ==> Post-Iterations <==

    Orbital Energies [Eh]
    ---------------------

    Doubly Occupied:

       1A    -20.501872     2A    -15.587842     3A    -11.341983
       4A    -11.243470     5A    -11.238818     6A    -11.220185
       7A    -11.214526     8A    -11.213478     9A     -1.363376
      10A     -1.220020    11A     -1.053087    12A     -1.050029
      13A     -0.907561    14A     -0.894526    15A     -0.801401
      16A     -0.792142    17A     -0.733967    18A     -0.657809
      19A     -0.630201    20A     -0.619434    21A     -0.603325
      22A     -0.591073    23A     -0.566114    24A     -0.539786
      25A     -0.534687    26A     -0.513498    27A     -0.504321
      28A     -0.498104    29A     -0.476259    30A     -0.470002
      31A     -0.452516    32A     -0.404243    33A     -0.401986

    Virtual:

      34A      0.155191    35A      0.182038    36A      0.196561
      37A      0.214378    38A      0.219753    39A      0.222776
      40A      0.227417    41A      0.242436    42A      0.252997
      43A      0.268097    44A      0.277032    45A      0.284886
      46A      0.305940    47A      0.311488    48A      0.324269
      49A      0.336001    50A      0.382390    51A      0.393744
      52A      0.419144    53A      0.449546    54A      0.477440
      55A      0.552021    56A      0.568735    57A      0.575016
      58A      0.600024    59A      0.633947    60A      0.642983
      61A      0.653220    62A      0.668847    63A      0.679826
      64A      0.693721    65A      0.746570    66A      0.758645
      67A      0.776839    68A      0.788491    69A      0.809633
      70A      0.834125    71A      0.840296    72A      0.842797
      73A      0.863304    74A      0.876492    75A      0.877030
      76A      0.883840    77A      0.886762    78A      0.897243
      79A      0.906119    80A      0.909809    81A      0.920482
      82A      0.923181    83A      0.933261    84A      0.939218
      85A      0.966194    86A      0.976615    87A      0.996765
      88A      0.999612    89A      1.024902    90A      1.056321
      91A      1.087624    92A      1.104024    93A      1.119534
      94A      1.123124    95A      1.130934    96A      1.205766
      97A      1.310214    98A      1.320082    99A      1.352681
     100A      1.372183   101A      1.402947   102A      1.419904
     103A      1.435355   104A      1.442793   105A      1.457746
     106A      1.483843   107A      1.491862   108A      1.561767
     109A      1.588428   110A      1.621420   111A      1.636924
     112A      1.645897   113A      1.683134   114A      1.730023
     115A      1.742179   116A      1.745194   117A      1.766967
     118A      1.796025   119A      1.821604   120A      1.849812
     121A      1.861217   122A      1.873892   123A      1.880204
     124A      1.889033   125A      1.895475   126A      1.907465
     127A      1.927019   128A      1.932488   129A      1.946840
     130A      1.949763   131A      1.952536   132A      1.963331
     133A      1.974409   134A      1.992181   135A      1.995411
     136A      2.002209   137A      2.011826   138A      2.043411
     139A      2.064198   140A      2.073012   141A      2.094129
     142A      2.115481   143A      2.158321   144A      2.174390
     145A      2.204807   146A      2.227931   147A      2.241993
     148A      2.288231   149A      2.302291   150A      2.313377
     151A      2.331347   152A      2.369698   153A      2.410008
     154A      2.421748   155A      2.433138   156A      2.493786
     157A      2.523181   158A      2.530310   159A      2.537428
     160A      2.547010   161A      2.578730   162A      2.603341
     163A      2.628389   164A      2.635154   165A      2.689164
     166A      2.737461   167A      2.747122   168A      2.768575
     169A      2.772912   170A      2.793295   171A      2.821552
     172A      2.836475   173A      2.851682   174A      2.859954
     175A      2.884920   176A      2.909965   177A      2.932736
     178A      2.978995   179A      3.026413   180A      3.054398
     181A      3.108555   182A      3.143927   183A      3.306011
     184A      3.515899   185A      3.550827   186A      3.861720
     187A      3.903958

    Final Occupation by Irrep:
              A
    DOCC [    33 ]

  @RHF Final Energy:  -365.27711692412254

   => Energetics <=

    Nuclear Repulsion Energy =            370.2303384128031212
    One-Electron Energy =               -1229.3316300722401593
    Two-Electron Energy =                 493.8241747353145001
    Total Energy =                       -365.2771169241225380

Computation Completed

Properties will be evaluated at   0.000000,   0.000000,   0.000000 [a0]

Properties computed using the SCF density matrix

  Nuclear Dipole Moment: [e a0]
     X:    -1.2696      Y:    12.3396      Z:     6.0127

  Electronic Dipole Moment: [e a0]
     X:    -0.3996      Y:   -12.1979      Z:    -6.3179

  Dipole Moment: [e a0]
     X:    -1.6692      Y:     0.1417      Z:    -0.3052     Total:     1.7028

  Dipole Moment: [D]
     X:    -4.2427      Y:     0.3602      Z:    -0.7758     Total:     4.3281

*** tstop() called on ds3 at Mon Apr 27 07:50:28 2020
Module time:
	user time   =      49.46 seconds =       0.82 minutes
	system time =      22.59 seconds =       0.38 minutes
	total time  =         70 seconds =       1.17 minutes
Total time:
	user time   =      49.46 seconds =       0.82 minutes
	system time =      22.59 seconds =       0.38 minutes
	total time  =         70 seconds =       1.17 minutes
                                     G D M A

                                 by Anthony Stone

                           version 2.2.06, 22 June 2011

               Distributed Multipoles from Gaussian wavefunctions

Starting at 7:50:28 on 27 Apr 2020

Using SCF density matrix from file ./SSI/SSI-047ASN-276PRO-1-dimer.test.32714.fchk

                         Distributed Multipole Analysis

Standard DMA

Positions and radii in angstrom
Multipole moments in atomic units, ea_0^k for rank k

C          x = -0.771671  y = -0.371441  z = -0.719240 angstrom
           Maximum rank =  0   Radius =  0.650 angstrom
                   Q00  =  -0.109880

C          x = -1.696671  y =  0.195559  z = -1.813240 angstrom
           Maximum rank =  0   Radius =  0.650 angstrom
                   Q00  =  -0.240385

C          x = -0.318671  y = -1.787441  z = -0.997240 angstrom
           Maximum rank =  0   Radius =  0.650 angstrom
                   Q00  =   0.842109

O          x =  0.864329  y = -2.113441  z = -0.875240 angstrom
           Maximum rank =  0   Radius =  0.650 angstrom
                   Q00  =  -0.808106

N          x = -1.263671  y = -2.633441  z = -1.356240 angstrom
           Maximum rank =  0   Radius =  0.650 angstrom
                   Q00  =  -0.538561

H          x =  0.114329  y =  0.256559  z = -0.620240 angstrom
           Maximum rank =  0   Radius =  0.325 angstrom
                   Q00  =   0.095948

H          x = -1.323671  y = -0.365441  z =  0.222760 angstrom
           Maximum rank =  0   Radius =  0.325 angstrom
                   Q00  =   0.080442

H          x = -2.599671  y = -0.414441  z = -1.863240 angstrom
           Maximum rank =  0   Radius =  0.325 angstrom
                   Q00  =   0.058068

H          x = -1.018671  y = -3.588441  z = -1.561240 angstrom
           Maximum rank =  0   Radius =  0.325 angstrom
                   Q00  =   0.219586

H          x = -2.221671  y = -2.323441  z = -1.428240 angstrom
           Maximum rank =  0   Radius =  0.325 angstrom
                   Q00  =   0.204010

H          x = -1.187028  y =  0.178919  z = -2.787910 angstrom
           Maximum rank =  0   Radius =  0.325 angstrom
                   Q00  =   0.095736

H          x = -2.069849  y =  1.193369  z = -1.539190 angstrom
           Maximum rank =  0   Radius =  0.325 angstrom
                   Q00  =   0.099325

C          x =  0.906329  y =  2.176559  z =  1.293760 angstrom
           Maximum rank =  0   Radius =  0.650 angstrom
                   Q00  =  -0.120547

C          x =  1.351329  y =  1.088559  z =  2.341760 angstrom
           Maximum rank =  0   Radius =  0.650 angstrom
                   Q00  =  -0.237734

C          x =  0.966329  y =  3.482559  z =  2.104760 angstrom
           Maximum rank =  0   Radius =  0.650 angstrom
                   Q00  =  -0.212656

H          x = -0.102671  y =  2.013559  z =  0.916760 angstrom
           Maximum rank =  0   Radius =  0.325 angstrom
                   Q00  =   0.055579

H          x =  1.594329  y =  2.237559  z =  0.448760 angstrom
           Maximum rank =  0   Radius =  0.325 angstrom
                   Q00  =   0.065621

H          x =  0.548329  y =  0.856559  z =  3.048760 angstrom
           Maximum rank =  0   Radius =  0.325 angstrom
                   Q00  =   0.081011

H          x =  1.688329  y =  0.171559  z =  1.861760 angstrom
           Maximum rank =  0   Radius =  0.325 angstrom
                   Q00  =   0.098983

H          x =  1.352329  y =  4.309559  z =  1.502760 angstrom
           Maximum rank =  0   Radius =  0.325 angstrom
                   Q00  =   0.084469

H          x =  2.173489  y =  1.621399  z =  2.841890 angstrom
           Maximum rank =  0   Radius =  0.325 angstrom
                   Q00  =   0.054864

H          x =  1.716549  y =  3.264339  z =  2.879060 angstrom
           Maximum rank =  0   Radius =  0.325 angstrom
                   Q00  =   0.056623

H          x = -0.027072  y =  3.753749  z =  2.491560 angstrom
           Maximum rank =  0   Radius =  0.325 angstrom
                   Q00  =   0.075495

Total multipoles referred to origin at
           x =   0.000000,  y =    0.000000,  z =    0.000000 angstrom
                   Q00  =  -0.000000

Finished at 7:50:28 on 27 Apr 2020

  DMA results are available in the Python driver through the
	  variable('DMA DISTRIBUTED MULTIPOLES')
  and
	  variable('DMA TOTAL MULTIPOLES')
  commands.

    Psi4 stopped on: Monday, 27 April 2020 07:50AM
    Psi4 wall time for execution: 0:01:10.00

*** Psi4 exiting successfully. Buy a developer a beer!
