                               Psi4 1.3.2 release

  ==> Input File <==

--------------------------------------------------------------------------
import numpy as np
set {scf_type pk
basis cc-pvdz
d_convergence 10
gdma_switch   0
gdma_limit    0
gdma_origin   [ 0.0,  0.0,  0.0 ]
}
molecule test {
    units Angstrom
    0 1
    --
    0 1
    C               -0.272686068629638    -0.461999216437592    -1.456316850512788
    C               -0.035686068629638     0.596000783562408    -2.540316850512788
    C               -1.525686068629638    -1.238999216437592    -1.684316850512788
    H                0.562313931370362    -1.133999216437592    -1.424316850512788
    H               -0.341686068629638     0.047000783562408    -0.496316850512788
    H                0.858313931370362     1.141000783562408    -2.234316850512788
    H               -0.863686068629638     1.307000783562408    -2.479316850512788
    H               -2.404686068629638    -0.601999216437592    -1.558316850512788
    H               -1.513686068629638    -1.665999216437592    -2.689316850512788
    H                0.077953731370362     0.313687783562408    -3.597376850512788
    H               -1.513994068629638    -2.046508516437592    -0.937466850512788
    C                1.072313931370362     0.358000783562408     2.066683149487212
    C                0.736313931370362     0.708000783562408     3.505683149487212
    H                1.194313931370362     1.260000783562408     1.465683149487212
    H                1.988313931370362    -0.230999216437592     2.036683149487212
    H                0.266313931370362    -0.248999216437592     1.654683149487212
    H                0.617313931370362    -0.219999216437592     4.068683149487212
    H               -0.202776768629638     1.279718783562408     3.540993149487212
    H                1.578472531370362     1.264413783562408     3.942913149487212

}
e, wfn = energy('scf', return_wfn=True)
gdma(wfn)
dmavals = variable('DMA DISTRIBUTED MULTIPOLES')
charges = np.array(dmavals)
print(charges)
np.save('SSI-108LYS-131ALA-1-dimer.npy', np.array(charges))--------------------------------------------------------------------------

*** tstart() called on ds3
*** at Mon Apr 27 17:48:07 2020

   => Loading Basis Set <=

    Name: CC-PVDZ
    Role: ORBITAL
    Keyword: BASIS
    atoms 1-3, 12-13  entry C          line   138 file /theoryfs2/ds/metcalf/miniconda2/envs/tf2gpu/share/psi4/basis/cc-pvdz.gbs
    atoms 4-11, 14-19 entry H          line    22 file /theoryfs2/ds/metcalf/miniconda2/envs/tf2gpu/share/psi4/basis/cc-pvdz.gbs

         ---------------------------------------------------------
                                   SCF
               by Justin Turney, Rob Parrish, Andy Simmonett
                          and Daniel G. A. Smith
                              RHF Reference
                        1 Threads,    500 MiB Core
         ---------------------------------------------------------

  ==> Geometry <==

    Molecular point group: c1
    Full point group: C1

    Geometry (in Angstrom), charge = 0, multiplicity = 1:

       Center              X                  Y                   Z               Mass
    ------------   -----------------  -----------------  -----------------  -----------------
         C           -0.272686068630    -0.461999216438    -1.456316850513    12.000000000000
         C           -0.035686068630     0.596000783562    -2.540316850513    12.000000000000
         C           -1.525686068630    -1.238999216438    -1.684316850513    12.000000000000
         H            0.562313931370    -1.133999216438    -1.424316850513     1.007825032230
         H           -0.341686068630     0.047000783562    -0.496316850513     1.007825032230
         H            0.858313931370     1.141000783562    -2.234316850513     1.007825032230
         H           -0.863686068630     1.307000783562    -2.479316850513     1.007825032230
         H           -2.404686068630    -0.601999216438    -1.558316850513     1.007825032230
         H           -1.513686068630    -1.665999216438    -2.689316850513     1.007825032230
         H            0.077953731370     0.313687783562    -3.597376850513     1.007825032230
         H           -1.513994068630    -2.046508516438    -0.937466850513     1.007825032230
         C            1.072313931370     0.358000783562     2.066683149487    12.000000000000
         C            0.736313931370     0.708000783562     3.505683149487    12.000000000000
         H            1.194313931370     1.260000783562     1.465683149487     1.007825032230
         H            1.988313931370    -0.230999216438     2.036683149487     1.007825032230
         H            0.266313931370    -0.248999216438     1.654683149487     1.007825032230
         H            0.617313931370    -0.219999216438     4.068683149487     1.007825032230
         H           -0.202776768630     1.279718783562     3.540993149487     1.007825032230
         H            1.578472531370     1.264413783562     3.942913149487     1.007825032230

  Running in c1 symmetry.

  Rotational constants: A =      0.23660  B =      0.03454  C =      0.03158 [cm^-1]
  Rotational constants: A =   7093.16066  B =   1035.49015  C =    946.80753 [MHz]
  Nuclear repulsion =  175.122208890312976

  Charge       = 0
  Multiplicity = 1
  Electrons    = 44
  Nalpha       = 22
  Nbeta        = 22

  ==> Algorithm <==

  SCF Algorithm Type is PK.
  DIIS enabled.
  MOM disabled.
  Fractional occupation disabled.
  Guess Type is SAD.
  Energy threshold   = 1.00e-06
  Density threshold  = 1.00e-10
  Integral threshold = 0.00e+00

  ==> Primary Basis <==

  Basis Set: CC-PVDZ
    Blend: CC-PVDZ
    Number of shells: 72
    Number of basis function: 140
    Number of Cartesian functions: 145
    Spherical Harmonics?: true
    Max angular momentum: 2

  ==> Pre-Iterations <==

   -------------------------------------------------------
    Irrep   Nso     Nmo     Nalpha   Nbeta   Ndocc  Nsocc
   -------------------------------------------------------
     A        140     140       0       0       0       0
   -------------------------------------------------------
    Total     140     140      22      22      22       0
   -------------------------------------------------------

  ==> Integral Setup <==

  Using integral reordering PK algorithm.
  Sizing the integral batches needed.
  Building batch lookup table.
   Calculation information:
      Number of atoms:                  19
      Number of AO shells:              72
      Number of primitives:            180
      Number of atomic orbitals:       145
      Number of basis functions:       140

      Integral cutoff                 1.00e-12
      Number of threads:                 1

	Batch   1 pq = [       0,    9405] index = [             0,44231715] size =     44231715
	Batch   2 pq = [    9405,    9870] index = [      44231715,48713385] size =      4481670
  Task number: 5
  Buffer size: 11059200
  Buffer per thread: 2
  We computed 2656094 shell quartets total.
  Whereas there are 3454506 unique shell quartets.

  ==> DiskJK: Disk-Based J/K Matrices <==

    J tasked:                  Yes
    K tasked:                  Yes
    wK tasked:                  No
    Memory [MiB]:              375
    Schwarz Cutoff:          1E-12

    OpenMP threads:              1

  Minimum eigenvalue in the overlap matrix is 4.9853303175E-03.
  Using Symmetric Orthogonalization.

  SCF Guess: Superposition of Atomic Densities via on-the-fly atomic UHF.

  ==> Iterations <==

                        Total Energy        Delta E     RMS |[F,P]|

   @RHF iter SAD:  -196.44604770026982   -1.96446e+02   0.00000e+00
   @RHF iter   1:  -197.30165675289126   -8.55609e-01   3.86527e-03 DIIS
   @RHF iter   2:  -197.46497719224547   -1.63320e-01   1.68349e-03 DIIS
   @RHF iter   3:  -197.49473003724916   -2.97528e-02   3.28801e-04 DIIS
   @RHF iter   4:  -197.49699185287130   -2.26182e-03   4.76548e-05 DIIS
   @RHF iter   5:  -197.49703054263088   -3.86898e-05   1.45298e-05 DIIS
   @RHF iter   6:  -197.49703373603185   -3.19340e-06   2.49744e-06 DIIS
   @RHF iter   7:  -197.49703384212967   -1.06098e-07   4.22535e-07 DIIS
   @RHF iter   8:  -197.49703384555963   -3.42996e-09   9.57875e-08 DIIS
   @RHF iter   9:  -197.49703384572283   -1.63197e-10   2.95074e-08 DIIS
   @RHF iter  10:  -197.49703384574028   -1.74509e-11   6.31070e-09 DIIS
   @RHF iter  11:  -197.49703384574244   -2.16005e-12   1.32036e-09 DIIS
   @RHF iter  12:  -197.49703384574184    5.96856e-13   2.49022e-10 DIIS
   @RHF iter  13:  -197.49703384574173    1.13687e-13   4.54500e-11 DIIS
  Energy and wave function converged.

  ==> Post-Iterations <==

    Orbital Energies [Eh]
    ---------------------

    Doubly Occupied:

       1A    -11.219453     2A    -11.216504     3A    -11.214211
       4A    -11.213606     5A    -11.212239     6A     -1.059642
       7A     -1.022265     8A     -0.924730     9A     -0.835400
      10A     -0.794991    11A     -0.629695    12A     -0.602889
      13A     -0.600271    14A     -0.592716    15A     -0.556351
      16A     -0.529971    17A     -0.501987    18A     -0.490119
      19A     -0.485432    20A     -0.472908    21A     -0.467824
      22A     -0.455403

    Virtual:

      23A      0.171537    24A      0.194134    25A      0.212725
      26A      0.221789    27A      0.233997    28A      0.251154
      29A      0.261052    30A      0.267079    31A      0.271929
      32A      0.282758    33A      0.292261    34A      0.298727
      35A      0.308785    36A      0.335349    37A      0.367050
      38A      0.396391    39A      0.434276    40A      0.571040
      41A      0.589974    42A      0.598792    43A      0.606011
      44A      0.608931    45A      0.623548    46A      0.627457
      47A      0.663873    48A      0.682968    49A      0.745631
      50A      0.772564    51A      0.824069    52A      0.843612
      53A      0.868421    54A      0.887827    55A      0.890791
      56A      0.893100    57A      0.897027    58A      0.901254
      59A      0.902556    60A      0.905914    61A      0.910827
      62A      0.917721    63A      0.923359    64A      0.938953
      65A      0.942002    66A      0.973212    67A      0.985158
      68A      1.004850    69A      1.118997    70A      1.124922
      71A      1.148181    72A      1.157054    73A      1.228363
      74A      1.248434    75A      1.389945    76A      1.436114
      77A      1.477276    78A      1.483868    79A      1.492048
      80A      1.542820    81A      1.568617    82A      1.644118
      83A      1.673647    84A      1.679252    85A      1.691206
      86A      1.694059    87A      1.713789    88A      1.839047
      89A      1.858174    90A      1.867200    91A      1.872413
      92A      1.877413    93A      1.891525    94A      1.905902
      95A      1.930876    96A      1.942591    97A      1.948537
      98A      1.949589    99A      1.965934   100A      1.967117
     101A      1.981351   102A      1.985536   103A      1.999068
     104A      2.007914   105A      2.016881   106A      2.044680
     107A      2.059544   108A      2.102942   109A      2.116220
     110A      2.151082   111A      2.167320   112A      2.290606
     113A      2.297101   114A      2.307226   115A      2.319113
     116A      2.344741   117A      2.381199   118A      2.453218
     119A      2.470146   120A      2.509337   121A      2.532712
     122A      2.565419   123A      2.568906   124A      2.574929
     125A      2.605710   126A      2.653419   127A      2.751069
     128A      2.760950   129A      2.777480   130A      2.784358
     131A      2.790388   132A      2.830611   133A      2.841362
     134A      2.847225   135A      2.914881   136A      2.945728
     137A      2.956534   138A      2.986128   139A      3.021359
     140A      3.081457

    Final Occupation by Irrep:
              A
    DOCC [    22 ]

  @RHF Final Energy:  -197.49703384574173

   => Energetics <=

    Nuclear Repulsion Energy =            175.1222088903129759
    One-Electron Energy =                -611.0412654422073047
    Two-Electron Energy =                 238.4220227061525748
    Total Energy =                       -197.4970338457417256

Computation Completed

Properties will be evaluated at   0.000000,   0.000000,   0.000000 [a0]

Properties computed using the SCF density matrix

  Nuclear Dipole Moment: [e a0]
     X:     0.2839      Y:     0.4353      Z:     1.2120

  Electronic Dipole Moment: [e a0]
     X:    -0.2427      Y:    -0.4468      Z:    -1.1590

  Dipole Moment: [e a0]
     X:     0.0411      Y:    -0.0115      Z:     0.0530     Total:     0.0681

  Dipole Moment: [D]
     X:     0.1045      Y:    -0.0293      Z:     0.1348     Total:     0.1731

*** tstop() called on ds3 at Mon Apr 27 17:48:29 2020
Module time:
	user time   =      15.72 seconds =       0.26 minutes
	system time =       7.09 seconds =       0.12 minutes
	total time  =         22 seconds =       0.37 minutes
Total time:
	user time   =      15.72 seconds =       0.26 minutes
	system time =       7.09 seconds =       0.12 minutes
	total time  =         22 seconds =       0.37 minutes
                                     G D M A

                                 by Anthony Stone

                           version 2.2.06, 22 June 2011

               Distributed Multipoles from Gaussian wavefunctions

Starting at 17:48:29 on 27 Apr 2020

Using SCF density matrix from file ./SSI/SSI-108LYS-131ALA-1-dimer.test.7024.fchk

                         Distributed Multipole Analysis

Standard DMA

Positions and radii in angstrom
Multipole moments in atomic units, ea_0^k for rank k

C          x = -0.272686  y = -0.461999  z = -1.456317 angstrom
           Maximum rank =  0   Radius =  0.650 angstrom
                   Q00  =  -0.050969

C          x = -0.035686  y =  0.596001  z = -2.540317 angstrom
           Maximum rank =  0   Radius =  0.650 angstrom
                   Q00  =  -0.263571

C          x = -1.525686  y = -1.238999  z = -1.684317 angstrom
           Maximum rank =  0   Radius =  0.650 angstrom
                   Q00  =  -0.239536

H          x =  0.562314  y = -1.133999  z = -1.424317 angstrom
           Maximum rank =  0   Radius =  0.325 angstrom
                   Q00  =   0.047056

H          x = -0.341686  y =  0.047001  z = -0.496317 angstrom
           Maximum rank =  0   Radius =  0.325 angstrom
                   Q00  =   0.052091

H          x =  0.858314  y =  1.141001  z = -2.234317 angstrom
           Maximum rank =  0   Radius =  0.325 angstrom
                   Q00  =   0.077093

H          x = -0.863686  y =  1.307001  z = -2.479317 angstrom
           Maximum rank =  0   Radius =  0.325 angstrom
                   Q00  =   0.069619

H          x = -2.404686  y = -0.601999  z = -1.558317 angstrom
           Maximum rank =  0   Radius =  0.325 angstrom
                   Q00  =   0.074544

H          x = -1.513686  y = -1.665999  z = -2.689317 angstrom
           Maximum rank =  0   Radius =  0.325 angstrom
                   Q00  =   0.074629

H          x =  0.077954  y =  0.313688  z = -3.597377 angstrom
           Maximum rank =  0   Radius =  0.325 angstrom
                   Q00  =   0.085257

H          x = -1.513994  y = -2.046509  z = -0.937467 angstrom
           Maximum rank =  0   Radius =  0.325 angstrom
                   Q00  =   0.072407

C          x =  1.072314  y =  0.358001  z =  2.066683 angstrom
           Maximum rank =  0   Radius =  0.650 angstrom
                   Q00  =  -0.217524

C          x =  0.736314  y =  0.708001  z =  3.505683 angstrom
           Maximum rank =  0   Radius =  0.650 angstrom
                   Q00  =  -0.246979

H          x =  1.194314  y =  1.260001  z =  1.465683 angstrom
           Maximum rank =  0   Radius =  0.325 angstrom
                   Q00  =   0.077659

H          x =  1.988314  y = -0.230999  z =  2.036683 angstrom
           Maximum rank =  0   Radius =  0.325 angstrom
                   Q00  =   0.079301

H          x =  0.266314  y = -0.248999  z =  1.654683 angstrom
           Maximum rank =  0   Radius =  0.325 angstrom
                   Q00  =   0.075612

H          x =  0.617314  y = -0.219999  z =  4.068683 angstrom
           Maximum rank =  0   Radius =  0.325 angstrom
                   Q00  =   0.077422

H          x = -0.202777  y =  1.279719  z =  3.540993 angstrom
           Maximum rank =  0   Radius =  0.325 angstrom
                   Q00  =   0.078779

H          x =  1.578473  y =  1.264414  z =  3.942913 angstrom
           Maximum rank =  0   Radius =  0.325 angstrom
                   Q00  =   0.077107

Total multipoles referred to origin at
           x =   0.000000,  y =    0.000000,  z =    0.000000 angstrom
                   Q00  =  -0.000000

Finished at 17:48:29 on 27 Apr 2020

  DMA results are available in the Python driver through the
	  variable('DMA DISTRIBUTED MULTIPOLES')
  and
	  variable('DMA TOTAL MULTIPOLES')
  commands.

    Psi4 stopped on: Monday, 27 April 2020 05:48PM
    Psi4 wall time for execution: 0:00:22.18

*** Psi4 exiting successfully. Buy a developer a beer!
