                               Psi4 1.3.2 release

  ==> Input File <==

--------------------------------------------------------------------------
import numpy as np
set {scf_type pk
basis cc-pvdz
d_convergence 10
gdma_switch   0
gdma_limit    0
gdma_origin   [ 0.0,  0.0,  0.0 ]
}
molecule test {
    units Angstrom
    0 1
    --
    0 1
    C                0.774418112851270    -2.196462106282409    -1.870421862809136
    C               -0.142581887148730    -3.362462106282408    -1.735421862809136
    H                1.738418112851270    -2.492462106282409    -2.286421862809136
    H                0.321418112851270    -1.452462106282409    -2.525421862809135
    H                0.926418112851270    -1.741462106282409    -0.892421862809135
    H               -1.149581887148730    -3.017462106282409    -1.499421862809136
    H                0.194948112851270    -4.061576106282409    -0.956121862809136
    H               -0.141801887148730    -3.870320106282409    -2.711171862809135
    C                0.540418112851270     0.001537893717591     2.756578137190865
    C                0.742418112851270     1.187537893717591    -0.816421862809136
    C               -0.582581887148730     1.567537893717591    -1.059421862809136
    C                1.090418112851270     0.676537893717591     0.426578137190865
    C                0.128418112851270     0.558537893717591     1.428578137190865
    C               -1.540581887148730     1.489537893717591    -0.067421862809136
    C               -1.186581887148730     0.975537893717591     1.181578137190864
    H                1.485418112851270     1.273537893717591    -1.598421862809136
    H               -0.854581887148730     1.954537893717591    -2.033421862809135
    H                2.110418112851270     0.366537893717591     0.607578137190865
    H               -2.557581887148730     1.807537893717591    -0.261421862809136
    H                0.086418112851270     0.603537893717591     3.544578137190864
    H                1.624418112851270     0.086537893717591     2.854578137190865
    H               -1.933581887148730     0.903537893717591     1.960578137190864
    H                0.247678112851270    -1.050460106282409     2.889248137190864

}
e, wfn = energy('scf', return_wfn=True)
gdma(wfn)
dmavals = variable('DMA DISTRIBUTED MULTIPOLES')
charges = np.array(dmavals)
print(charges)
np.save('SSI-038THR-053PHE-1-dimer.npy', np.array(charges))--------------------------------------------------------------------------

*** tstart() called on ds3
*** at Tue Apr 28 09:23:16 2020

   => Loading Basis Set <=

    Name: CC-PVDZ
    Role: ORBITAL
    Keyword: BASIS
    atoms 1-2, 9-15  entry C          line   138 file /theoryfs2/ds/metcalf/miniconda2/envs/tf2gpu/share/psi4/basis/cc-pvdz.gbs
    atoms 3-8, 16-23 entry H          line    22 file /theoryfs2/ds/metcalf/miniconda2/envs/tf2gpu/share/psi4/basis/cc-pvdz.gbs

         ---------------------------------------------------------
                                   SCF
               by Justin Turney, Rob Parrish, Andy Simmonett
                          and Daniel G. A. Smith
                              RHF Reference
                        1 Threads,    500 MiB Core
         ---------------------------------------------------------

  ==> Geometry <==

    Molecular point group: c1
    Full point group: C1

    Geometry (in Angstrom), charge = 0, multiplicity = 1:

       Center              X                  Y                   Z               Mass
    ------------   -----------------  -----------------  -----------------  -----------------
         C            0.774418112851    -2.196462106282    -1.870421862809    12.000000000000
         C           -0.142581887149    -3.362462106282    -1.735421862809    12.000000000000
         H            1.738418112851    -2.492462106282    -2.286421862809     1.007825032230
         H            0.321418112851    -1.452462106282    -2.525421862809     1.007825032230
         H            0.926418112851    -1.741462106282    -0.892421862809     1.007825032230
         H           -1.149581887149    -3.017462106282    -1.499421862809     1.007825032230
         H            0.194948112851    -4.061576106282    -0.956121862809     1.007825032230
         H           -0.141801887149    -3.870320106282    -2.711171862809     1.007825032230
         C            0.540418112851     0.001537893718     2.756578137191    12.000000000000
         C            0.742418112851     1.187537893718    -0.816421862809    12.000000000000
         C           -0.582581887149     1.567537893718    -1.059421862809    12.000000000000
         C            1.090418112851     0.676537893718     0.426578137191    12.000000000000
         C            0.128418112851     0.558537893718     1.428578137191    12.000000000000
         C           -1.540581887149     1.489537893718    -0.067421862809    12.000000000000
         C           -1.186581887149     0.975537893718     1.181578137191    12.000000000000
         H            1.485418112851     1.273537893718    -1.598421862809     1.007825032230
         H           -0.854581887149     1.954537893718    -2.033421862809     1.007825032230
         H            2.110418112851     0.366537893718     0.607578137191     1.007825032230
         H           -2.557581887149     1.807537893718    -0.261421862809     1.007825032230
         H            0.086418112851     0.603537893718     3.544578137191     1.007825032230
         H            1.624418112851     0.086537893718     2.854578137191     1.007825032230
         H           -1.933581887149     0.903537893718     1.960578137191     1.007825032230
         H            0.247678112851    -1.050460106282     2.889248137191     1.007825032230

  Running in c1 symmetry.

  Rotational constants: A =      0.05915  B =      0.03000  C =      0.02535 [cm^-1]
  Rotational constants: A =   1773.36246  B =    899.38641  C =    760.00518 [MHz]
  Nuclear repulsion =  413.824398502713791

  Charge       = 0
  Multiplicity = 1
  Electrons    = 68
  Nalpha       = 34
  Nbeta        = 34

  ==> Algorithm <==

  SCF Algorithm Type is PK.
  DIIS enabled.
  MOM disabled.
  Fractional occupation disabled.
  Guess Type is SAD.
  Energy threshold   = 1.00e-06
  Density threshold  = 1.00e-10
  Integral threshold = 0.00e+00

  ==> Primary Basis <==

  Basis Set: CC-PVDZ
    Blend: CC-PVDZ
    Number of shells: 96
    Number of basis function: 196
    Number of Cartesian functions: 205
    Spherical Harmonics?: true
    Max angular momentum: 2

  ==> Pre-Iterations <==

   -------------------------------------------------------
    Irrep   Nso     Nmo     Nalpha   Nbeta   Ndocc  Nsocc
   -------------------------------------------------------
     A        196     196       0       0       0       0
   -------------------------------------------------------
    Total     196     196      34      34      34       0
   -------------------------------------------------------

  ==> Integral Setup <==

  Using integral reordering PK algorithm.
  Sizing the integral batches needed.
  Building batch lookup table.
   Calculation information:
      Number of atoms:                  23
      Number of AO shells:              96
      Number of primitives:            268
      Number of atomic orbitals:       205
      Number of basis functions:       196

      Integral cutoff                 1.00e-12
      Number of threads:                 1

	Batch   1 pq = [       0,    9405] index = [             0,44231715] size =     44231715
	Batch   2 pq = [    9405,   13301] index = [      44231715,88464951] size =     44233236
	Batch   3 pq = [   13301,   16290] index = [      88464951,132690195] size =     44225244
	Batch   4 pq = [   16290,   18810] index = [     132690195,176917455] size =     44227260
	Batch   5 pq = [   18810,   19306] index = [     176917455,186370471] size =      9453016
  Task number: 17
  Buffer size: 11059200
  Buffer per thread: 2
  We computed 9965248 shell quartets total.
  Whereas there are 10841496 unique shell quartets.

  ==> DiskJK: Disk-Based J/K Matrices <==

    J tasked:                  Yes
    K tasked:                  Yes
    wK tasked:                  No
    Memory [MiB]:              375
    Schwarz Cutoff:          1E-12

    OpenMP threads:              1

  Minimum eigenvalue in the overlap matrix is 3.1419531959E-04.
  Using Symmetric Orthogonalization.

  SCF Guess: Superposition of Atomic Densities via on-the-fly atomic UHF.

  ==> Iterations <==

                        Total Energy        Delta E     RMS |[F,P]|

   @RHF iter SAD:  -347.94088799056590   -3.47941e+02   0.00000e+00
   @RHF iter   1:  -348.75895933448555   -8.18071e-01   2.93787e-03 DIIS
   @RHF iter   2:  -348.95491873848658   -1.95959e-01   1.23335e-03 DIIS
   @RHF iter   3:  -348.98653660254399   -3.16179e-02   2.61259e-04 DIIS
   @RHF iter   4:  -348.98905362935722   -2.51703e-03   5.42073e-05 DIIS
   @RHF iter   5:  -348.98913016794478   -7.65386e-05   1.78462e-05 DIIS
   @RHF iter   6:  -348.98913795887069   -7.79093e-06   4.86990e-06 DIIS
   @RHF iter   7:  -348.98913862151238   -6.62642e-07   1.26269e-06 DIIS
   @RHF iter   8:  -348.98913866973965   -4.82273e-08   2.95134e-07 DIIS
   @RHF iter   9:  -348.98913867423579   -4.49614e-09   1.25642e-07 DIIS
   @RHF iter  10:  -348.98913867511584   -8.80050e-10   5.60870e-08 DIIS
   @RHF iter  11:  -348.98913867543740   -3.21563e-10   2.18626e-08 DIIS
   @RHF iter  12:  -348.98913867549356   -5.61613e-11   9.96320e-09 DIIS
   @RHF iter  13:  -348.98913867550283   -9.26548e-12   3.73468e-09 DIIS
   @RHF iter  14:  -348.98913867550186    9.66338e-13   9.51053e-10 DIIS
   @RHF iter  15:  -348.98913867550317   -1.30740e-12   3.85708e-10 DIIS
   @RHF iter  16:  -348.98913867550408   -9.09495e-13   8.50717e-11 DIIS
  Energy and wave function converged.

  ==> Post-Iterations <==

    Orbital Energies [Eh]
    ---------------------

    Doubly Occupied:

       1A    -11.240946     2A    -11.236148     3A    -11.235464
       4A    -11.232381     5A    -11.230545     6A    -11.229622
       7A    -11.228825     8A    -11.209511     9A    -11.203434
      10A     -1.152645    11A     -1.045114    12A     -1.020931
      13A     -1.012439    14A     -0.930098    15A     -0.825342
      16A     -0.824323    17A     -0.794545    18A     -0.690099
      19A     -0.631964    20A     -0.630732    21A     -0.597478
      22A     -0.594212    23A     -0.585163    24A     -0.577303
      25A     -0.559782    26A     -0.534846    27A     -0.502591
      28A     -0.489215    29A     -0.486309    30A     -0.480609
      31A     -0.474240    32A     -0.468106    33A     -0.332428
      34A     -0.320462

    Virtual:

      35A      0.133227    36A      0.141022    37A      0.176861
      38A      0.197787    39A      0.200089    40A      0.214488
      41A      0.240768    42A      0.246785    43A      0.254798
      44A      0.258117    45A      0.267716    46A      0.274481
      47A      0.280036    48A      0.290896    49A      0.298944
      50A      0.331143    51A      0.363845    52A      0.375409
      53A      0.414101    54A      0.452829    55A      0.461085
      56A      0.479598    57A      0.493013    58A      0.567589
      59A      0.577530    60A      0.601002    61A      0.610145
      62A      0.616639    63A      0.639413    64A      0.651112
      65A      0.674741    66A      0.683248    67A      0.694482
      68A      0.704675    69A      0.726718    70A      0.738584
      71A      0.745149    72A      0.750540    73A      0.759268
      74A      0.778775    75A      0.784770    76A      0.839613
      77A      0.844324    78A      0.849640    79A      0.860131
      80A      0.873029    81A      0.882365    82A      0.892634
      83A      0.893642    84A      0.897351    85A      0.899175
      86A      0.908624    87A      0.924531    88A      0.927940
      89A      0.936986    90A      0.941626    91A      0.945397
      92A      0.974968    93A      0.989946    94A      1.008093
      95A      1.031580    96A      1.058550    97A      1.122530
      98A      1.130005    99A      1.133146   100A      1.137454
     101A      1.155469   102A      1.175499   103A      1.193423
     104A      1.224250   105A      1.241377   106A      1.252977
     107A      1.260938   108A      1.273131   109A      1.300146
     110A      1.313915   111A      1.319531   112A      1.347050
     113A      1.410323   114A      1.491901   115A      1.500400
     116A      1.504550   117A      1.524308   118A      1.559602
     119A      1.580971   120A      1.603581   121A      1.681714
     122A      1.686049   123A      1.695550   124A      1.702323
     125A      1.738594   126A      1.752074   127A      1.766518
     128A      1.789193   129A      1.815792   130A      1.854974
     131A      1.856635   132A      1.873022   133A      1.890149
     134A      1.902227   135A      1.911701   136A      1.913482
     137A      1.924717   138A      1.934166   139A      1.937353
     140A      1.949595   141A      1.958264   142A      1.963479
     143A      1.968497   144A      1.975376   145A      1.976939
     146A      1.993907   147A      2.009583   148A      2.022691
     149A      2.040025   150A      2.063240   151A      2.073601
     152A      2.112475   153A      2.116760   154A      2.140173
     155A      2.151231   156A      2.160529   157A      2.172553
     158A      2.180802   159A      2.182330   160A      2.245489
     161A      2.273025   162A      2.293608   163A      2.294187
     164A      2.312163   165A      2.325307   166A      2.332541
     167A      2.341660   168A      2.461217   169A      2.462295
     170A      2.471728   171A      2.481628   172A      2.508469
     173A      2.541160   174A      2.575677   175A      2.606193
     176A      2.623987   177A      2.731153   178A      2.750445
     179A      2.768314   180A      2.770902   181A      2.778189
     182A      2.797476   183A      2.817880   184A      2.849033
     185A      2.853044   186A      2.874593   187A      2.875257
     188A      2.966118   189A      2.971371   190A      2.987986
     191A      3.021240   192A      3.037664   193A      3.155021
     194A      3.197536   195A      3.297485   196A      3.966937

    Final Occupation by Irrep:
              A
    DOCC [    34 ]

  @RHF Final Energy:  -348.98913867550408

   => Energetics <=

    Nuclear Repulsion Energy =            413.8243985027137910
    One-Electron Energy =               -1290.4113702381810072
    Two-Electron Energy =                 527.5978330599630226
    Total Energy =                       -348.9891386755041367

Computation Completed

Properties will be evaluated at   0.000000,   0.000000,   0.000000 [a0]

Properties computed using the SCF density matrix

  Nuclear Dipole Moment: [e a0]
     X:     1.9672      Y:   -10.0220      Z:    -2.7259

  Electronic Dipole Moment: [e a0]
     X:    -1.9465      Y:    10.0518      Z:     2.8645

  Dipole Moment: [e a0]
     X:     0.0208      Y:     0.0299      Z:     0.1386     Total:     0.1433

  Dipole Moment: [D]
     X:     0.0527      Y:     0.0759      Z:     0.3524     Total:     0.3643

*** tstop() called on ds3 at Tue Apr 28 09:25:00 2020
Module time:
	user time   =      77.95 seconds =       1.30 minutes
	system time =      30.87 seconds =       0.51 minutes
	total time  =        104 seconds =       1.73 minutes
Total time:
	user time   =      77.95 seconds =       1.30 minutes
	system time =      30.87 seconds =       0.51 minutes
	total time  =        104 seconds =       1.73 minutes
                                     G D M A

                                 by Anthony Stone

                           version 2.2.06, 22 June 2011

               Distributed Multipoles from Gaussian wavefunctions

Starting at 9:25:0 on 28 Apr 2020

Using SCF density matrix from file ./SSI/SSI-038THR-053PHE-1-dimer.test.10384.fchk

                         Distributed Multipole Analysis

Standard DMA

Positions and radii in angstrom
Multipole moments in atomic units, ea_0^k for rank k

C          x =  0.774418  y = -2.196462  z = -1.870422 angstrom
           Maximum rank =  0   Radius =  0.650 angstrom
                   Q00  =  -0.233992

C          x = -0.142582  y = -3.362462  z = -1.735422 angstrom
           Maximum rank =  0   Radius =  0.650 angstrom
                   Q00  =  -0.208138

H          x =  1.738418  y = -2.492462  z = -2.286422 angstrom
           Maximum rank =  0   Radius =  0.325 angstrom
                   Q00  =   0.066835

H          x =  0.321418  y = -1.452462  z = -2.525422 angstrom
           Maximum rank =  0   Radius =  0.325 angstrom
                   Q00  =   0.074700

H          x =  0.926418  y = -1.741462  z = -0.892422 angstrom
           Maximum rank =  0   Radius =  0.325 angstrom
                   Q00  =   0.082561

H          x = -1.149582  y = -3.017462  z = -1.499422 angstrom
           Maximum rank =  0   Radius =  0.325 angstrom
                   Q00  =   0.078508

H          x =  0.194948  y = -4.061576  z = -0.956122 angstrom
           Maximum rank =  0   Radius =  0.325 angstrom
                   Q00  =   0.072628

H          x = -0.141802  y = -3.870320  z = -2.711172 angstrom
           Maximum rank =  0   Radius =  0.325 angstrom
                   Q00  =   0.065626

C          x =  0.540418  y =  0.001538  z =  2.756578 angstrom
           Maximum rank =  0   Radius =  0.650 angstrom
                   Q00  =  -0.198340

C          x =  0.742418  y =  1.187538  z = -0.816422 angstrom
           Maximum rank =  0   Radius =  0.650 angstrom
                   Q00  =  -0.062605

C          x = -0.582582  y =  1.567538  z = -1.059422 angstrom
           Maximum rank =  0   Radius =  0.650 angstrom
                   Q00  =  -0.024974

C          x =  1.090418  y =  0.676538  z =  0.426578 angstrom
           Maximum rank =  0   Radius =  0.650 angstrom
                   Q00  =  -0.092211

C          x =  0.128418  y =  0.558538  z =  1.428578 angstrom
           Maximum rank =  0   Radius =  0.650 angstrom
                   Q00  =  -0.098303

C          x = -1.540582  y =  1.489538  z = -0.067422 angstrom
           Maximum rank =  0   Radius =  0.650 angstrom
                   Q00  =  -0.071479

C          x = -1.186582  y =  0.975538  z =  1.181578 angstrom
           Maximum rank =  0   Radius =  0.650 angstrom
                   Q00  =  -0.056212

H          x =  1.485418  y =  1.273538  z = -1.598422 angstrom
           Maximum rank =  0   Radius =  0.325 angstrom
                   Q00  =   0.067058

H          x = -0.854582  y =  1.954538  z = -2.033422 angstrom
           Maximum rank =  0   Radius =  0.325 angstrom
                   Q00  =   0.058819

H          x =  2.110418  y =  0.366538  z =  0.607578 angstrom
           Maximum rank =  0   Radius =  0.325 angstrom
                   Q00  =   0.058294

H          x = -2.557582  y =  1.807538  z = -0.261422 angstrom
           Maximum rank =  0   Radius =  0.325 angstrom
                   Q00  =   0.066033

H          x =  0.086418  y =  0.603538  z =  3.544578 angstrom
           Maximum rank =  0   Radius =  0.325 angstrom
                   Q00  =   0.098600

H          x =  1.624418  y =  0.086538  z =  2.854578 angstrom
           Maximum rank =  0   Radius =  0.325 angstrom
                   Q00  =   0.095514

H          x = -1.933582  y =  0.903538  z =  1.960578 angstrom
           Maximum rank =  0   Radius =  0.325 angstrom
                   Q00  =   0.057685

H          x =  0.247678  y = -1.050460  z =  2.889248 angstrom
           Maximum rank =  0   Radius =  0.325 angstrom
                   Q00  =   0.103394

Total multipoles referred to origin at
           x =   0.000000,  y =    0.000000,  z =    0.000000 angstrom
                   Q00  =  -0.000000

Finished at 9:25:0 on 28 Apr 2020

  DMA results are available in the Python driver through the
	  variable('DMA DISTRIBUTED MULTIPOLES')
  and
	  variable('DMA TOTAL MULTIPOLES')
  commands.

    Psi4 stopped on: Tuesday, 28 April 2020 09:25AM
    Psi4 wall time for execution: 0:01:44.64

*** Psi4 exiting successfully. Buy a developer a beer!
