                               Psi4 1.3.2 release

  ==> Input File <==

--------------------------------------------------------------------------
import numpy as np
set {scf_type pk
basis cc-pvdz
d_convergence 10
gdma_switch   0
gdma_limit    0
gdma_origin   [ 0.0,  0.0,  0.0 ]
}
molecule test {
    units Angstrom
    0 1
    --
    0 1
    C               -2.521089551096767    -2.278557104696061     1.923044641122144
    O               -2.739089551096767    -2.622557104696061     0.557044641122144
    H               -2.140089551096766    -2.075557104696061     0.016044641122144
    H               -2.917089551096766    -1.279557104696061     2.095044641122144
    H               -3.053989551096766    -3.001065104696060     2.558654641122143
    H               -1.443069551096766    -2.262049104696061     2.141234641122143
    C                2.729910448903234     2.754442895303939     0.478044641122144
    C               -0.148089551096766    -0.226557104696061    -0.735955358877856
    C                1.183910448903234    -0.335557104696061    -1.150955358877856
    C               -0.549089551096766     0.841442895303939     0.049044641122144
    C                2.122910448903233     0.620442895303939    -0.744955358877856
    C                0.398910448903234     1.802442895303939     0.447044641122144
    C                1.739910448903234     1.677442895303939     0.084044641122144
    O               -1.091089551096766    -1.129557104696061    -1.146955358877856
    H               -0.780089551096766    -1.638557104696061    -1.924955358877857
    H                1.487910448903234    -1.153557104696061    -1.787955358877857
    H               -1.582089551096766     0.931442895303939     0.349044641122144
    H                3.150910448903234     0.529442895303939    -1.066955358877857
    H                0.083910448903234     2.641442895303939     1.046044641122144
    H                3.623910448903233     2.274442895303940     0.874044641122144
    H                2.308910448903234     3.374442895303939     1.270044641122143
    H                3.023060448903233     3.393782895303939    -0.367715358877857

}
e, wfn = energy('scf', return_wfn=True)
gdma(wfn)
dmavals = variable('DMA DISTRIBUTED MULTIPOLES')
charges = np.array(dmavals)
print(charges)
np.save('SSI-029THR-121TYR-2-dimer.npy', np.array(charges))--------------------------------------------------------------------------

*** tstart() called on ds3
*** at Sun Apr 26 18:54:48 2020

   => Loading Basis Set <=

    Name: CC-PVDZ
    Role: ORBITAL
    Keyword: BASIS
    atoms 1, 7-13    entry C          line   138 file /theoryfs2/ds/metcalf/miniconda2/envs/tf2gpu/share/psi4/basis/cc-pvdz.gbs
    atoms 2, 14      entry O          line   198 file /theoryfs2/ds/metcalf/miniconda2/envs/tf2gpu/share/psi4/basis/cc-pvdz.gbs
    atoms 3-6, 15-22 entry H          line    22 file /theoryfs2/ds/metcalf/miniconda2/envs/tf2gpu/share/psi4/basis/cc-pvdz.gbs

         ---------------------------------------------------------
                                   SCF
               by Justin Turney, Rob Parrish, Andy Simmonett
                          and Daniel G. A. Smith
                              RHF Reference
                        1 Threads,    500 MiB Core
         ---------------------------------------------------------

  ==> Geometry <==

    Molecular point group: c1
    Full point group: C1

    Geometry (in Angstrom), charge = 0, multiplicity = 1:

       Center              X                  Y                   Z               Mass
    ------------   -----------------  -----------------  -----------------  -----------------
         C           -2.521089551097    -2.278557104696     1.923044641122    12.000000000000
         O           -2.739089551097    -2.622557104696     0.557044641122    15.994914619570
         H           -2.140089551097    -2.075557104696     0.016044641122     1.007825032230
         H           -2.917089551097    -1.279557104696     2.095044641122     1.007825032230
         H           -3.053989551097    -3.001065104696     2.558654641122     1.007825032230
         H           -1.443069551097    -2.262049104696     2.141234641122     1.007825032230
         C            2.729910448903     2.754442895304     0.478044641122    12.000000000000
         C           -0.148089551097    -0.226557104696    -0.735955358878    12.000000000000
         C            1.183910448903    -0.335557104696    -1.150955358878    12.000000000000
         C           -0.549089551097     0.841442895304     0.049044641122    12.000000000000
         C            2.122910448903     0.620442895304    -0.744955358878    12.000000000000
         C            0.398910448903     1.802442895304     0.447044641122    12.000000000000
         C            1.739910448903     1.677442895304     0.084044641122    12.000000000000
         O           -1.091089551097    -1.129557104696    -1.146955358878    15.994914619570
         H           -0.780089551097    -1.638557104696    -1.924955358878     1.007825032230
         H            1.487910448903    -1.153557104696    -1.787955358878     1.007825032230
         H           -1.582089551097     0.931442895304     0.349044641122     1.007825032230
         H            3.150910448903     0.529442895304    -1.066955358878     1.007825032230
         H            0.083910448903     2.641442895304     1.046044641122     1.007825032230
         H            3.623910448903     2.274442895304     0.874044641122     1.007825032230
         H            2.308910448903     3.374442895304     1.270044641122     1.007825032230
         H            3.023060448903     3.393782895304    -0.367715358878     1.007825032230

  Running in c1 symmetry.

  Rotational constants: A =      0.08926  B =      0.01863  C =      0.01675 [cm^-1]
  Rotational constants: A =   2675.95182  B =    558.43065  C =    502.09066 [MHz]
  Nuclear repulsion =  498.305698503968074

  Charge       = 0
  Multiplicity = 1
  Electrons    = 76
  Nalpha       = 38
  Nbeta        = 38

  ==> Algorithm <==

  SCF Algorithm Type is PK.
  DIIS enabled.
  MOM disabled.
  Fractional occupation disabled.
  Guess Type is SAD.
  Energy threshold   = 1.00e-06
  Density threshold  = 1.00e-10
  Integral threshold = 0.00e+00

  ==> Primary Basis <==

  Basis Set: CC-PVDZ
    Blend: CC-PVDZ
    Number of shells: 96
    Number of basis function: 200
    Number of Cartesian functions: 210
    Spherical Harmonics?: true
    Max angular momentum: 2

  ==> Pre-Iterations <==

   -------------------------------------------------------
    Irrep   Nso     Nmo     Nalpha   Nbeta   Ndocc  Nsocc
   -------------------------------------------------------
     A        200     200       0       0       0       0
   -------------------------------------------------------
    Total     200     200      38      38      38       0
   -------------------------------------------------------

  ==> Integral Setup <==

  Using integral reordering PK algorithm.
  Sizing the integral batches needed.
  Building batch lookup table.
   Calculation information:
      Number of atoms:                  22
      Number of AO shells:              96
      Number of primitives:            280
      Number of atomic orbitals:       210
      Number of basis functions:       200

      Integral cutoff                 1.00e-12
      Number of threads:                 1

	Batch   1 pq = [       0,    9405] index = [             0,44231715] size =     44231715
	Batch   2 pq = [    9405,   13301] index = [      44231715,88464951] size =     44233236
	Batch   3 pq = [   13301,   16290] index = [      88464951,132690195] size =     44225244
	Batch   4 pq = [   16290,   18810] index = [     132690195,176917455] size =     44227260
	Batch   5 pq = [   18810,   20100] index = [     176917455,202015050] size =     25097595
  Task number: 19
  Buffer size: 11059200
  Buffer per thread: 2
  We computed 9102097 shell quartets total.
  Whereas there are 10841496 unique shell quartets.

  ==> DiskJK: Disk-Based J/K Matrices <==

    J tasked:                  Yes
    K tasked:                  Yes
    wK tasked:                  No
    Memory [MiB]:              375
    Schwarz Cutoff:          1E-12

    OpenMP threads:              1

  Minimum eigenvalue in the overlap matrix is 3.3082852684E-04.
  Using Symmetric Orthogonalization.

  SCF Guess: Superposition of Atomic Densities via on-the-fly atomic UHF.

  ==> Iterations <==

                        Total Energy        Delta E     RMS |[F,P]|

   @RHF iter SAD:  -458.37540588275021   -4.58375e+02   0.00000e+00
   @RHF iter   1:  -459.44037304039557   -1.06497e+00   3.10645e-03 DIIS
   @RHF iter   2:  -459.63649031588187   -1.96117e-01   1.41238e-03 DIIS
   @RHF iter   3:  -459.67140786243328   -3.49175e-02   3.23288e-04 DIIS
   @RHF iter   4:  -459.67431343010122   -2.90557e-03   1.22533e-04 DIIS
   @RHF iter   5:  -459.67466784150253   -3.54411e-04   2.44940e-05 DIIS
   @RHF iter   6:  -459.67468667223511   -1.88307e-05   9.22292e-06 DIIS
   @RHF iter   7:  -459.67468932254280   -2.65031e-06   2.59134e-06 DIIS
   @RHF iter   8:  -459.67468963645575   -3.13913e-07   7.40660e-07 DIIS
   @RHF iter   9:  -459.67468966858127   -3.21255e-08   2.48660e-07 DIIS
   @RHF iter  10:  -459.67468967279763   -4.21636e-09   1.07854e-07 DIIS
   @RHF iter  11:  -459.67468967403346   -1.23583e-09   4.82627e-08 DIIS
   @RHF iter  12:  -459.67468967432342   -2.89958e-10   2.55953e-08 DIIS
   @RHF iter  13:  -459.67468967440510   -8.16840e-11   6.96613e-09 DIIS
   @RHF iter  14:  -459.67468967440652   -1.42109e-12   2.21741e-09 DIIS
   @RHF iter  15:  -459.67468967441170   -5.17275e-12   7.43046e-10 DIIS
   @RHF iter  16:  -459.67468967440823    3.46745e-12   2.33758e-10 DIIS
   @RHF iter  17:  -459.67468967440874   -5.11591e-13   7.87731e-11 DIIS
  Energy and wave function converged.

  ==> Post-Iterations <==

    Orbital Energies [Eh]
    ---------------------

    Doubly Occupied:

       1A    -20.608085     2A    -20.512667     3A    -11.311591
       4A    -11.256378     5A    -11.250733     6A    -11.248498
       7A    -11.248393     8A    -11.245447     9A    -11.242725
      10A    -11.235851    11A     -1.418457    12A     -1.313309
      13A     -1.158944    14A     -1.046897    15A     -1.025893
      16A     -0.935501    17A     -0.896344    18A     -0.856308
      19A     -0.811835    20A     -0.744219    21A     -0.689162
      22A     -0.658918    23A     -0.650536    24A     -0.620780
      25A     -0.599763    26A     -0.596262    27A     -0.590218
      28A     -0.581509    29A     -0.577457    30A     -0.558298
      31A     -0.536310    32A     -0.506640    33A     -0.497150
      34A     -0.480922    35A     -0.465750    36A     -0.411901
      37A     -0.346195    38A     -0.316926

    Virtual:

      39A      0.116791    40A      0.142709    41A      0.167669
      42A      0.179344    43A      0.193312    44A      0.211772
      45A      0.222710    46A      0.248759    47A      0.257339
      48A      0.269404    49A      0.276388    50A      0.281673
      51A      0.307122    52A      0.324985    53A      0.359797
      54A      0.362684    55A      0.404211    56A      0.440440
      57A      0.453555    58A      0.474039    59A      0.484022
      60A      0.501358    61A      0.592761    62A      0.619407
      63A      0.628179    64A      0.648292    65A      0.649832
      66A      0.658685    67A      0.677819    68A      0.693662
      69A      0.707945    70A      0.721377    71A      0.722831
      72A      0.735416    73A      0.737289    74A      0.764650
      75A      0.770385    76A      0.776905    77A      0.791204
      78A      0.810672    79A      0.827772    80A      0.840142
      81A      0.854974    82A      0.867603    83A      0.874627
      84A      0.877423    85A      0.884916    86A      0.894308
      87A      0.915141    88A      0.922205    89A      0.929168
      90A      0.936958    91A      0.940417    92A      0.949366
      93A      1.003700    94A      1.023100    95A      1.048269
      96A      1.108643    97A      1.127932    98A      1.129672
      99A      1.146038   100A      1.146804   101A      1.176508
     102A      1.192201   103A      1.199640   104A      1.226824
     105A      1.232105   106A      1.250064   107A      1.259588
     108A      1.287348   109A      1.300634   110A      1.309368
     111A      1.330395   112A      1.352733   113A      1.369870
     114A      1.386894   115A      1.413835   116A      1.473606
     117A      1.499651   118A      1.517037   119A      1.547368
     120A      1.553249   121A      1.602383   122A      1.662558
     123A      1.669155   124A      1.682926   125A      1.687091
     126A      1.692308   127A      1.718856   128A      1.726806
     129A      1.735740   130A      1.771257   131A      1.789063
     132A      1.799801   133A      1.852707   134A      1.866250
     135A      1.877923   136A      1.884054   137A      1.893907
     138A      1.898337   139A      1.911103   140A      1.924908
     141A      1.930142   142A      1.950425   143A      1.957379
     144A      1.971203   145A      1.973362   146A      1.984266
     147A      2.006566   148A      2.030009   149A      2.044019
     150A      2.053148   151A      2.062783   152A      2.086282
     153A      2.123711   154A      2.132590   155A      2.163522
     156A      2.170596   157A      2.188825   158A      2.223974
     159A      2.241165   160A      2.259749   161A      2.287842
     162A      2.306930   163A      2.340047   164A      2.362730
     165A      2.384967   166A      2.390550   167A      2.410629
     168A      2.446207   169A      2.463355   170A      2.487021
     171A      2.519607   172A      2.550784   173A      2.591720
     174A      2.610319   175A      2.715511   176A      2.729973
     177A      2.757980   178A      2.763264   179A      2.781044
     180A      2.790352   181A      2.805257   182A      2.831828
     183A      2.839400   184A      2.886616   185A      2.941659
     186A      2.992535   187A      3.063995   188A      3.099010
     189A      3.248734   190A      3.261497   191A      3.319560
     192A      3.333637   193A      3.411288   194A      3.470835
     195A      3.570412   196A      3.623981   197A      3.653585
     198A      3.935035   199A      4.134044   200A      4.172176

    Final Occupation by Irrep:
              A
    DOCC [    38 ]

  @RHF Final Energy:  -459.67468967440874

   => Energetics <=

    Nuclear Repulsion Energy =            498.3056985039680740
    One-Electron Energy =               -1613.8552375718763869
    Two-Electron Energy =                 655.8748493934997441
    Total Energy =                       -459.6746896744086825

Computation Completed

Properties will be evaluated at   0.000000,   0.000000,   0.000000 [a0]

Properties computed using the SCF density matrix

  Nuclear Dipole Moment: [e a0]
     X:     1.6336      Y:     1.6082      Z:     4.8744

  Electronic Dipole Moment: [e a0]
     X:    -0.4036      Y:    -0.8803      Z:    -5.1924

  Dipole Moment: [e a0]
     X:     1.2300      Y:     0.7279      Z:    -0.3180     Total:     1.4642

  Dipole Moment: [D]
     X:     3.1264      Y:     1.8500      Z:    -0.8083     Total:     3.7216

*** tstop() called on ds3 at Sun Apr 26 18:56:59 2020
Module time:
	user time   =      71.75 seconds =       1.20 minutes
	system time =      29.04 seconds =       0.48 minutes
	total time  =        131 seconds =       2.18 minutes
Total time:
	user time   =      71.75 seconds =       1.20 minutes
	system time =      29.04 seconds =       0.48 minutes
	total time  =        131 seconds =       2.18 minutes
                                     G D M A

                                 by Anthony Stone

                           version 2.2.06, 22 June 2011

               Distributed Multipoles from Gaussian wavefunctions

Starting at 18:57:0 on 26 Apr 2020

Using SCF density matrix from file ./SSI/SSI-029THR-121TYR-2-dimer.test.24112.fchk

                         Distributed Multipole Analysis

Standard DMA

Positions and radii in angstrom
Multipole moments in atomic units, ea_0^k for rank k

C          x = -2.521090  y = -2.278557  z =  1.923045 angstrom
           Maximum rank =  0   Radius =  0.650 angstrom
                   Q00  =  -0.036885

O          x = -2.739090  y = -2.622557  z =  0.557045 angstrom
           Maximum rank =  0   Radius =  0.650 angstrom
                   Q00  =  -0.657762

H          x = -2.140090  y = -2.075557  z =  0.016045 angstrom
           Maximum rank =  0   Radius =  0.325 angstrom
                   Q00  =   0.464136

H          x = -2.917090  y = -1.279557  z =  2.095045 angstrom
           Maximum rank =  0   Radius =  0.325 angstrom
                   Q00  =   0.057838

H          x = -3.053990  y = -3.001065  z =  2.558655 angstrom
           Maximum rank =  0   Radius =  0.325 angstrom
                   Q00  =   0.104679

H          x = -1.443070  y = -2.262049  z =  2.141235 angstrom
           Maximum rank =  0   Radius =  0.325 angstrom
                   Q00  =   0.061318

C          x =  2.729910  y =  2.754443  z =  0.478045 angstrom
           Maximum rank =  0   Radius =  0.650 angstrom
                   Q00  =  -0.202410

C          x = -0.148090  y = -0.226557  z = -0.735955 angstrom
           Maximum rank =  0   Radius =  0.650 angstrom
                   Q00  =   0.275467

C          x =  1.183910  y = -0.335557  z = -1.150955 angstrom
           Maximum rank =  0   Radius =  0.650 angstrom
                   Q00  =  -0.155516

C          x = -0.549090  y =  0.841443  z =  0.049045 angstrom
           Maximum rank =  0   Radius =  0.650 angstrom
                   Q00  =  -0.115154

C          x =  2.122910  y =  0.620443  z = -0.744955 angstrom
           Maximum rank =  0   Radius =  0.650 angstrom
                   Q00  =  -0.062870

C          x =  0.398910  y =  1.802443  z =  0.447045 angstrom
           Maximum rank =  0   Radius =  0.650 angstrom
                   Q00  =   0.039990

C          x =  1.739910  y =  1.677443  z =  0.084045 angstrom
           Maximum rank =  0   Radius =  0.650 angstrom
                   Q00  =  -0.118942

O          x = -1.091090  y = -1.129557  z = -1.146955 angstrom
           Maximum rank =  0   Radius =  0.650 angstrom
                   Q00  =  -0.689732

H          x = -0.780090  y = -1.638557  z = -1.924955 angstrom
           Maximum rank =  0   Radius =  0.325 angstrom
                   Q00  =   0.427454

H          x =  1.487910  y = -1.153557  z = -1.787955 angstrom
           Maximum rank =  0   Radius =  0.325 angstrom
                   Q00  =   0.078198

H          x = -1.582090  y =  0.931443  z =  0.349045 angstrom
           Maximum rank =  0   Radius =  0.325 angstrom
                   Q00  =   0.088100

H          x =  3.150910  y =  0.529443  z = -1.066955 angstrom
           Maximum rank =  0   Radius =  0.325 angstrom
                   Q00  =   0.072019

H          x =  0.083910  y =  2.641443  z =  1.046045 angstrom
           Maximum rank =  0   Radius =  0.325 angstrom
                   Q00  =   0.070292

H          x =  3.623910  y =  2.274443  z =  0.874045 angstrom
           Maximum rank =  0   Radius =  0.325 angstrom
                   Q00  =   0.098496

H          x =  2.308910  y =  3.374443  z =  1.270045 angstrom
           Maximum rank =  0   Radius =  0.325 angstrom
                   Q00  =   0.099364

H          x =  3.023060  y =  3.393783  z = -0.367715 angstrom
           Maximum rank =  0   Radius =  0.325 angstrom
                   Q00  =   0.101917

Total multipoles referred to origin at
           x =   0.000000,  y =    0.000000,  z =    0.000000 angstrom
                   Q00  =  -0.000000

Finished at 18:57:0 on 26 Apr 2020

  DMA results are available in the Python driver through the
	  variable('DMA DISTRIBUTED MULTIPOLES')
  and
	  variable('DMA TOTAL MULTIPOLES')
  commands.

    Psi4 stopped on: Sunday, 26 April 2020 06:57PM
    Psi4 wall time for execution: 0:02:11.56

*** Psi4 exiting successfully. Buy a developer a beer!
