                               Psi4 1.3.2 release

  ==> Input File <==

--------------------------------------------------------------------------
import numpy as np
set {scf_type pk
basis cc-pvdz
d_convergence 10
gdma_switch   0
gdma_limit    0
gdma_origin   [ 0.0,  0.0,  0.0 ]
}
molecule test {
    units Angstrom
    0 1
    --
    0 1
    C                2.825884912880018    -0.695216183755306    -0.617906132687282
    C                1.708884912880018    -1.507216183755306    -1.241906132687282
    O                1.953884912880018    -2.429216183755306    -2.017906132687282
    N                0.471884912880018    -1.170216183755306    -0.914906132687282
    H               -0.285115087119982    -1.690216183755306    -1.330906132687282
    H                0.281884912880018    -0.385216183755306    -0.294906132687282
    H                2.412884912880018     0.051783816244694     0.062093867312718
    H                3.315884912880018    -0.162216183755306    -1.433906132687282
    H                3.554484912880018    -1.321786183755306    -0.082596132687282
    C               -2.675115087119982     2.005783816244694     0.236093867312718
    C               -1.651115087119982     1.418783816244694     1.202093867312718
    O               -0.622115087119982     0.901783816244694     0.769093867312718
    N               -1.918115087119982     1.455783816244694     2.499093867312717
    H               -3.200115087119982     1.171783816244694    -0.226906132687282
    H               -2.152115087119982     2.529783816244694    -0.561906132687282
    H               -1.246115087119982     1.025783816244694     3.122093867312718
    H               -2.778115087119982     1.840783816244694     2.878093867312718
    H               -3.428335087119982     2.661443816244694     0.697353867312718

}
e, wfn = energy('scf', return_wfn=True)
gdma(wfn)
dmavals = variable('DMA DISTRIBUTED MULTIPOLES')
charges = np.array(dmavals)
print(charges)
np.save('SSI-015ASN-048GLN-1-dimer.npy', np.array(charges))--------------------------------------------------------------------------

*** tstart() called on ds3
*** at Mon Apr 27 17:26:31 2020

   => Loading Basis Set <=

    Name: CC-PVDZ
    Role: ORBITAL
    Keyword: BASIS
    atoms 1-2, 10-11 entry C          line   138 file /theoryfs2/ds/metcalf/miniconda2/envs/tf2gpu/share/psi4/basis/cc-pvdz.gbs
    atoms 3, 12      entry O          line   198 file /theoryfs2/ds/metcalf/miniconda2/envs/tf2gpu/share/psi4/basis/cc-pvdz.gbs
    atoms 4, 13      entry N          line   168 file /theoryfs2/ds/metcalf/miniconda2/envs/tf2gpu/share/psi4/basis/cc-pvdz.gbs
    atoms 5-9, 14-18 entry H          line    22 file /theoryfs2/ds/metcalf/miniconda2/envs/tf2gpu/share/psi4/basis/cc-pvdz.gbs

         ---------------------------------------------------------
                                   SCF
               by Justin Turney, Rob Parrish, Andy Simmonett
                          and Daniel G. A. Smith
                              RHF Reference
                        1 Threads,    500 MiB Core
         ---------------------------------------------------------

  ==> Geometry <==

    Molecular point group: c1
    Full point group: C1

    Geometry (in Angstrom), charge = 0, multiplicity = 1:

       Center              X                  Y                   Z               Mass
    ------------   -----------------  -----------------  -----------------  -----------------
         C            2.825884912880    -0.695216183755    -0.617906132687    12.000000000000
         C            1.708884912880    -1.507216183755    -1.241906132687    12.000000000000
         O            1.953884912880    -2.429216183755    -2.017906132687    15.994914619570
         N            0.471884912880    -1.170216183755    -0.914906132687    14.003074004430
         H           -0.285115087120    -1.690216183755    -1.330906132687     1.007825032230
         H            0.281884912880    -0.385216183755    -0.294906132687     1.007825032230
         H            2.412884912880     0.051783816245     0.062093867313     1.007825032230
         H            3.315884912880    -0.162216183755    -1.433906132687     1.007825032230
         H            3.554484912880    -1.321786183755    -0.082596132687     1.007825032230
         C           -2.675115087120     2.005783816245     0.236093867313    12.000000000000
         C           -1.651115087120     1.418783816245     1.202093867313    12.000000000000
         O           -0.622115087120     0.901783816245     0.769093867313    15.994914619570
         N           -1.918115087120     1.455783816245     2.499093867313    14.003074004430
         H           -3.200115087120     1.171783816245    -0.226906132687     1.007825032230
         H           -2.152115087120     2.529783816245    -0.561906132687     1.007825032230
         H           -1.246115087120     1.025783816245     3.122093867313     1.007825032230
         H           -2.778115087120     1.840783816245     2.878093867313     1.007825032230
         H           -3.428335087120     2.661443816245     0.697353867313     1.007825032230

  Running in c1 symmetry.

  Rotational constants: A =      0.15265  B =      0.01915  C =      0.01809 [cm^-1]
  Rotational constants: A =   4576.38438  B =    574.15906  C =    542.34937 [MHz]
  Nuclear repulsion =  353.619247452113427

  Charge       = 0
  Multiplicity = 1
  Electrons    = 64
  Nalpha       = 32
  Nbeta        = 32

  ==> Algorithm <==

  SCF Algorithm Type is PK.
  DIIS enabled.
  MOM disabled.
  Fractional occupation disabled.
  Guess Type is SAD.
  Energy threshold   = 1.00e-06
  Density threshold  = 1.00e-10
  Integral threshold = 0.00e+00

  ==> Primary Basis <==

  Basis Set: CC-PVDZ
    Blend: CC-PVDZ
    Number of shells: 78
    Number of basis function: 162
    Number of Cartesian functions: 170
    Spherical Harmonics?: true
    Max angular momentum: 2

  ==> Pre-Iterations <==

   -------------------------------------------------------
    Irrep   Nso     Nmo     Nalpha   Nbeta   Ndocc  Nsocc
   -------------------------------------------------------
     A        162     162       0       0       0       0
   -------------------------------------------------------
    Total     162     162      32      32      32       0
   -------------------------------------------------------

  ==> Integral Setup <==

  Using integral reordering PK algorithm.
  Sizing the integral batches needed.
  Building batch lookup table.
   Calculation information:
      Number of atoms:                  18
      Number of AO shells:              78
      Number of primitives:            226
      Number of atomic orbitals:       170
      Number of basis functions:       162

      Integral cutoff                 1.00e-12
      Number of threads:                 1

	Batch   1 pq = [       0,    9405] index = [             0,44231715] size =     44231715
	Batch   2 pq = [    9405,   13203] index = [      44231715,87166206] size =     42934491
  Task number: 8
  Buffer size: 11059200
  Buffer per thread: 2
  We computed 3304174 shell quartets total.
  Whereas there are 4747821 unique shell quartets.

  ==> DiskJK: Disk-Based J/K Matrices <==

    J tasked:                  Yes
    K tasked:                  Yes
    wK tasked:                  No
    Memory [MiB]:              375
    Schwarz Cutoff:          1E-12

    OpenMP threads:              1

  Minimum eigenvalue in the overlap matrix is 4.5255971973E-03.
  Using Symmetric Orthogonalization.

  SCF Guess: Superposition of Atomic Densities via on-the-fly atomic UHF.

  ==> Iterations <==

                        Total Energy        Delta E     RMS |[F,P]|

   @RHF iter SAD:  -414.53471361902962   -4.14535e+02   0.00000e+00
   @RHF iter   1:  -415.71692123235306   -1.18221e+00   4.60798e-03 DIIS
   @RHF iter   2:  -415.92700866480845   -2.10087e-01   2.64063e-03 DIIS
   @RHF iter   3:  -415.99224338831448   -6.52347e-02   4.99469e-04 DIIS
   @RHF iter   4:  -415.99625441645497   -4.01103e-03   1.93165e-04 DIIS
   @RHF iter   5:  -415.99693630948144   -6.81893e-04   3.54054e-05 DIIS
   @RHF iter   6:  -415.99698222019077   -4.59107e-05   1.78731e-05 DIIS
   @RHF iter   7:  -415.99699063480341   -8.41461e-06   6.53641e-06 DIIS
   @RHF iter   8:  -415.99699237444099   -1.73964e-06   1.93849e-06 DIIS
   @RHF iter   9:  -415.99699253051142   -1.56070e-07   5.07613e-07 DIIS
   @RHF iter  10:  -415.99699253730898   -6.79756e-09   2.66364e-07 DIIS
   @RHF iter  11:  -415.99699253849275   -1.18376e-09   4.36382e-08 DIIS
   @RHF iter  12:  -415.99699253855522   -6.24709e-11   1.05832e-08 DIIS
   @RHF iter  13:  -415.99699253855783   -2.61480e-12   2.44396e-09 DIIS
   @RHF iter  14:  -415.99699253856051   -2.67164e-12   1.04354e-09 DIIS
   @RHF iter  15:  -415.99699253855960    9.09495e-13   4.22255e-10 DIIS
   @RHF iter  16:  -415.99699253855789    1.70530e-12   1.44665e-10 DIIS
   @RHF iter  17:  -415.99699253855835   -4.54747e-13   6.07791e-11 DIIS
  Energy and wave function converged.

  ==> Post-Iterations <==

    Orbital Energies [Eh]
    ---------------------

    Doubly Occupied:

       1A    -20.533233     2A    -20.469994     3A    -15.614688
       4A    -15.547029     5A    -11.379282     6A    -11.315821
       7A    -11.262148     8A    -11.216757     9A     -1.398353
      10A     -1.335361    11A     -1.240281    12A     -1.179074
      13A     -1.018678    14A     -0.972188    15A     -0.827339
      16A     -0.765545    17A     -0.748388    18A     -0.702598
      19A     -0.672483    20A     -0.631754    21A     -0.624493
      22A     -0.597822    23A     -0.584536    24A     -0.577697
      25A     -0.544523    26A     -0.534041    27A     -0.529695
      28A     -0.492339    29A     -0.442351    30A     -0.433126
      31A     -0.379027    32A     -0.368213

    Virtual:

      33A      0.147926    34A      0.174802    35A      0.197370
      36A      0.206749    37A      0.214035    38A      0.228368
      39A      0.243679    40A      0.250856    41A      0.268032
      42A      0.274181    43A      0.306370    44A      0.354986
      45A      0.364693    46A      0.412581    47A      0.482352
      48A      0.489380    49A      0.537027    50A      0.602083
      51A      0.616303    52A      0.655340    53A      0.660312
      54A      0.665383    55A      0.690851    56A      0.703504
      57A      0.715545    58A      0.723411    59A      0.726786
      60A      0.742757    61A      0.767106    62A      0.772517
      63A      0.826452    64A      0.844284    65A      0.871519
      66A      0.877216    67A      0.882832    68A      0.891478
      69A      0.909107    70A      0.918780    71A      0.944041
      72A      0.964162    73A      0.981716    74A      0.990120
      75A      1.024506    76A      1.036861    77A      1.044682
      78A      1.088936    79A      1.108228    80A      1.151791
      81A      1.165215    82A      1.237337    83A      1.299283
      84A      1.316223    85A      1.350884    86A      1.384544
      87A      1.396328    88A      1.398561    89A      1.405173
      90A      1.414619    91A      1.420300    92A      1.451195
      93A      1.463525    94A      1.486844    95A      1.510558
      96A      1.595048    97A      1.620133    98A      1.644492
      99A      1.662678   100A      1.684569   101A      1.690978
     102A      1.746010   103A      1.799211   104A      1.810623
     105A      1.855696   106A      1.864285   107A      1.880639
     108A      1.888114   109A      1.890973   110A      1.908608
     111A      1.922393   112A      1.940555   113A      1.956356
     114A      1.961342   115A      1.973011   116A      2.011504
     117A      2.033591   118A      2.051398   119A      2.094664
     120A      2.099849   121A      2.144730   122A      2.199995
     123A      2.244719   124A      2.272238   125A      2.294604
     126A      2.343586   127A      2.371113   128A      2.424066
     129A      2.434545   130A      2.444154   131A      2.461204
     132A      2.496180   133A      2.514039   134A      2.547135
     135A      2.598161   136A      2.606734   137A      2.641914
     138A      2.682091   139A      2.722326   140A      2.727122
     141A      2.770685   142A      2.788035   143A      2.799727
     144A      2.825040   145A      2.838156   146A      2.869494
     147A      2.958340   148A      3.010217   149A      3.054528
     150A      3.096127   151A      3.125001   152A      3.159870
     153A      3.231993   154A      3.336096   155A      3.471984
     156A      3.503232   157A      3.546254   158A      3.558059
     159A      3.844856   160A      3.895130   161A      3.933660
     162A      3.936854

    Final Occupation by Irrep:
              A
    DOCC [    32 ]

  @RHF Final Energy:  -415.99699253855835

   => Energetics <=

    Nuclear Repulsion Energy =            353.6192474521134272
    One-Electron Energy =               -1269.3547691219491753
    Two-Electron Energy =                 499.7385291312774029
    Total Energy =                       -415.9969925385583451

Computation Completed

Properties will be evaluated at   0.000000,   0.000000,   0.000000 [a0]

Properties computed using the SCF density matrix

  Nuclear Dipole Moment: [e a0]
     X:    -3.2938      Y:     5.3560      Z:     2.6410

  Electronic Dipole Moment: [e a0]
     X:     0.9511      Y:    -3.2355      Z:    -0.4898

  Dipole Moment: [e a0]
     X:    -2.3426      Y:     2.1205      Z:     2.1512     Total:     3.8226

  Dipole Moment: [D]
     X:    -5.9544      Y:     5.3897      Z:     5.4678     Total:     9.7160

*** tstop() called on ds3 at Mon Apr 27 17:27:11 2020
Module time:
	user time   =      26.57 seconds =       0.44 minutes
	system time =      14.06 seconds =       0.23 minutes
	total time  =         40 seconds =       0.67 minutes
Total time:
	user time   =      26.57 seconds =       0.44 minutes
	system time =      14.06 seconds =       0.23 minutes
	total time  =         40 seconds =       0.67 minutes
                                     G D M A

                                 by Anthony Stone

                           version 2.2.06, 22 June 2011

               Distributed Multipoles from Gaussian wavefunctions

Starting at 17:27:11 on 27 Apr 2020

Using SCF density matrix from file ./SSI/SSI-015ASN-048GLN-1-dimer.test.21202.fchk

                         Distributed Multipole Analysis

Standard DMA

Positions and radii in angstrom
Multipole moments in atomic units, ea_0^k for rank k

C          x =  2.825885  y = -0.695216  z = -0.617906 angstrom
           Maximum rank =  0   Radius =  0.650 angstrom
                   Q00  =  -0.265007

C          x =  1.708885  y = -1.507216  z = -1.241906 angstrom
           Maximum rank =  0   Radius =  0.650 angstrom
                   Q00  =   0.826893

O          x =  1.953885  y = -2.429216  z = -2.017906 angstrom
           Maximum rank =  0   Radius =  0.650 angstrom
                   Q00  =  -0.826579

N          x =  0.471885  y = -1.170216  z = -0.914906 angstrom
           Maximum rank =  0   Radius =  0.650 angstrom
                   Q00  =  -0.551464

H          x = -0.285115  y = -1.690216  z = -1.330906 angstrom
           Maximum rank =  0   Radius =  0.325 angstrom
                   Q00  =   0.199581

H          x =  0.281885  y = -0.385216  z = -0.294906 angstrom
           Maximum rank =  0   Radius =  0.325 angstrom
                   Q00  =   0.265251

H          x =  2.412885  y =  0.051784  z =  0.062094 angstrom
           Maximum rank =  0   Radius =  0.325 angstrom
                   Q00  =   0.084566

H          x =  3.315885  y = -0.162216  z = -1.433906 angstrom
           Maximum rank =  0   Radius =  0.325 angstrom
                   Q00  =   0.122592

H          x =  3.554485  y = -1.321786  z = -0.082596 angstrom
           Maximum rank =  0   Radius =  0.325 angstrom
                   Q00  =   0.123755

C          x = -2.675115  y =  2.005784  z =  0.236094 angstrom
           Maximum rank =  0   Radius =  0.650 angstrom
                   Q00  =  -0.270809

C          x = -1.651115  y =  1.418784  z =  1.202094 angstrom
           Maximum rank =  0   Radius =  0.650 angstrom
                   Q00  =   0.814524

O          x = -0.622115  y =  0.901784  z =  0.769094 angstrom
           Maximum rank =  0   Radius =  0.650 angstrom
                   Q00  =  -0.803808

N          x = -1.918115  y =  1.455784  z =  2.499094 angstrom
           Maximum rank =  0   Radius =  0.650 angstrom
                   Q00  =  -0.527957

H          x = -3.200115  y =  1.171784  z = -0.226906 angstrom
           Maximum rank =  0   Radius =  0.325 angstrom
                   Q00  =   0.136132

H          x = -2.152115  y =  2.529784  z = -0.561906 angstrom
           Maximum rank =  0   Radius =  0.325 angstrom
                   Q00  =   0.138086

H          x = -1.246115  y =  1.025784  z =  3.122094 angstrom
           Maximum rank =  0   Radius =  0.325 angstrom
                   Q00  =   0.224226

H          x = -2.778115  y =  1.840784  z =  2.878094 angstrom
           Maximum rank =  0   Radius =  0.325 angstrom
                   Q00  =   0.220697

H          x = -3.428335  y =  2.661444  z =  0.697354 angstrom
           Maximum rank =  0   Radius =  0.325 angstrom
                   Q00  =   0.089323

Total multipoles referred to origin at
           x =   0.000000,  y =    0.000000,  z =    0.000000 angstrom
                   Q00  =  -0.000000

Finished at 17:27:11 on 27 Apr 2020

  DMA results are available in the Python driver through the
	  variable('DMA DISTRIBUTED MULTIPOLES')
  and
	  variable('DMA TOTAL MULTIPOLES')
  commands.

    Psi4 stopped on: Monday, 27 April 2020 05:27PM
    Psi4 wall time for execution: 0:00:39.88

*** Psi4 exiting successfully. Buy a developer a beer!
