                               Psi4 1.3.2 release

  ==> Input File <==

--------------------------------------------------------------------------
import numpy as np
set {scf_type pk
basis cc-pvdz
d_convergence 10
gdma_switch   0
gdma_limit    0
gdma_origin   [ 0.0,  0.0,  0.0 ]
}
molecule test {
    units Angstrom
    0 1
    --
    0 1
    C               -0.717764732121989     1.990479008075094     1.211397129052120
    C               -1.674764732121989     3.166479008075095     1.140397129052120
    H                0.104235267878011     2.096479008075094     0.504397129052120
    H               -0.296764732121989     1.922479008075094     2.215397129052121
    H               -1.286764732121989     1.088479008075094     1.010397129052120
    H               -1.110764732121989     4.059479008075095     1.414397129052120
    H               -2.076043732121989     3.298339008075094     0.124727129052120
    H               -2.487054732121989     3.038149008075095     1.870956129052121
    C                0.369235267878011    -1.126520991924906    -0.433602870947880
    C                0.355235267878011    -2.537520991924905     0.187397129052120
    C                1.740235267878011    -0.475520991924905    -0.262602870947880
    C               -0.023764732121989    -1.172520991924906    -1.908602870947880
    H               -0.353764732121989    -0.514520991924906     0.081397129052120
    H                1.131235267878011    -3.130520991924906    -0.301602870947880
    H                2.497235267878011    -1.086520991924905    -0.751602870947880
    H                1.739235267878011     0.521479008075095    -0.704602870947880
    H                1.981235267878011    -0.391520991924906     0.792397129052120
    H               -1.089764732121989    -1.369520991924905    -1.986602870947879
    H                0.169235267878011    -0.210520991924906    -2.371602870947880
    H                0.528235267878011    -1.952520991924906    -2.428602870947879
    H               -0.618504732121989    -3.030782991924905     0.051297129052120
    H                0.592351267878011    -2.491394991924905     1.260547129052120

}
e, wfn = energy('scf', return_wfn=True)
gdma(wfn)
dmavals = variable('DMA DISTRIBUTED MULTIPOLES')
charges = np.array(dmavals)
print(charges)
np.save('SSI-024VAL-142VAL-1-dimer.npy', np.array(charges))--------------------------------------------------------------------------

*** tstart() called on ds3
*** at Tue Apr 28 09:31:01 2020

   => Loading Basis Set <=

    Name: CC-PVDZ
    Role: ORBITAL
    Keyword: BASIS
    atoms 1-2, 9-12  entry C          line   138 file /theoryfs2/ds/metcalf/miniconda2/envs/tf2gpu/share/psi4/basis/cc-pvdz.gbs
    atoms 3-8, 13-22 entry H          line    22 file /theoryfs2/ds/metcalf/miniconda2/envs/tf2gpu/share/psi4/basis/cc-pvdz.gbs

         ---------------------------------------------------------
                                   SCF
               by Justin Turney, Rob Parrish, Andy Simmonett
                          and Daniel G. A. Smith
                              RHF Reference
                        1 Threads,    500 MiB Core
         ---------------------------------------------------------

  ==> Geometry <==

    Molecular point group: c1
    Full point group: C1

    Geometry (in Angstrom), charge = 0, multiplicity = 1:

       Center              X                  Y                   Z               Mass
    ------------   -----------------  -----------------  -----------------  -----------------
         C           -0.717764732122     1.990479008075     1.211397129052    12.000000000000
         C           -1.674764732122     3.166479008075     1.140397129052    12.000000000000
         H            0.104235267878     2.096479008075     0.504397129052     1.007825032230
         H           -0.296764732122     1.922479008075     2.215397129052     1.007825032230
         H           -1.286764732122     1.088479008075     1.010397129052     1.007825032230
         H           -1.110764732122     4.059479008075     1.414397129052     1.007825032230
         H           -2.076043732122     3.298339008075     0.124727129052     1.007825032230
         H           -2.487054732122     3.038149008075     1.870956129052     1.007825032230
         C            0.369235267878    -1.126520991925    -0.433602870948    12.000000000000
         C            0.355235267878    -2.537520991925     0.187397129052    12.000000000000
         C            1.740235267878    -0.475520991925    -0.262602870948    12.000000000000
         C           -0.023764732122    -1.172520991925    -1.908602870948    12.000000000000
         H           -0.353764732122    -0.514520991925     0.081397129052     1.007825032230
         H            1.131235267878    -3.130520991925    -0.301602870948     1.007825032230
         H            2.497235267878    -1.086520991925    -0.751602870948     1.007825032230
         H            1.739235267878     0.521479008075    -0.704602870948     1.007825032230
         H            1.981235267878    -0.391520991925     0.792397129052     1.007825032230
         H           -1.089764732122    -1.369520991925    -1.986602870948     1.007825032230
         H            0.169235267878    -0.210520991925    -2.371602870948     1.007825032230
         H            0.528235267878    -1.952520991925    -2.428602870948     1.007825032230
         H           -0.618504732122    -3.030782991925     0.051297129052     1.007825032230
         H            0.592351267878    -2.491394991925     1.260547129052     1.007825032230

  Running in c1 symmetry.

  Rotational constants: A =      0.14852  B =      0.03260  C =      0.03185 [cm^-1]
  Rotational constants: A =   4452.53608  B =    977.30154  C =    954.85447 [MHz]
  Nuclear repulsion =  245.825577991511693

  Charge       = 0
  Multiplicity = 1
  Electrons    = 52
  Nalpha       = 26
  Nbeta        = 26

  ==> Algorithm <==

  SCF Algorithm Type is PK.
  DIIS enabled.
  MOM disabled.
  Fractional occupation disabled.
  Guess Type is SAD.
  Energy threshold   = 1.00e-06
  Density threshold  = 1.00e-10
  Integral threshold = 0.00e+00

  ==> Primary Basis <==

  Basis Set: CC-PVDZ
    Blend: CC-PVDZ
    Number of shells: 84
    Number of basis function: 164
    Number of Cartesian functions: 170
    Spherical Harmonics?: true
    Max angular momentum: 2

  ==> Pre-Iterations <==

   -------------------------------------------------------
    Irrep   Nso     Nmo     Nalpha   Nbeta   Ndocc  Nsocc
   -------------------------------------------------------
     A        164     164       0       0       0       0
   -------------------------------------------------------
    Total     164     164      26      26      26       0
   -------------------------------------------------------

  ==> Integral Setup <==

  Using integral reordering PK algorithm.
  Sizing the integral batches needed.
  Building batch lookup table.
   Calculation information:
      Number of atoms:                  22
      Number of AO shells:              84
      Number of primitives:            212
      Number of atomic orbitals:       170
      Number of basis functions:       164

      Integral cutoff                 1.00e-12
      Number of threads:                 1

	Batch   1 pq = [       0,    9405] index = [             0,44231715] size =     44231715
	Batch   2 pq = [    9405,   13530] index = [      44231715,91537215] size =     47305500
  Task number: 9
  Buffer size: 11059200
  Buffer per thread: 2
  We computed 5722975 shell quartets total.
  Whereas there are 6374235 unique shell quartets.

  ==> DiskJK: Disk-Based J/K Matrices <==

    J tasked:                  Yes
    K tasked:                  Yes
    wK tasked:                  No
    Memory [MiB]:              375
    Schwarz Cutoff:          1E-12

    OpenMP threads:              1

  Minimum eigenvalue in the overlap matrix is 4.5495943977E-03.
  Using Symmetric Orthogonalization.

  SCF Guess: Superposition of Atomic Densities via on-the-fly atomic UHF.

  ==> Iterations <==

                        Total Energy        Delta E     RMS |[F,P]|

   @RHF iter SAD:  -235.45819324819948   -2.35458e+02   0.00000e+00
   @RHF iter   1:  -236.31038269857083   -8.52189e-01   3.54054e-03 DIIS
   @RHF iter   2:  -236.50195462221379   -1.91572e-01   1.52632e-03 DIIS
   @RHF iter   3:  -236.53559615383301   -3.36415e-02   3.13303e-04 DIIS
   @RHF iter   4:  -236.53821071095419   -2.61456e-03   6.83146e-05 DIIS
   @RHF iter   5:  -236.53829360316601   -8.28922e-05   1.56645e-05 DIIS
   @RHF iter   6:  -236.53829902383109   -5.42067e-06   2.67060e-06 DIIS
   @RHF iter   7:  -236.53829919867488   -1.74844e-07   6.34140e-07 DIIS
   @RHF iter   8:  -236.53829920998871   -1.13138e-08   1.55859e-07 DIIS
   @RHF iter   9:  -236.53829921069143   -7.02727e-10   4.57966e-08 DIIS
   @RHF iter  10:  -236.53829921076371   -7.22764e-11   1.03540e-08 DIIS
   @RHF iter  11:  -236.53829921076778   -4.06430e-12   2.11280e-09 DIIS
   @RHF iter  12:  -236.53829921076783   -5.68434e-14   4.18492e-10 DIIS
   @RHF iter  13:  -236.53829921076738    4.54747e-13   1.02368e-10 DIIS
   @RHF iter  14:  -236.53829921076704    3.41061e-13   2.61370e-11 DIIS
  Energy and wave function converged.

  ==> Post-Iterations <==

    Orbital Energies [Eh]
    ---------------------

    Doubly Occupied:

       1A    -11.219145     2A    -11.219043     3A    -11.216272
       4A    -11.215707     5A    -11.211219     6A    -11.210656
       7A     -1.079904     8A     -1.022692     9A     -0.926606
      10A     -0.923432    11A     -0.836713    12A     -0.764132
      13A     -0.631276    14A     -0.603059    15A     -0.599849
      16A     -0.589273    17A     -0.584405    18A     -0.538315
      19A     -0.530035    20A     -0.508639    21A     -0.503317
      22A     -0.487556    23A     -0.486790    24A     -0.456215
      25A     -0.454970    26A     -0.452164

    Virtual:

      27A      0.169285    28A      0.193799    29A      0.217681
      30A      0.223134    31A      0.228100    32A      0.248280
      33A      0.257948    34A      0.259229    35A      0.265845
      36A      0.269973    37A      0.284139    38A      0.296847
      39A      0.308231    40A      0.316886    41A      0.342413
      42A      0.342910    43A      0.379047    44A      0.398865
      45A      0.412334    46A      0.419231    47A      0.560076
      48A      0.568603    49A      0.595610    50A      0.599928
      51A      0.608949    52A      0.612913    53A      0.626896
      54A      0.668889    55A      0.678170    56A      0.733872
      57A      0.784025    58A      0.785381    59A      0.797289
      60A      0.830883    61A      0.845118    62A      0.861795
      63A      0.878900    64A      0.892287    65A      0.893084
      66A      0.895486    67A      0.900992    68A      0.904318
      69A      0.910004    70A      0.912329    71A      0.916017
      72A      0.925634    73A      0.936865    74A      0.953592
      75A      0.959462    76A      0.966567    77A      0.973262
      78A      0.990971    79A      1.011254    80A      1.032071
      81A      1.121853    82A      1.130088    83A      1.132541
      84A      1.150228    85A      1.226062    86A      1.260355
      87A      1.377787    88A      1.396734    89A      1.415010
      90A      1.473183    91A      1.506612    92A      1.539113
      93A      1.552789    94A      1.585152    95A      1.657541
      96A      1.662388    97A      1.677345    98A      1.685733
      99A      1.690822   100A      1.699079   101A      1.705448
     102A      1.726499   103A      1.739165   104A      1.835691
     105A      1.846010   106A      1.852683   107A      1.869232
     108A      1.885477   109A      1.914906   110A      1.927238
     111A      1.933536   112A      1.936801   113A      1.947378
     114A      1.951104   115A      1.955641   116A      1.968555
     117A      1.976043   118A      1.982663   119A      1.984440
     120A      2.005350   121A      2.012735   122A      2.049069
     123A      2.059690   124A      2.082622   125A      2.093997
     126A      2.116512   127A      2.138269   128A      2.147499
     129A      2.151863   130A      2.248528   131A      2.266781
     132A      2.297346   133A      2.300031   134A      2.312858
     135A      2.328615   136A      2.339813   137A      2.374678
     138A      2.377819   139A      2.457239   140A      2.481727
     141A      2.490645   142A      2.553502   143A      2.583203
     144A      2.587508   145A      2.603225   146A      2.647415
     147A      2.705934   148A      2.726433   149A      2.761191
     150A      2.762765   151A      2.786544   152A      2.797266
     153A      2.800492   154A      2.818118   155A      2.832181
     156A      2.844655   157A      2.855565   158A      2.859408
     159A      2.864480   160A      2.954314   161A      2.975979
     162A      3.016952   163A      3.026628   164A      3.161642

    Final Occupation by Irrep:
              A
    DOCC [    26 ]

  @RHF Final Energy:  -236.53829921076704

   => Energetics <=

    Nuclear Repulsion Energy =            245.8255779915116932
    One-Electron Energy =                -804.1849849586465098
    Two-Electron Energy =                 321.8211077563678373
    Total Energy =                       -236.5382992107670361

Computation Completed

Properties will be evaluated at   0.000000,   0.000000,   0.000000 [a0]

Properties computed using the SCF density matrix

  Nuclear Dipole Moment: [e a0]
     X:    -0.5404      Y:     1.7316      Z:     0.7324

  Electronic Dipole Moment: [e a0]
     X:     0.5036      Y:    -1.6760      Z:    -0.6875

  Dipole Moment: [e a0]
     X:    -0.0368      Y:     0.0556      Z:     0.0450     Total:     0.0804

  Dipole Moment: [D]
     X:    -0.0934      Y:     0.1413      Z:     0.1143     Total:     0.2044

*** tstop() called on ds3 at Tue Apr 28 09:31:55 2020
Module time:
	user time   =      31.15 seconds =       0.52 minutes
	system time =      12.15 seconds =       0.20 minutes
	total time  =         54 seconds =       0.90 minutes
Total time:
	user time   =      31.15 seconds =       0.52 minutes
	system time =      12.15 seconds =       0.20 minutes
	total time  =         54 seconds =       0.90 minutes
                                     G D M A

                                 by Anthony Stone

                           version 2.2.06, 22 June 2011

               Distributed Multipoles from Gaussian wavefunctions

Starting at 9:31:55 on 28 Apr 2020

Using SCF density matrix from file ./SSI/SSI-024VAL-142VAL-1-dimer.test.10697.fchk

                         Distributed Multipole Analysis

Standard DMA

Positions and radii in angstrom
Multipole moments in atomic units, ea_0^k for rank k

C          x = -0.717765  y =  1.990479  z =  1.211397 angstrom
           Maximum rank =  0   Radius =  0.650 angstrom
                   Q00  =  -0.235000

C          x = -1.674765  y =  3.166479  z =  1.140397 angstrom
           Maximum rank =  0   Radius =  0.650 angstrom
                   Q00  =  -0.227200

H          x =  0.104235  y =  2.096479  z =  0.504397 angstrom
           Maximum rank =  0   Radius =  0.325 angstrom
                   Q00  =   0.080810

H          x = -0.296765  y =  1.922479  z =  2.215397 angstrom
           Maximum rank =  0   Radius =  0.325 angstrom
                   Q00  =   0.079065

H          x = -1.286765  y =  1.088479  z =  1.010397 angstrom
           Maximum rank =  0   Radius =  0.325 angstrom
                   Q00  =   0.073181

H          x = -1.110765  y =  4.059479  z =  1.414397 angstrom
           Maximum rank =  0   Radius =  0.325 angstrom
                   Q00  =   0.074479

H          x = -2.076044  y =  3.298339  z =  0.124727 angstrom
           Maximum rank =  0   Radius =  0.325 angstrom
                   Q00  =   0.079535

H          x = -2.487055  y =  3.038149  z =  1.870956 angstrom
           Maximum rank =  0   Radius =  0.325 angstrom
                   Q00  =   0.079395

C          x =  0.369235  y = -1.126521  z = -0.433603 angstrom
           Maximum rank =  0   Radius =  0.650 angstrom
                   Q00  =  -0.000049

C          x =  0.355235  y = -2.537521  z =  0.187397 angstrom
           Maximum rank =  0   Radius =  0.650 angstrom
                   Q00  =  -0.238487

C          x =  1.740235  y = -0.475521  z = -0.262603 angstrom
           Maximum rank =  0   Radius =  0.650 angstrom
                   Q00  =  -0.244091

C          x = -0.023765  y = -1.172521  z = -1.908603 angstrom
           Maximum rank =  0   Radius =  0.650 angstrom
                   Q00  =  -0.246159

H          x = -0.353765  y = -0.514521  z =  0.081397 angstrom
           Maximum rank =  0   Radius =  0.325 angstrom
                   Q00  =   0.017423

H          x =  1.131235  y = -3.130521  z = -0.301603 angstrom
           Maximum rank =  0   Radius =  0.325 angstrom
                   Q00  =   0.075161

H          x =  2.497235  y = -1.086521  z = -0.751603 angstrom
           Maximum rank =  0   Radius =  0.325 angstrom
                   Q00  =   0.074382

H          x =  1.739235  y =  0.521479  z = -0.704603 angstrom
           Maximum rank =  0   Radius =  0.325 angstrom
                   Q00  =   0.079833

H          x =  1.981235  y = -0.391521  z =  0.792397 angstrom
           Maximum rank =  0   Radius =  0.325 angstrom
                   Q00  =   0.080790

H          x = -1.089765  y = -1.369521  z = -1.986603 angstrom
           Maximum rank =  0   Radius =  0.325 angstrom
                   Q00  =   0.078995

H          x =  0.169235  y = -0.210521  z = -2.371603 angstrom
           Maximum rank =  0   Radius =  0.325 angstrom
                   Q00  =   0.078399

H          x =  0.528235  y = -1.952521  z = -2.428603 angstrom
           Maximum rank =  0   Radius =  0.325 angstrom
                   Q00  =   0.077355

H          x = -0.618505  y = -3.030783  z =  0.051297 angstrom
           Maximum rank =  0   Radius =  0.325 angstrom
                   Q00  =   0.081580

H          x =  0.592351  y = -2.491395  z =  1.260547 angstrom
           Maximum rank =  0   Radius =  0.325 angstrom
                   Q00  =   0.080601

Total multipoles referred to origin at
           x =   0.000000,  y =    0.000000,  z =    0.000000 angstrom
                   Q00  =  -0.000000

Finished at 9:31:55 on 28 Apr 2020

  DMA results are available in the Python driver through the
	  variable('DMA DISTRIBUTED MULTIPOLES')
  and
	  variable('DMA TOTAL MULTIPOLES')
  commands.

    Psi4 stopped on: Tuesday, 28 April 2020 09:31AM
    Psi4 wall time for execution: 0:00:54.19

*** Psi4 exiting successfully. Buy a developer a beer!
