                               Psi4 1.3.2 release

  ==> Input File <==

--------------------------------------------------------------------------
import numpy as np
set {scf_type pk
basis cc-pvdz
d_convergence 10
gdma_switch   0
gdma_limit    0
gdma_origin   [ 0.0,  0.0,  0.0 ]
}
molecule test {
    units Angstrom
    0 1
    --
    0 1
    C                0.014920501466122     0.926751133200096     1.144305566970848
    C               -1.387079498533878     1.517751133200096     1.295305566970848
    C                0.974920501466122     1.105751133200096     2.333305566970848
    H               -0.085079498533878    -0.141248866799904     0.944305566970848
    H                0.482920501466122     1.374751133200096     0.268305566970848
    H               -1.938079498533877     0.919751133200096     2.022305566970848
    H                1.052920501466122     2.167751133200096     2.549305566970848
    H               -1.899219498533878     1.507131133200096     0.321858666970848
    H               -1.321129498533878     2.551951133200096     1.664196566970848
    H                0.629250501466122     0.618641133200096     3.257013566970848
    H                1.991620501466122     0.778491133200096     2.070217566970848
    C                0.468920501466122    -1.333248866799904    -1.763694433029152
    C               -0.077079498533878    -2.155248866799904    -2.927694433029153
    H                0.001920501466122    -0.346248866799904    -1.749694433029152
    H                0.239920501466122    -1.844248866799904    -0.826694433029152
    H                1.550920501466122    -1.231248866799904    -1.850694433029152
    H                0.379920501466122    -3.143248866799904    -2.890694433029152
    H                0.147460501466122    -1.680908866799904    -3.894431433029153
    H               -1.169079498533878    -2.266628866799904    -2.856037433029152

}
e, wfn = energy('scf', return_wfn=True)
gdma(wfn)
dmavals = variable('DMA DISTRIBUTED MULTIPOLES')
charges = np.array(dmavals)
print(charges)
np.save('SSI-043LEU-055THR-1-dimer.npy', np.array(charges))--------------------------------------------------------------------------

*** tstart() called on ds3
*** at Mon Apr 27 18:38:21 2020

   => Loading Basis Set <=

    Name: CC-PVDZ
    Role: ORBITAL
    Keyword: BASIS
    atoms 1-3, 12-13  entry C          line   138 file /theoryfs2/ds/metcalf/miniconda2/envs/tf2gpu/share/psi4/basis/cc-pvdz.gbs
    atoms 4-11, 14-19 entry H          line    22 file /theoryfs2/ds/metcalf/miniconda2/envs/tf2gpu/share/psi4/basis/cc-pvdz.gbs

         ---------------------------------------------------------
                                   SCF
               by Justin Turney, Rob Parrish, Andy Simmonett
                          and Daniel G. A. Smith
                              RHF Reference
                        1 Threads,    500 MiB Core
         ---------------------------------------------------------

  ==> Geometry <==

    Molecular point group: c1
    Full point group: C1

    Geometry (in Angstrom), charge = 0, multiplicity = 1:

       Center              X                  Y                   Z               Mass
    ------------   -----------------  -----------------  -----------------  -----------------
         C            0.014920501466     0.926751133200     1.144305566971    12.000000000000
         C           -1.387079498534     1.517751133200     1.295305566971    12.000000000000
         C            0.974920501466     1.105751133200     2.333305566971    12.000000000000
         H           -0.085079498534    -0.141248866800     0.944305566971     1.007825032230
         H            0.482920501466     1.374751133200     0.268305566971     1.007825032230
         H           -1.938079498534     0.919751133200     2.022305566971     1.007825032230
         H            1.052920501466     2.167751133200     2.549305566971     1.007825032230
         H           -1.899219498534     1.507131133200     0.321858666971     1.007825032230
         H           -1.321129498534     2.551951133200     1.664196566971     1.007825032230
         H            0.629250501466     0.618641133200     3.257013566971     1.007825032230
         H            1.991620501466     0.778491133200     2.070217566971     1.007825032230
         C            0.468920501466    -1.333248866800    -1.763694433029    12.000000000000
         C           -0.077079498534    -2.155248866800    -2.927694433029    12.000000000000
         H            0.001920501466    -0.346248866800    -1.749694433029     1.007825032230
         H            0.239920501466    -1.844248866800    -0.826694433029     1.007825032230
         H            1.550920501466    -1.231248866800    -1.850694433029     1.007825032230
         H            0.379920501466    -3.143248866800    -2.890694433029     1.007825032230
         H            0.147460501466    -1.680908866800    -3.894431433029     1.007825032230
         H           -1.169079498534    -2.266628866800    -2.856037433029     1.007825032230

  Running in c1 symmetry.

  Rotational constants: A =      0.23865  B =      0.03555  C =      0.03193 [cm^-1]
  Rotational constants: A =   7154.60037  B =   1065.86066  C =    957.31814 [MHz]
  Nuclear repulsion =  174.823590798370446

  Charge       = 0
  Multiplicity = 1
  Electrons    = 44
  Nalpha       = 22
  Nbeta        = 22

  ==> Algorithm <==

  SCF Algorithm Type is PK.
  DIIS enabled.
  MOM disabled.
  Fractional occupation disabled.
  Guess Type is SAD.
  Energy threshold   = 1.00e-06
  Density threshold  = 1.00e-10
  Integral threshold = 0.00e+00

  ==> Primary Basis <==

  Basis Set: CC-PVDZ
    Blend: CC-PVDZ
    Number of shells: 72
    Number of basis function: 140
    Number of Cartesian functions: 145
    Spherical Harmonics?: true
    Max angular momentum: 2

  ==> Pre-Iterations <==

   -------------------------------------------------------
    Irrep   Nso     Nmo     Nalpha   Nbeta   Ndocc  Nsocc
   -------------------------------------------------------
     A        140     140       0       0       0       0
   -------------------------------------------------------
    Total     140     140      22      22      22       0
   -------------------------------------------------------

  ==> Integral Setup <==

  Using integral reordering PK algorithm.
  Sizing the integral batches needed.
  Building batch lookup table.
   Calculation information:
      Number of atoms:                  19
      Number of AO shells:              72
      Number of primitives:            180
      Number of atomic orbitals:       145
      Number of basis functions:       140

      Integral cutoff                 1.00e-12
      Number of threads:                 1

	Batch   1 pq = [       0,    9405] index = [             0,44231715] size =     44231715
	Batch   2 pq = [    9405,    9870] index = [      44231715,48713385] size =      4481670
  Task number: 5
  Buffer size: 11059200
  Buffer per thread: 2
  We computed 2700752 shell quartets total.
  Whereas there are 3454506 unique shell quartets.

  ==> DiskJK: Disk-Based J/K Matrices <==

    J tasked:                  Yes
    K tasked:                  Yes
    wK tasked:                  No
    Memory [MiB]:              375
    Schwarz Cutoff:          1E-12

    OpenMP threads:              1

  Minimum eigenvalue in the overlap matrix is 5.5214256616E-03.
  Using Symmetric Orthogonalization.

  SCF Guess: Superposition of Atomic Densities via on-the-fly atomic UHF.

  ==> Iterations <==

                        Total Energy        Delta E     RMS |[F,P]|

   @RHF iter SAD:  -196.32572774619200   -1.96326e+02   0.00000e+00
   @RHF iter   1:  -197.31278441747168   -9.87057e-01   3.78389e-03 DIIS
   @RHF iter   2:  -197.47203047043914   -1.59246e-01   1.62617e-03 DIIS
   @RHF iter   3:  -197.50001490212526   -2.79844e-02   3.24761e-04 DIIS
   @RHF iter   4:  -197.50223414143164   -2.21924e-03   4.89758e-05 DIIS
   @RHF iter   5:  -197.50227335802307   -3.92166e-05   1.47962e-05 DIIS
   @RHF iter   6:  -197.50227671265444   -3.35463e-06   2.44939e-06 DIIS
   @RHF iter   7:  -197.50227682035870   -1.07704e-07   4.75733e-07 DIIS
   @RHF iter   8:  -197.50227682520250   -4.84380e-09   1.30287e-07 DIIS
   @RHF iter   9:  -197.50227682554353   -3.41032e-10   4.07229e-08 DIIS
   @RHF iter  10:  -197.50227682558273   -3.91935e-11   8.39732e-09 DIIS
   @RHF iter  11:  -197.50227682558483   -2.10321e-12   1.52240e-09 DIIS
   @RHF iter  12:  -197.50227682558506   -2.27374e-13   2.72219e-10 DIIS
   @RHF iter  13:  -197.50227682558429    7.67386e-13   5.06044e-11 DIIS
  Energy and wave function converged.

  ==> Post-Iterations <==

    Orbital Energies [Eh]
    ---------------------

    Doubly Occupied:

       1A    -11.218836     2A    -11.218679     3A    -11.217937
       4A    -11.217244     5A    -11.217041     6A     -1.049077
       7A     -1.018467     8A     -0.925355     9A     -0.836634
      10A     -0.794681    11A     -0.622512    12A     -0.600266
      13A     -0.595917    14A     -0.590947    15A     -0.550568
      16A     -0.530477    17A     -0.502392    18A     -0.486931
      19A     -0.484773    20A     -0.474875    21A     -0.465190
      22A     -0.460718

    Virtual:

      23A      0.171498    24A      0.193758    25A      0.215567
      26A      0.223015    27A      0.228951    28A      0.253071
      29A      0.256080    30A      0.268011    31A      0.278280
      32A      0.281901    33A      0.286742    34A      0.304146
      35A      0.316346    36A      0.336670    37A      0.372706
      38A      0.398496    39A      0.433486    40A      0.571011
      41A      0.578021    42A      0.592932    43A      0.601518
      44A      0.606396    45A      0.615297    46A      0.626931
      47A      0.675880    48A      0.688016    49A      0.755668
      50A      0.789273    51A      0.804473    52A      0.836488
      53A      0.879634    54A      0.886136    55A      0.891739
      56A      0.892527    57A      0.894695    58A      0.898447
      59A      0.899411    60A      0.902525    61A      0.913322
      62A      0.914781    63A      0.919342    64A      0.926491
      65A      0.950233    66A      0.961846    67A      0.985989
      68A      0.998030    69A      1.116559    70A      1.123871
      71A      1.138932    72A      1.155150    73A      1.211903
      74A      1.239005    75A      1.372034    76A      1.464698
      77A      1.473111    78A      1.476764    79A      1.497521
      80A      1.520775    81A      1.579480    82A      1.632614
      83A      1.666209    84A      1.683326    85A      1.689796
      86A      1.695216    87A      1.700625    88A      1.849546
      89A      1.860027    90A      1.870373    91A      1.875031
      92A      1.887555    93A      1.908115    94A      1.915557
      95A      1.923028    96A      1.937214    97A      1.945506
      98A      1.946876    99A      1.950054   100A      1.951678
     101A      1.966483   102A      1.973323   103A      1.983658
     104A      1.997707   105A      2.013424   106A      2.034607
     107A      2.052890   108A      2.091259   109A      2.110408
     110A      2.123844   111A      2.167959   112A      2.277741
     113A      2.297971   114A      2.301033   115A      2.315825
     116A      2.330668   117A      2.359783   118A      2.458061
     119A      2.463518   120A      2.490436   121A      2.540690
     122A      2.554810   123A      2.570571   124A      2.584523
     125A      2.609780   126A      2.631480   127A      2.742678
     128A      2.754862   129A      2.759566   130A      2.784549
     131A      2.788501   132A      2.799981   133A      2.850528
     134A      2.861793   135A      2.919922   136A      2.945672
     137A      2.951076   138A      2.961156   139A      2.973823
     140A      3.077996

    Final Occupation by Irrep:
              A
    DOCC [    22 ]

  @RHF Final Energy:  -197.50227682558429

   => Energetics <=

    Nuclear Repulsion Energy =            174.8235907983704465
    One-Electron Energy =                -610.4927041004093553
    Two-Electron Energy =                 238.1668364764546197
    Total Energy =                       -197.5022768255842891

Computation Completed

Properties will be evaluated at   0.000000,   0.000000,   0.000000 [a0]

Properties computed using the SCF density matrix

  Nuclear Dipole Moment: [e a0]
     X:     0.0602      Y:    -0.6893      Z:    -0.9100

  Electronic Dipole Moment: [e a0]
     X:    -0.0428      Y:     0.6770      Z:     0.8835

  Dipole Moment: [e a0]
     X:     0.0175      Y:    -0.0123      Z:    -0.0265     Total:     0.0341

  Dipole Moment: [D]
     X:     0.0444      Y:    -0.0313      Z:    -0.0674     Total:     0.0866

*** tstop() called on ds3 at Mon Apr 27 18:38:40 2020
Module time:
	user time   =      13.60 seconds =       0.23 minutes
	system time =       6.15 seconds =       0.10 minutes
	total time  =         19 seconds =       0.32 minutes
Total time:
	user time   =      13.60 seconds =       0.23 minutes
	system time =       6.15 seconds =       0.10 minutes
	total time  =         19 seconds =       0.32 minutes
                                     G D M A

                                 by Anthony Stone

                           version 2.2.06, 22 June 2011

               Distributed Multipoles from Gaussian wavefunctions

Starting at 18:38:40 on 27 Apr 2020

Using SCF density matrix from file ./SSI/SSI-043LEU-055THR-1-dimer.test.26789.fchk

                         Distributed Multipole Analysis

Standard DMA

Positions and radii in angstrom
Multipole moments in atomic units, ea_0^k for rank k

C          x =  0.014921  y =  0.926751  z =  1.144306 angstrom
           Maximum rank =  0   Radius =  0.650 angstrom
                   Q00  =  -0.089457

C          x = -1.387080  y =  1.517751  z =  1.295306 angstrom
           Maximum rank =  0   Radius =  0.650 angstrom
                   Q00  =  -0.236031

C          x =  0.974921  y =  1.105751  z =  2.333306 angstrom
           Maximum rank =  0   Radius =  0.650 angstrom
                   Q00  =  -0.245046

H          x = -0.085079  y = -0.141249  z =  0.944306 angstrom
           Maximum rank =  0   Radius =  0.325 angstrom
                   Q00  =   0.047188

H          x =  0.482921  y =  1.374751  z =  0.268306 angstrom
           Maximum rank =  0   Radius =  0.325 angstrom
                   Q00  =   0.043396

H          x = -1.938079  y =  0.919751  z =  2.022306 angstrom
           Maximum rank =  0   Radius =  0.325 angstrom
                   Q00  =   0.077820

H          x =  1.052921  y =  2.167751  z =  2.549306 angstrom
           Maximum rank =  0   Radius =  0.325 angstrom
                   Q00  =   0.074224

H          x = -1.899219  y =  1.507131  z =  0.321859 angstrom
           Maximum rank =  0   Radius =  0.325 angstrom
                   Q00  =   0.085192

H          x = -1.321130  y =  2.551951  z =  1.664197 angstrom
           Maximum rank =  0   Radius =  0.325 angstrom
                   Q00  =   0.075237

H          x =  0.629251  y =  0.618641  z =  3.257014 angstrom
           Maximum rank =  0   Radius =  0.325 angstrom
                   Q00  =   0.079498

H          x =  1.991621  y =  0.778491  z =  2.070218 angstrom
           Maximum rank =  0   Radius =  0.325 angstrom
                   Q00  =   0.086846

C          x =  0.468921  y = -1.333249  z = -1.763694 angstrom
           Maximum rank =  0   Radius =  0.650 angstrom
                   Q00  =  -0.233081

C          x = -0.077079  y = -2.155249  z = -2.927694 angstrom
           Maximum rank =  0   Radius =  0.650 angstrom
                   Q00  =  -0.237790

H          x =  0.001921  y = -0.346249  z = -1.749694 angstrom
           Maximum rank =  0   Radius =  0.325 angstrom
                   Q00  =   0.079115

H          x =  0.239921  y = -1.844249  z = -0.826694 angstrom
           Maximum rank =  0   Radius =  0.325 angstrom
                   Q00  =   0.077300

H          x =  1.550921  y = -1.231249  z = -1.850694 angstrom
           Maximum rank =  0   Radius =  0.325 angstrom
                   Q00  =   0.080716

H          x =  0.379921  y = -3.143249  z = -2.890694 angstrom
           Maximum rank =  0   Radius =  0.325 angstrom
                   Q00  =   0.078405

H          x =  0.147461  y = -1.680909  z = -3.894431 angstrom
           Maximum rank =  0   Radius =  0.325 angstrom
                   Q00  =   0.078590

H          x = -1.169079  y = -2.266629  z = -2.856037 angstrom
           Maximum rank =  0   Radius =  0.325 angstrom
                   Q00  =   0.077878

Total multipoles referred to origin at
           x =   0.000000,  y =    0.000000,  z =    0.000000 angstrom
                   Q00  =  -0.000000

Finished at 18:38:40 on 27 Apr 2020

  DMA results are available in the Python driver through the
	  variable('DMA DISTRIBUTED MULTIPOLES')
  and
	  variable('DMA TOTAL MULTIPOLES')
  commands.

    Psi4 stopped on: Monday, 27 April 2020 06:38PM
    Psi4 wall time for execution: 0:00:19.37

*** Psi4 exiting successfully. Buy a developer a beer!
