                               Psi4 1.3.2 release

  ==> Input File <==

--------------------------------------------------------------------------
import numpy as np
set {scf_type pk
basis cc-pvdz
d_convergence 10
gdma_switch   0
gdma_limit    0
gdma_origin   [ 0.0,  0.0,  0.0 ]
}
molecule test {
    units Angstrom
    0 1
    --
    0 1
    C               -1.891377930355666     0.642789999666305    -0.643471995132203
    C               -1.537377930355666    -0.294210000333695    -1.769471995132202
    C               -3.177377930355665     0.065789999666305    -0.055471995132202
    H               -2.019377930355666     1.667789999666305    -0.997471995132202
    H               -1.112377930355666     0.610789999666305     0.118528004867798
    H               -2.101377930355666    -0.021210000333695    -2.663471995132202
    H               -0.470377930355666    -0.282210000333695    -1.981471995132203
    H               -3.156377930355666     0.155789999666305     1.028528004867797
    H               -1.862797930355665    -1.284352000333695    -1.417731995132202
    H               -3.141977930355666    -0.996942000333695    -0.337161995132202
    H               -4.057067930355665     0.592739999666305    -0.453561995132202
    C                1.634622069644334    -0.214210000333695     0.586528004867798
    C                2.067622069644334     0.920789999666304     1.470528004867798
    C                2.880622069644335    -1.079210000333696     0.398528004867797
    H                1.241622069644335     0.151789999666305    -0.362471995132202
    H                0.866622069644335    -0.792210000333695     1.098528004867797
    H                2.496622069644334     1.711789999666304     0.854528004867797
    H                1.233622069644335     1.308789999666305     2.049528004867797
    H                2.630622069644334    -2.134210000333695     0.482528004867798
    H                2.856352069644335     0.495302999666305     2.108388004867797
    H                3.548422069644335    -0.775526000333695     1.218168004867797
    H                3.324892069644334    -0.905114000333695    -0.592591995132202

}
e, wfn = energy('scf', return_wfn=True)
gdma(wfn)
dmavals = variable('DMA DISTRIBUTED MULTIPOLES')
charges = np.array(dmavals)
print(charges)
np.save('SSI-130PRO-180PRO-1-dimer.npy', np.array(charges))--------------------------------------------------------------------------

*** tstart() called on ds3
*** at Mon Apr 27 12:49:11 2020

   => Loading Basis Set <=

    Name: CC-PVDZ
    Role: ORBITAL
    Keyword: BASIS
    atoms 1-3, 12-14  entry C          line   138 file /theoryfs2/ds/metcalf/miniconda2/envs/tf2gpu/share/psi4/basis/cc-pvdz.gbs
    atoms 4-11, 15-22 entry H          line    22 file /theoryfs2/ds/metcalf/miniconda2/envs/tf2gpu/share/psi4/basis/cc-pvdz.gbs

         ---------------------------------------------------------
                                   SCF
               by Justin Turney, Rob Parrish, Andy Simmonett
                          and Daniel G. A. Smith
                              RHF Reference
                        1 Threads,    500 MiB Core
         ---------------------------------------------------------

  ==> Geometry <==

    Molecular point group: c1
    Full point group: C1

    Geometry (in Angstrom), charge = 0, multiplicity = 1:

       Center              X                  Y                   Z               Mass
    ------------   -----------------  -----------------  -----------------  -----------------
         C           -1.891377930356     0.642789999666    -0.643471995132    12.000000000000
         C           -1.537377930356    -0.294210000334    -1.769471995132    12.000000000000
         C           -3.177377930356     0.065789999666    -0.055471995132    12.000000000000
         H           -2.019377930356     1.667789999666    -0.997471995132     1.007825032230
         H           -1.112377930356     0.610789999666     0.118528004868     1.007825032230
         H           -2.101377930356    -0.021210000334    -2.663471995132     1.007825032230
         H           -0.470377930356    -0.282210000334    -1.981471995132     1.007825032230
         H           -3.156377930356     0.155789999666     1.028528004868     1.007825032230
         H           -1.862797930356    -1.284352000334    -1.417731995132     1.007825032230
         H           -3.141977930356    -0.996942000334    -0.337161995132     1.007825032230
         H           -4.057067930356     0.592739999666    -0.453561995132     1.007825032230
         C            1.634622069644    -0.214210000334     0.586528004868    12.000000000000
         C            2.067622069644     0.920789999666     1.470528004868    12.000000000000
         C            2.880622069644    -1.079210000334     0.398528004868    12.000000000000
         H            1.241622069644     0.151789999666    -0.362471995132     1.007825032230
         H            0.866622069644    -0.792210000334     1.098528004868     1.007825032230
         H            2.496622069644     1.711789999666     0.854528004868     1.007825032230
         H            1.233622069644     1.308789999666     2.049528004868     1.007825032230
         H            2.630622069644    -2.134210000334     0.482528004868     1.007825032230
         H            2.856352069644     0.495302999666     2.108388004868     1.007825032230
         H            3.548422069644    -0.775526000334     1.218168004868     1.007825032230
         H            3.324892069644    -0.905114000334    -0.592591995132     1.007825032230

  Running in c1 symmetry.

  Rotational constants: A =      0.16084  B =      0.03076  C =      0.02811 [cm^-1]
  Rotational constants: A =   4821.94744  B =    922.22465  C =    842.65263 [MHz]
  Nuclear repulsion =  242.049270885983418

  Charge       = 0
  Multiplicity = 1
  Electrons    = 52
  Nalpha       = 26
  Nbeta        = 26

  ==> Algorithm <==

  SCF Algorithm Type is PK.
  DIIS enabled.
  MOM disabled.
  Fractional occupation disabled.
  Guess Type is SAD.
  Energy threshold   = 1.00e-06
  Density threshold  = 1.00e-10
  Integral threshold = 0.00e+00

  ==> Primary Basis <==

  Basis Set: CC-PVDZ
    Blend: CC-PVDZ
    Number of shells: 84
    Number of basis function: 164
    Number of Cartesian functions: 170
    Spherical Harmonics?: true
    Max angular momentum: 2

  ==> Pre-Iterations <==

   -------------------------------------------------------
    Irrep   Nso     Nmo     Nalpha   Nbeta   Ndocc  Nsocc
   -------------------------------------------------------
     A        164     164       0       0       0       0
   -------------------------------------------------------
    Total     164     164      26      26      26       0
   -------------------------------------------------------

  ==> Integral Setup <==

  Using integral reordering PK algorithm.
  Sizing the integral batches needed.
  Building batch lookup table.
   Calculation information:
      Number of atoms:                  22
      Number of AO shells:              84
      Number of primitives:            212
      Number of atomic orbitals:       170
      Number of basis functions:       164

      Integral cutoff                 1.00e-12
      Number of threads:                 1

	Batch   1 pq = [       0,    9405] index = [             0,44231715] size =     44231715
	Batch   2 pq = [    9405,   13530] index = [      44231715,91537215] size =     47305500
  Task number: 9
  Buffer size: 11059200
  Buffer per thread: 2
  We computed 5447569 shell quartets total.
  Whereas there are 6374235 unique shell quartets.

  ==> DiskJK: Disk-Based J/K Matrices <==

    J tasked:                  Yes
    K tasked:                  Yes
    wK tasked:                  No
    Memory [MiB]:              375
    Schwarz Cutoff:          1E-12

    OpenMP threads:              1

  Minimum eigenvalue in the overlap matrix is 4.5410974790E-03.
  Using Symmetric Orthogonalization.

  SCF Guess: Superposition of Atomic Densities via on-the-fly atomic UHF.

  ==> Iterations <==

                        Total Energy        Delta E     RMS |[F,P]|

   @RHF iter SAD:  -235.65365183007492   -2.35654e+02   0.00000e+00
   @RHF iter   1:  -236.27294822722240   -6.19296e-01   3.58325e-03 DIIS
   @RHF iter   2:  -236.46397149336505   -1.91023e-01   1.58557e-03 DIIS
   @RHF iter   3:  -236.50001267299052   -3.60412e-02   3.09395e-04 DIIS
   @RHF iter   4:  -236.50262355930664   -2.61089e-03   4.82147e-05 DIIS
   @RHF iter   5:  -236.50267446425232   -5.09049e-05   1.36641e-05 DIIS
   @RHF iter   6:  -236.50267874927363   -4.28502e-06   2.43476e-06 DIIS
   @RHF iter   7:  -236.50267889954063   -1.50267e-07   4.78226e-07 DIIS
   @RHF iter   8:  -236.50267890679487   -7.25424e-09   9.05112e-08 DIIS
   @RHF iter   9:  -236.50267890708625   -2.91379e-10   2.31684e-08 DIIS
   @RHF iter  10:  -236.50267890710262   -1.63709e-11   6.66766e-09 DIIS
   @RHF iter  11:  -236.50267890710444   -1.81899e-12   1.49140e-09 DIIS
   @RHF iter  12:  -236.50267890710376    6.82121e-13   3.52732e-10 DIIS
   @RHF iter  13:  -236.50267890710461   -8.52651e-13   6.37060e-11 DIIS
  Energy and wave function converged.

  ==> Post-Iterations <==

    Orbital Energies [Eh]
    ---------------------

    Doubly Occupied:

       1A    -11.214639     2A    -11.213917     3A    -11.213801
       4A    -11.212990     5A    -11.212126     6A    -11.211844
       7A     -1.067484     8A     -1.064923     9A     -0.916606
      10A     -0.914732    11A     -0.800751    12A     -0.796008
      13A     -0.636015    14A     -0.634225    15A     -0.616973
      16A     -0.611977    17A     -0.540233    18A     -0.539618
      19A     -0.518222    20A     -0.515937    21A     -0.484606
      22A     -0.483170    23A     -0.465949    24A     -0.462110
      25A     -0.460724    26A     -0.458057

    Virtual:

      27A      0.172496    28A      0.195002    29A      0.204791
      30A      0.221096    31A      0.224740    32A      0.233948
      33A      0.243878    34A      0.250901    35A      0.272061
      36A      0.281163    37A      0.291216    38A      0.294517
      39A      0.324856    40A      0.325979    41A      0.331359
      42A      0.365415    43A      0.390062    44A      0.411893
      45A      0.428992    46A      0.456038    47A      0.553792
      48A      0.568376    49A      0.595063    50A      0.602791
      51A      0.627886    52A      0.640088    53A      0.647457
      54A      0.663837    55A      0.675581    56A      0.741954
      57A      0.761681    58A      0.776043    59A      0.808036
      60A      0.811444    61A      0.844528    62A      0.853819
      63A      0.857274    64A      0.871848    65A      0.881955
      66A      0.886626    67A      0.898427    68A      0.901611
      69A      0.903700    70A      0.906126    71A      0.915419
      72A      0.920997    73A      0.925418    74A      0.937844
      75A      0.950214    76A      0.956097    77A      0.961664
      78A      0.977716    79A      1.003333    80A      1.045199
      81A      1.074749    82A      1.096717    83A      1.102452
      84A      1.120320    85A      1.198044    86A      1.221202
      87A      1.393912    88A      1.431061    89A      1.469673
      90A      1.480373    91A      1.492728    92A      1.500821
      93A      1.595463    94A      1.613186    95A      1.625667
      96A      1.634109    97A      1.639167    98A      1.642726
      99A      1.717446   100A      1.719913   101A      1.727725
     102A      1.733704   103A      1.804165   104A      1.806961
     105A      1.849985   106A      1.871121   107A      1.875133
     108A      1.879064   109A      1.905691   110A      1.912716
     111A      1.923336   112A      1.931838   113A      1.941175
     114A      1.946233   115A      1.957353   116A      1.973283
     117A      1.986740   118A      1.991475   119A      2.000482
     120A      2.017732   121A      2.023728   122A      2.027153
     123A      2.053359   124A      2.058346   125A      2.067376
     126A      2.135095   127A      2.156082   128A      2.168515
     129A      2.224364   130A      2.242480   131A      2.250141
     132A      2.262811   133A      2.305789   134A      2.319902
     135A      2.343478   136A      2.356855   137A      2.420105
     138A      2.425385   139A      2.437366   140A      2.450120
     141A      2.513505   142A      2.518631   143A      2.552940
     144A      2.563629   145A      2.638502   146A      2.646444
     147A      2.703266   148A      2.713669   149A      2.756193
     150A      2.763343   151A      2.777038   152A      2.786923
     153A      2.791964   154A      2.796077   155A      2.829679
     156A      2.847676   157A      2.852570   158A      2.860553
     159A      2.904225   160A      2.919090   161A      2.934018
     162A      2.949825   163A      3.060200   164A      3.079623

    Final Occupation by Irrep:
              A
    DOCC [    26 ]

  @RHF Final Energy:  -236.50267890710461

   => Energetics <=

    Nuclear Repulsion Energy =            242.0492708859834181
    One-Electron Energy =                -796.5686251459949290
    Two-Electron Energy =                 318.0166753529068728
    Total Energy =                       -236.5026789071046096

Computation Completed

Properties will be evaluated at   0.000000,   0.000000,   0.000000 [a0]

Properties computed using the SCF density matrix

  Nuclear Dipole Moment: [e a0]
     X:     0.2597      Y:    -0.4659      Z:     0.1432

  Electronic Dipole Moment: [e a0]
     X:    -0.2635      Y:     0.4912      Z:    -0.1464

  Dipole Moment: [e a0]
     X:    -0.0038      Y:     0.0253      Z:    -0.0032     Total:     0.0257

  Dipole Moment: [D]
     X:    -0.0097      Y:     0.0642      Z:    -0.0081     Total:     0.0654

*** tstop() called on ds3 at Mon Apr 27 12:49:54 2020
Module time:
	user time   =      30.96 seconds =       0.52 minutes
	system time =      13.30 seconds =       0.22 minutes
	total time  =         43 seconds =       0.72 minutes
Total time:
	user time   =      30.96 seconds =       0.52 minutes
	system time =      13.30 seconds =       0.22 minutes
	total time  =         43 seconds =       0.72 minutes
                                     G D M A

                                 by Anthony Stone

                           version 2.2.06, 22 June 2011

               Distributed Multipoles from Gaussian wavefunctions

Starting at 12:49:54 on 27 Apr 2020

Using SCF density matrix from file ./SSI/SSI-130PRO-180PRO-1-dimer.test.4210.fchk

                         Distributed Multipole Analysis

Standard DMA

Positions and radii in angstrom
Multipole moments in atomic units, ea_0^k for rank k

C          x = -1.891378  y =  0.642790  z = -0.643472 angstrom
           Maximum rank =  0   Radius =  0.650 angstrom
                   Q00  =  -0.109351

C          x = -1.537378  y = -0.294210  z = -1.769472 angstrom
           Maximum rank =  0   Radius =  0.650 angstrom
                   Q00  =  -0.202676

C          x = -3.177378  y =  0.065790  z = -0.055472 angstrom
           Maximum rank =  0   Radius =  0.650 angstrom
                   Q00  =  -0.233364

H          x = -2.019378  y =  1.667790  z = -0.997472 angstrom
           Maximum rank =  0   Radius =  0.325 angstrom
                   Q00  =   0.054002

H          x = -1.112378  y =  0.610790  z =  0.118528 angstrom
           Maximum rank =  0   Radius =  0.325 angstrom
                   Q00  =   0.055354

H          x = -2.101378  y = -0.021210  z = -2.663472 angstrom
           Maximum rank =  0   Radius =  0.325 angstrom
                   Q00  =   0.076295

H          x = -0.470378  y = -0.282210  z = -1.981472 angstrom
           Maximum rank =  0   Radius =  0.325 angstrom
                   Q00  =   0.079277

H          x = -3.156378  y =  0.155790  z =  1.028528 angstrom
           Maximum rank =  0   Radius =  0.325 angstrom
                   Q00  =   0.085589

H          x = -1.862798  y = -1.284352  z = -1.417732 angstrom
           Maximum rank =  0   Radius =  0.325 angstrom
                   Q00  =   0.050571

H          x = -3.141978  y = -0.996942  z = -0.337162 angstrom
           Maximum rank =  0   Radius =  0.325 angstrom
                   Q00  =   0.062236

H          x = -4.057068  y =  0.592740  z = -0.453562 angstrom
           Maximum rank =  0   Radius =  0.325 angstrom
                   Q00  =   0.080521

C          x =  1.634622  y = -0.214210  z =  0.586528 angstrom
           Maximum rank =  0   Radius =  0.650 angstrom
                   Q00  =  -0.104053

C          x =  2.067622  y =  0.920790  z =  1.470528 angstrom
           Maximum rank =  0   Radius =  0.650 angstrom
                   Q00  =  -0.208312

C          x =  2.880622  y = -1.079210  z =  0.398528 angstrom
           Maximum rank =  0   Radius =  0.650 angstrom
                   Q00  =  -0.233558

H          x =  1.241622  y =  0.151790  z = -0.362472 angstrom
           Maximum rank =  0   Radius =  0.325 angstrom
                   Q00  =   0.054522

H          x =  0.866622  y = -0.792210  z =  1.098528 angstrom
           Maximum rank =  0   Radius =  0.325 angstrom
                   Q00  =   0.047753

H          x =  2.496622  y =  1.711790  z =  0.854528 angstrom
           Maximum rank =  0   Radius =  0.325 angstrom
                   Q00  =   0.075575

H          x =  1.233622  y =  1.308790  z =  2.049528 angstrom
           Maximum rank =  0   Radius =  0.325 angstrom
                   Q00  =   0.079847

H          x =  2.630622  y = -2.134210  z =  0.482528 angstrom
           Maximum rank =  0   Radius =  0.325 angstrom
                   Q00  =   0.089057

H          x =  2.856352  y =  0.495303  z =  2.108388 angstrom
           Maximum rank =  0   Radius =  0.325 angstrom
                   Q00  =   0.050802

H          x =  3.548422  y = -0.775526  z =  1.218168 angstrom
           Maximum rank =  0   Radius =  0.325 angstrom
                   Q00  =   0.064105

H          x =  3.324892  y = -0.905114  z = -0.592592 angstrom
           Maximum rank =  0   Radius =  0.325 angstrom
                   Q00  =   0.085806

Total multipoles referred to origin at
           x =   0.000000,  y =    0.000000,  z =    0.000000 angstrom
                   Q00  =  -0.000000

Finished at 12:49:54 on 27 Apr 2020

  DMA results are available in the Python driver through the
	  variable('DMA DISTRIBUTED MULTIPOLES')
  and
	  variable('DMA TOTAL MULTIPOLES')
  commands.

    Psi4 stopped on: Monday, 27 April 2020 12:49PM
    Psi4 wall time for execution: 0:00:42.62

*** Psi4 exiting successfully. Buy a developer a beer!
