                               Psi4 1.3.2 release

  ==> Input File <==

--------------------------------------------------------------------------
import numpy as np
set {scf_type pk
basis cc-pvdz
d_convergence 10
gdma_switch   0
gdma_limit    0
gdma_origin   [ 0.0,  0.0,  0.0 ]
}
molecule test {
    units Angstrom
    0 1
    --
    0 1
    C                1.418730144712383     0.656778579980333     1.716446067284731
    C                1.059730144712383     1.746778579980333     2.738446067284732
    C                2.670730144712383     1.043778579980333     0.932446067284731
    C                1.629730144712383    -0.688221420019667     2.406446067284732
    H                0.594730144712383     0.548778579980333     1.012446067284732
    H                1.841730144712383     1.780778579980333     3.496446067284732
    H                3.484730144712383     1.287778579980333     1.616446067284731
    H                2.976730144712383     0.216778579980333     0.291446067284731
    H                2.468730144712383     1.898778579980333     0.290446067284731
    H                0.715730144712383    -0.994221420019667     2.917446067284732
    H                1.872730144712383    -1.449221420019667     1.664446067284731
    H                2.440730144712383    -0.617221420019667     3.132446067284731
    H                0.089130144712383     1.541328579980333     3.213550067284732
    H                0.977320144712383     2.724828579980333     2.241831067284731
    C               -3.406269855287617     0.271778579980333    -0.924553932715269
    C                0.271730144712383     0.274778579980333    -1.931553932715269
    C                0.692730144712383    -0.974221420019667    -1.469553932715268
    C               -1.055269855287617     0.675778579980333    -1.754553932715269
    C               -1.969269855287617    -0.159221420019667    -1.105553932715269
    C               -0.215269855287617    -1.815221420019667    -0.826553932715269
    C               -1.542269855287617    -1.409221420019667    -0.652553932715269
    H                0.970730144712383     0.932778579980333    -2.431553932715268
    H                1.716730144712383    -1.290221420019667    -1.605553932715269
    H               -1.374269855287617     1.639778579980333    -2.125553932715268
    H                0.105730144712383    -2.784221420019667    -0.467553932715269
    H               -4.043269855287617    -0.613221420019667    -0.888553932715269
    H               -3.709269855287617     0.845778579980333    -1.802553932715269
    H               -2.239269855287617    -2.070221420019668    -0.154553932715269
    H               -3.591239855287617     0.883318579980333    -0.029113932715269

}
e, wfn = energy('scf', return_wfn=True)
gdma(wfn)
dmavals = variable('DMA DISTRIBUTED MULTIPOLES')
charges = np.array(dmavals)
print(charges)
np.save('SSI-006VAL-175PHE-1-dimer.npy', np.array(charges))--------------------------------------------------------------------------

*** tstart() called on ds3
*** at Mon Apr 27 23:44:32 2020

   => Loading Basis Set <=

    Name: CC-PVDZ
    Role: ORBITAL
    Keyword: BASIS
    atoms 1-4, 15-21  entry C          line   138 file /theoryfs2/ds/metcalf/miniconda2/envs/tf2gpu/share/psi4/basis/cc-pvdz.gbs
    atoms 5-14, 22-29 entry H          line    22 file /theoryfs2/ds/metcalf/miniconda2/envs/tf2gpu/share/psi4/basis/cc-pvdz.gbs

         ---------------------------------------------------------
                                   SCF
               by Justin Turney, Rob Parrish, Andy Simmonett
                          and Daniel G. A. Smith
                              RHF Reference
                        1 Threads,    500 MiB Core
         ---------------------------------------------------------

  ==> Geometry <==

    Molecular point group: c1
    Full point group: C1

    Geometry (in Angstrom), charge = 0, multiplicity = 1:

       Center              X                  Y                   Z               Mass
    ------------   -----------------  -----------------  -----------------  -----------------
         C            1.418730144712     0.656778579980     1.716446067285    12.000000000000
         C            1.059730144712     1.746778579980     2.738446067285    12.000000000000
         C            2.670730144712     1.043778579980     0.932446067285    12.000000000000
         C            1.629730144712    -0.688221420020     2.406446067285    12.000000000000
         H            0.594730144712     0.548778579980     1.012446067285     1.007825032230
         H            1.841730144712     1.780778579980     3.496446067285     1.007825032230
         H            3.484730144712     1.287778579980     1.616446067285     1.007825032230
         H            2.976730144712     0.216778579980     0.291446067285     1.007825032230
         H            2.468730144712     1.898778579980     0.290446067285     1.007825032230
         H            0.715730144712    -0.994221420020     2.917446067285     1.007825032230
         H            1.872730144712    -1.449221420020     1.664446067285     1.007825032230
         H            2.440730144712    -0.617221420020     3.132446067285     1.007825032230
         H            0.089130144712     1.541328579980     3.213550067285     1.007825032230
         H            0.977320144712     2.724828579980     2.241831067285     1.007825032230
         C           -3.406269855288     0.271778579980    -0.924553932715    12.000000000000
         C            0.271730144712     0.274778579980    -1.931553932715    12.000000000000
         C            0.692730144712    -0.974221420020    -1.469553932715    12.000000000000
         C           -1.055269855288     0.675778579980    -1.754553932715    12.000000000000
         C           -1.969269855288    -0.159221420020    -1.105553932715    12.000000000000
         C           -0.215269855288    -1.815221420020    -0.826553932715    12.000000000000
         C           -1.542269855288    -1.409221420020    -0.652553932715    12.000000000000
         H            0.970730144712     0.932778579980    -2.431553932715     1.007825032230
         H            1.716730144712    -1.290221420020    -1.605553932715     1.007825032230
         H           -1.374269855288     1.639778579980    -2.125553932715     1.007825032230
         H            0.105730144712    -2.784221420020    -0.467553932715     1.007825032230
         H           -4.043269855288    -0.613221420020    -0.888553932715     1.007825032230
         H           -3.709269855288     0.845778579980    -1.802553932715     1.007825032230
         H           -2.239269855288    -2.070221420020    -0.154553932715     1.007825032230
         H           -3.591239855288     0.883318579980    -0.029113932715     1.007825032230

  Running in c1 symmetry.

  Rotational constants: A =      0.04809  B =      0.01903  C =      0.01779 [cm^-1]
  Rotational constants: A =   1441.60884  B =    570.38995  C =    533.26435 [MHz]
  Nuclear repulsion =  592.694312808249492

  Charge       = 0
  Multiplicity = 1
  Electrons    = 84
  Nalpha       = 42
  Nbeta        = 42

  ==> Algorithm <==

  SCF Algorithm Type is PK.
  DIIS enabled.
  MOM disabled.
  Fractional occupation disabled.
  Guess Type is SAD.
  Energy threshold   = 1.00e-06
  Density threshold  = 1.00e-10
  Integral threshold = 0.00e+00

  ==> Primary Basis <==

  Basis Set: CC-PVDZ
    Blend: CC-PVDZ
    Number of shells: 120
    Number of basis function: 244
    Number of Cartesian functions: 255
    Spherical Harmonics?: true
    Max angular momentum: 2

  ==> Pre-Iterations <==

   -------------------------------------------------------
    Irrep   Nso     Nmo     Nalpha   Nbeta   Ndocc  Nsocc
   -------------------------------------------------------
     A        244     244       0       0       0       0
   -------------------------------------------------------
    Total     244     244      42      42      42       0
   -------------------------------------------------------

  ==> Integral Setup <==

  Using integral reordering PK algorithm.
  Sizing the integral batches needed.
  Building batch lookup table.
   Calculation information:
      Number of atoms:                  29
      Number of AO shells:             120
      Number of primitives:            332
      Number of atomic orbitals:       255
      Number of basis functions:       244

      Integral cutoff                 1.00e-12
      Number of threads:                 1

	Batch   1 pq = [       0,    9405] index = [             0,44231715] size =     44231715
	Batch   2 pq = [    9405,   13301] index = [      44231715,88464951] size =     44233236
	Batch   3 pq = [   13301,   16290] index = [      88464951,132690195] size =     44225244
	Batch   4 pq = [   16290,   18810] index = [     132690195,176917455] size =     44227260
	Batch   5 pq = [   18810,   21030] index = [     176917455,221140965] size =     44223510
	Batch   6 pq = [   21030,   23037] index = [     221140965,265363203] size =     44222238
	Batch   7 pq = [   23037,   24883] index = [     265363203,309594286] size =     44231083
	Batch   8 pq = [   24883,   26601] index = [     309594286,353819901] size =     44225615
	Batch   9 pq = [   26601,   28214] index = [     353819901,398029005] size =     44209104
	Batch  10 pq = [   28214,   29740] index = [     398029005,442248670] size =     44219665
	Batch  11 pq = [   29740,   29890] index = [     442248670,446720995] size =      4472325
  Task number: 41
  Buffer size: 11059200
  Buffer per thread: 2
  We computed 28309791 shell quartets total.
  Whereas there are 26357430 unique shell quartets.
     7.41 percent of shell quartets recomputed by reordering.

  ==> DiskJK: Disk-Based J/K Matrices <==

    J tasked:                  Yes
    K tasked:                  Yes
    wK tasked:                  No
    Memory [MiB]:              375
    Schwarz Cutoff:          1E-12

    OpenMP threads:              1

  Minimum eigenvalue in the overlap matrix is 3.1888866031E-04.
  Using Symmetric Orthogonalization.

  SCF Guess: Superposition of Atomic Densities via on-the-fly atomic UHF.

  ==> Iterations <==

                        Total Energy        Delta E     RMS |[F,P]|

   @RHF iter SAD:  -425.88337981962246   -4.25883e+02   0.00000e+00
   @RHF iter   1:  -426.77452536503461   -8.91146e-01   2.64916e-03 DIIS
   @RHF iter   2:  -427.02282835001557   -2.48303e-01   1.13315e-03 DIIS
   @RHF iter   3:  -427.06413374411102   -4.13054e-02   2.47096e-04 DIIS
   @RHF iter   4:  -427.06745762889199   -3.32388e-03   5.76881e-05 DIIS
   @RHF iter   5:  -427.06758583306760   -1.28204e-04   1.28508e-05 DIIS
   @RHF iter   6:  -427.06759299639066   -7.16332e-06   3.77898e-06 DIIS
   @RHF iter   7:  -427.06759357581279   -5.79422e-07   1.21500e-06 DIIS
   @RHF iter   8:  -427.06759364102550   -6.52127e-08   2.50107e-07 DIIS
   @RHF iter   9:  -427.06759364695074   -5.92524e-09   1.00628e-07 DIIS
   @RHF iter  10:  -427.06759364800308   -1.05234e-09   4.57692e-08 DIIS
   @RHF iter  11:  -427.06759364834966   -3.46574e-10   1.99591e-08 DIIS
   @RHF iter  12:  -427.06759364842958   -7.99218e-11   7.81601e-09 DIIS
   @RHF iter  13:  -427.06759364844038   -1.08002e-11   2.67172e-09 DIIS
   @RHF iter  14:  -427.06759364843919    1.19371e-12   8.28649e-10 DIIS
   @RHF iter  15:  -427.06759364844567   -6.48015e-12   3.24561e-10 DIIS
   @RHF iter  16:  -427.06759364844413    1.53477e-12   1.38771e-10 DIIS
   @RHF iter  17:  -427.06759364844328    8.52651e-13   6.58627e-11 DIIS
  Energy and wave function converged.

  ==> Post-Iterations <==

    Orbital Energies [Eh]
    ---------------------

    Doubly Occupied:

       1A    -11.244520     2A    -11.239003     3A    -11.238763
       4A    -11.234335     5A    -11.234171     6A    -11.234047
       7A    -11.231726     8A    -11.212275     9A    -11.209492
      10A    -11.206035    11A    -11.205812    12A     -1.152239
      13A     -1.073269    14A     -1.044449    15A     -1.011819
      16A     -0.932393    17A     -0.919029    18A     -0.918234
      19A     -0.826024    20A     -0.796894    21A     -0.755138
      22A     -0.692056    23A     -0.632538    24A     -0.631162
      25A     -0.625780    26A     -0.583774    27A     -0.582203
      28A     -0.577206    29A     -0.576781    30A     -0.563891
      31A     -0.535889    32A     -0.530362    33A     -0.528229
      34A     -0.499820    35A     -0.489050    36A     -0.486303
      37A     -0.483652    38A     -0.449938    39A     -0.448425
      40A     -0.447434    41A     -0.333275    42A     -0.323856

    Virtual:

      43A      0.131693    44A      0.136034    45A      0.169834
      46A      0.192548    47A      0.202876    48A      0.207590
      49A      0.229435    50A      0.233161    51A      0.239623
      52A      0.251936    53A      0.255934    54A      0.260239
      55A      0.276327    56A      0.280524    57A      0.288183
      58A      0.295884    59A      0.306320    60A      0.315167
      61A      0.317986    62A      0.340812    63A      0.365982
      64A      0.371966    65A      0.377036    66A      0.412561
      67A      0.418998    68A      0.450486    69A      0.461325
      70A      0.477807    71A      0.489019    72A      0.551302
      73A      0.566539    74A      0.578018    75A      0.589681
      76A      0.614352    77A      0.619295    78A      0.627276
      79A      0.635946    80A      0.674896    81A      0.686553
      82A      0.698884    83A      0.727502    84A      0.735791
      85A      0.742118    86A      0.749843    87A      0.754914
      88A      0.759640    89A      0.774203    90A      0.788263
      91A      0.793986    92A      0.810869    93A      0.824973
      94A      0.837871    95A      0.849322    96A      0.851203
      97A      0.865221    98A      0.871257    99A      0.874403
     100A      0.877685   101A      0.891825   102A      0.893412
     103A      0.901949   104A      0.908162   105A      0.912130
     106A      0.914862   107A      0.921684   108A      0.923791
     109A      0.932428   110A      0.937728   111A      0.953552
     112A      0.955437   113A      0.965704   114A      0.971910
     115A      0.988379   116A      0.998753   117A      1.007364
     118A      1.020315   119A      1.043278   120A      1.113563
     121A      1.128508   122A      1.133921   123A      1.139270
     124A      1.145085   125A      1.149034   126A      1.159242
     127A      1.190999   128A      1.219412   129A      1.234390
     130A      1.240606   131A      1.251313   132A      1.260032
     133A      1.294292   134A      1.304350   135A      1.315930
     136A      1.322409   137A      1.384346   138A      1.405648
     139A      1.422042   140A      1.435536   141A      1.504599
     142A      1.512569   143A      1.550273   144A      1.555475
     145A      1.563263   146A      1.600875   147A      1.665522
     148A      1.671063   149A      1.679022   150A      1.691781
     151A      1.696513   152A      1.696937   153A      1.711549
     154A      1.728068   155A      1.731335   156A      1.745793
     157A      1.751238   158A      1.780439   159A      1.798461
     160A      1.825980   161A      1.846096   162A      1.849999
     163A      1.862022   164A      1.876485   165A      1.884467
     166A      1.899738   167A      1.906827   168A      1.909567
     169A      1.929955   170A      1.935813   171A      1.943378
     172A      1.949751   173A      1.956500   174A      1.959369
     175A      1.964980   176A      1.970633   177A      1.981523
     178A      1.987259   179A      1.999134   180A      2.003900
     181A      2.012340   182A      2.024448   183A      2.049741
     184A      2.059626   185A      2.068400   186A      2.076482
     187A      2.094500   188A      2.106153   189A      2.125869
     190A      2.136116   191A      2.144849   192A      2.154299
     193A      2.156986   194A      2.162751   195A      2.170614
     196A      2.175236   197A      2.249263   198A      2.260313
     199A      2.265557   200A      2.271822   201A      2.291609
     202A      2.298234   203A      2.306462   204A      2.320127
     205A      2.325808   206A      2.339402   207A      2.349788
     208A      2.377602   209A      2.384827   210A      2.465598
     211A      2.469029   212A      2.488514   213A      2.489334
     214A      2.534482   215A      2.595000   216A      2.609774
     217A      2.616866   218A      2.633909   219A      2.712954
     220A      2.729934   221A      2.743327   222A      2.751621
     223A      2.762337   224A      2.768224   225A      2.780338
     226A      2.798524   227A      2.800502   228A      2.801529
     229A      2.813123   230A      2.843695   231A      2.849657
     232A      2.859305   233A      2.863997   234A      2.868466
     235A      2.974188   236A      3.001855   237A      3.016376
     238A      3.030198   239A      3.036394   240A      3.145991
     241A      3.160781   242A      3.189378   243A      3.285259
     244A      3.950070

    Final Occupation by Irrep:
              A
    DOCC [    42 ]

  @RHF Final Energy:  -427.06759364844328

   => Energetics <=

    Nuclear Repulsion Energy =            592.6943128082494923
    One-Electron Energy =               -1751.6412282588066773
    Two-Electron Energy =                 731.8793218021140774
    Total Energy =                       -427.0675936484432214

Computation Completed

Properties will be evaluated at   0.000000,   0.000000,   0.000000 [a0]

Properties computed using the SCF density matrix

  Nuclear Dipole Moment: [e a0]
     X:     4.9669      Y:     4.2019      Z:     9.7234

  Electronic Dipole Moment: [e a0]
     X:    -5.2145      Y:    -4.2001      Z:    -9.8405

  Dipole Moment: [e a0]
     X:    -0.2476      Y:     0.0018      Z:    -0.1171     Total:     0.2739

  Dipole Moment: [D]
     X:    -0.6293      Y:     0.0045      Z:    -0.2976     Total:     0.6962

*** tstop() called on ds3 at Mon Apr 27 23:49:07 2020
Module time:
	user time   =     209.06 seconds =       3.48 minutes
	system time =      76.90 seconds =       1.28 minutes
	total time  =        275 seconds =       4.58 minutes
Total time:
	user time   =     209.06 seconds =       3.48 minutes
	system time =      76.90 seconds =       1.28 minutes
	total time  =        275 seconds =       4.58 minutes
                                     G D M A

                                 by Anthony Stone

                           version 2.2.06, 22 June 2011

               Distributed Multipoles from Gaussian wavefunctions

Starting at 23:49:7 on 27 Apr 2020

Using SCF density matrix from file ./SSI/SSI-006VAL-175PHE-1-dimer.test.3904.fchk

                         Distributed Multipole Analysis

Standard DMA

Positions and radii in angstrom
Multipole moments in atomic units, ea_0^k for rank k

C          x =  1.418730  y =  0.656779  z =  1.716446 angstrom
           Maximum rank =  0   Radius =  0.650 angstrom
                   Q00  =  -0.002055

C          x =  1.059730  y =  1.746779  z =  2.738446 angstrom
           Maximum rank =  0   Radius =  0.650 angstrom
                   Q00  =  -0.235940

C          x =  2.670730  y =  1.043779  z =  0.932446 angstrom
           Maximum rank =  0   Radius =  0.650 angstrom
                   Q00  =  -0.237704

C          x =  1.629730  y = -0.688221  z =  2.406446 angstrom
           Maximum rank =  0   Radius =  0.650 angstrom
                   Q00  =  -0.241719

H          x =  0.594730  y =  0.548779  z =  1.012446 angstrom
           Maximum rank =  0   Radius =  0.325 angstrom
                   Q00  =   0.032979

H          x =  1.841730  y =  1.780779  z =  3.496446 angstrom
           Maximum rank =  0   Radius =  0.325 angstrom
                   Q00  =   0.072921

H          x =  3.484730  y =  1.287779  z =  1.616446 angstrom
           Maximum rank =  0   Radius =  0.325 angstrom
                   Q00  =   0.070694

H          x =  2.976730  y =  0.216779  z =  0.291446 angstrom
           Maximum rank =  0   Radius =  0.325 angstrom
                   Q00  =   0.075544

H          x =  2.468730  y =  1.898779  z =  0.290446 angstrom
           Maximum rank =  0   Radius =  0.325 angstrom
                   Q00  =   0.078688

H          x =  0.715730  y = -0.994221  z =  2.917446 angstrom
           Maximum rank =  0   Radius =  0.325 angstrom
                   Q00  =   0.078102

H          x =  1.872730  y = -1.449221  z =  1.664446 angstrom
           Maximum rank =  0   Radius =  0.325 angstrom
                   Q00  =   0.078103

H          x =  2.440730  y = -0.617221  z =  3.132446 angstrom
           Maximum rank =  0   Radius =  0.325 angstrom
                   Q00  =   0.069870

H          x =  0.089130  y =  1.541329  z =  3.213550 angstrom
           Maximum rank =  0   Radius =  0.325 angstrom
                   Q00  =   0.079657

H          x =  0.977320  y =  2.724829  z =  2.241831 angstrom
           Maximum rank =  0   Radius =  0.325 angstrom
                   Q00  =   0.077510

C          x = -3.406270  y =  0.271779  z = -0.924554 angstrom
           Maximum rank =  0   Radius =  0.650 angstrom
                   Q00  =  -0.200522

C          x =  0.271730  y =  0.274779  z = -1.931554 angstrom
           Maximum rank =  0   Radius =  0.650 angstrom
                   Q00  =  -0.077527

C          x =  0.692730  y = -0.974221  z = -1.469554 angstrom
           Maximum rank =  0   Radius =  0.650 angstrom
                   Q00  =  -0.091377

C          x = -1.055270  y =  0.675779  z = -1.754554 angstrom
           Maximum rank =  0   Radius =  0.650 angstrom
                   Q00  =  -0.057040

C          x = -1.969270  y = -0.159221  z = -1.105554 angstrom
           Maximum rank =  0   Radius =  0.650 angstrom
                   Q00  =  -0.104895

C          x = -0.215270  y = -1.815221  z = -0.826554 angstrom
           Maximum rank =  0   Radius =  0.650 angstrom
                   Q00  =  -0.070423

C          x = -1.542270  y = -1.409221  z = -0.652554 angstrom
           Maximum rank =  0   Radius =  0.650 angstrom
                   Q00  =  -0.015525

H          x =  0.970730  y =  0.932779  z = -2.431554 angstrom
           Maximum rank =  0   Radius =  0.325 angstrom
                   Q00  =   0.067824

H          x =  1.716730  y = -1.290221  z = -1.605554 angstrom
           Maximum rank =  0   Radius =  0.325 angstrom
                   Q00  =   0.064276

H          x = -1.374270  y =  1.639779  z = -2.125554 angstrom
           Maximum rank =  0   Radius =  0.325 angstrom
                   Q00  =   0.058769

H          x =  0.105730  y = -2.784221  z = -0.467554 angstrom
           Maximum rank =  0   Radius =  0.325 angstrom
                   Q00  =   0.067571

H          x = -4.043270  y = -0.613221  z = -0.888554 angstrom
           Maximum rank =  0   Radius =  0.325 angstrom
                   Q00  =   0.098538

H          x = -3.709270  y =  0.845779  z = -1.802554 angstrom
           Maximum rank =  0   Radius =  0.325 angstrom
                   Q00  =   0.097911

H          x = -2.239270  y = -2.070221  z = -0.154554 angstrom
           Maximum rank =  0   Radius =  0.325 angstrom
                   Q00  =   0.059452

H          x = -3.591240  y =  0.883319  z = -0.029114 angstrom
           Maximum rank =  0   Radius =  0.325 angstrom
                   Q00  =   0.106318

Total multipoles referred to origin at
           x =   0.000000,  y =    0.000000,  z =    0.000000 angstrom
                   Q00  =  -0.000000

Finished at 23:49:7 on 27 Apr 2020

  DMA results are available in the Python driver through the
	  variable('DMA DISTRIBUTED MULTIPOLES')
  and
	  variable('DMA TOTAL MULTIPOLES')
  commands.

    Psi4 stopped on: Monday, 27 April 2020 11:49PM
    Psi4 wall time for execution: 0:04:35.79

*** Psi4 exiting successfully. Buy a developer a beer!
