                               Psi4 1.3.2 release

  ==> Input File <==

--------------------------------------------------------------------------
import numpy as np
set {scf_type pk
basis cc-pvdz
d_convergence 10
gdma_switch   0
gdma_limit    0
gdma_origin   [ 0.0,  0.0,  0.0 ]
}
molecule test {
    units Angstrom
    0 1
    --
    0 1
    C                2.353304565551145     0.494531910062216    -0.723488686203525
    C               -0.090695434448855     0.590531910062216    -0.180488686203525
    C                1.224304565551145     0.710531910062216     0.263511313796475
    C               -1.154695434448854     0.791531910062216     0.686511313796475
    C                1.453304565551145     1.112531910062216     1.586511313796475
    C               -0.925695434448855     1.149531910062217     2.008511313796475
    C                0.380304565551145     1.313531910062216     2.461511313796475
    H               -0.292695434448855     0.331531910062216    -1.208488686203525
    H               -2.166695434448854     0.693531910062216     0.321511313796475
    H                2.610304565551145     1.462531910062217    -1.154488686203525
    H                1.988304565551145    -0.139468089937784    -1.532488686203525
    H                2.455304565551145     1.271531910062216     1.946511313796475
    H               -1.754695434448855     1.293531910062216     2.683511313796475
    H                0.554304565551145     1.609531910062217     3.483511313796475
    H                3.261174565551145     0.031623910062216    -0.309388686203525
    C               -0.909695434448855    -2.421468089937783    -2.201488686203525
    C               -2.125695434448855    -2.948468089937784    -2.959488686203525
    H               -0.110695434448855    -3.147468089937783    -2.102488686203524
    H               -0.522695434448855    -1.546468089937784    -2.724488686203525
    H               -1.214695434448855    -2.107468089937783    -1.202488686203524
    H               -1.826695434448855    -3.263468089937783    -3.960488686203525
    H               -2.847695434448855    -2.136468089937784    -3.039488686203525
    H               -2.570646434448855    -3.792588089937784    -2.412238686203525

}
e, wfn = energy('scf', return_wfn=True)
gdma(wfn)
dmavals = variable('DMA DISTRIBUTED MULTIPOLES')
charges = np.array(dmavals)
print(charges)
np.save('SSI-021PHE-054ILE-1-dimer.npy', np.array(charges))--------------------------------------------------------------------------

*** tstart() called on ds3
*** at Sun Apr 26 23:55:51 2020

   => Loading Basis Set <=

    Name: CC-PVDZ
    Role: ORBITAL
    Keyword: BASIS
    atoms 1-7, 16-17  entry C          line   138 file /theoryfs2/ds/metcalf/miniconda2/envs/tf2gpu/share/psi4/basis/cc-pvdz.gbs
    atoms 8-15, 18-23 entry H          line    22 file /theoryfs2/ds/metcalf/miniconda2/envs/tf2gpu/share/psi4/basis/cc-pvdz.gbs

         ---------------------------------------------------------
                                   SCF
               by Justin Turney, Rob Parrish, Andy Simmonett
                          and Daniel G. A. Smith
                              RHF Reference
                        1 Threads,    500 MiB Core
         ---------------------------------------------------------

  ==> Geometry <==

    Molecular point group: c1
    Full point group: C1

    Geometry (in Angstrom), charge = 0, multiplicity = 1:

       Center              X                  Y                   Z               Mass
    ------------   -----------------  -----------------  -----------------  -----------------
         C            2.353304565551     0.494531910062    -0.723488686204    12.000000000000
         C           -0.090695434449     0.590531910062    -0.180488686204    12.000000000000
         C            1.224304565551     0.710531910062     0.263511313796    12.000000000000
         C           -1.154695434449     0.791531910062     0.686511313796    12.000000000000
         C            1.453304565551     1.112531910062     1.586511313796    12.000000000000
         C           -0.925695434449     1.149531910062     2.008511313796    12.000000000000
         C            0.380304565551     1.313531910062     2.461511313796    12.000000000000
         H           -0.292695434449     0.331531910062    -1.208488686204     1.007825032230
         H           -2.166695434449     0.693531910062     0.321511313796     1.007825032230
         H            2.610304565551     1.462531910062    -1.154488686204     1.007825032230
         H            1.988304565551    -0.139468089938    -1.532488686204     1.007825032230
         H            2.455304565551     1.271531910062     1.946511313796     1.007825032230
         H           -1.754695434449     1.293531910062     2.683511313796     1.007825032230
         H            0.554304565551     1.609531910062     3.483511313796     1.007825032230
         H            3.261174565551     0.031623910062    -0.309388686204     1.007825032230
         C           -0.909695434449    -2.421468089938    -2.201488686204    12.000000000000
         C           -2.125695434449    -2.948468089938    -2.959488686204    12.000000000000
         H           -0.110695434449    -3.147468089938    -2.102488686204     1.007825032230
         H           -0.522695434449    -1.546468089938    -2.724488686204     1.007825032230
         H           -1.214695434449    -2.107468089938    -1.202488686204     1.007825032230
         H           -1.826695434449    -3.263468089938    -3.960488686204     1.007825032230
         H           -2.847695434449    -2.136468089938    -3.039488686204     1.007825032230
         H           -2.570646434449    -3.792588089938    -2.412238686204     1.007825032230

  Running in c1 symmetry.

  Rotational constants: A =      0.07602  B =      0.02211  C =      0.01798 [cm^-1]
  Rotational constants: A =   2278.92895  B =    662.76863  C =    539.05477 [MHz]
  Nuclear repulsion =  400.958756465388831

  Charge       = 0
  Multiplicity = 1
  Electrons    = 68
  Nalpha       = 34
  Nbeta        = 34

  ==> Algorithm <==

  SCF Algorithm Type is PK.
  DIIS enabled.
  MOM disabled.
  Fractional occupation disabled.
  Guess Type is SAD.
  Energy threshold   = 1.00e-06
  Density threshold  = 1.00e-10
  Integral threshold = 0.00e+00

  ==> Primary Basis <==

  Basis Set: CC-PVDZ
    Blend: CC-PVDZ
    Number of shells: 96
    Number of basis function: 196
    Number of Cartesian functions: 205
    Spherical Harmonics?: true
    Max angular momentum: 2

  ==> Pre-Iterations <==

   -------------------------------------------------------
    Irrep   Nso     Nmo     Nalpha   Nbeta   Ndocc  Nsocc
   -------------------------------------------------------
     A        196     196       0       0       0       0
   -------------------------------------------------------
    Total     196     196      34      34      34       0
   -------------------------------------------------------

  ==> Integral Setup <==

  Using integral reordering PK algorithm.
  Sizing the integral batches needed.
  Building batch lookup table.
   Calculation information:
      Number of atoms:                  23
      Number of AO shells:              96
      Number of primitives:            268
      Number of atomic orbitals:       205
      Number of basis functions:       196

      Integral cutoff                 1.00e-12
      Number of threads:                 1

	Batch   1 pq = [       0,    9405] index = [             0,44231715] size =     44231715
	Batch   2 pq = [    9405,   13301] index = [      44231715,88464951] size =     44233236
	Batch   3 pq = [   13301,   16290] index = [      88464951,132690195] size =     44225244
	Batch   4 pq = [   16290,   18810] index = [     132690195,176917455] size =     44227260
	Batch   5 pq = [   18810,   19306] index = [     176917455,186370471] size =      9453016
  Task number: 17
  Buffer size: 11059200
  Buffer per thread: 2
  We computed 8949487 shell quartets total.
  Whereas there are 10841496 unique shell quartets.

  ==> DiskJK: Disk-Based J/K Matrices <==

    J tasked:                  Yes
    K tasked:                  Yes
    wK tasked:                  No
    Memory [MiB]:              375
    Schwarz Cutoff:          1E-12

    OpenMP threads:              1

  Minimum eigenvalue in the overlap matrix is 3.1075140260E-04.
  Using Symmetric Orthogonalization.

  SCF Guess: Superposition of Atomic Densities via on-the-fly atomic UHF.

  ==> Iterations <==

                        Total Energy        Delta E     RMS |[F,P]|

   @RHF iter SAD:  -347.85494443899222   -3.47855e+02   0.00000e+00
   @RHF iter   1:  -348.76743636304991   -9.12492e-01   2.89052e-03 DIIS
   @RHF iter   2:  -348.95975095473176   -1.92315e-01   1.19247e-03 DIIS
   @RHF iter   3:  -348.98954551128526   -2.97946e-02   2.56697e-04 DIIS
   @RHF iter   4:  -348.99201180420573   -2.46629e-03   4.85265e-05 DIIS
   @RHF iter   5:  -348.99207700733660   -6.52031e-05   1.60737e-05 DIIS
   @RHF iter   6:  -348.99208347843665   -6.47110e-06   4.31827e-06 DIIS
   @RHF iter   7:  -348.99208401117812   -5.32741e-07   1.32454e-06 DIIS
   @RHF iter   8:  -348.99208406488503   -5.37069e-08   3.17069e-07 DIIS
   @RHF iter   9:  -348.99208407134478   -6.45974e-09   1.46168e-07 DIIS
   @RHF iter  10:  -348.99208407279230   -1.44752e-09   6.78874e-08 DIIS
   @RHF iter  11:  -348.99208407331412   -5.21823e-10   2.73824e-08 DIIS
   @RHF iter  12:  -348.99208407339449   -8.03766e-11   1.29961e-08 DIIS
   @RHF iter  13:  -348.99208407340501   -1.05160e-11   4.40719e-09 DIIS
   @RHF iter  14:  -348.99208407340655   -1.53477e-12   1.12870e-09 DIIS
   @RHF iter  15:  -348.99208407340672   -1.70530e-13   3.76204e-10 DIIS
   @RHF iter  16:  -348.99208407340734   -6.25278e-13   1.11604e-10 DIIS
   @RHF iter  17:  -348.99208407340728    5.68434e-14   4.28298e-11 DIIS
  Energy and wave function converged.

  ==> Post-Iterations <==

    Orbital Energies [Eh]
    ---------------------

    Doubly Occupied:

       1A    -11.241928     2A    -11.234998     3A    -11.233051
       4A    -11.231144     5A    -11.229785     6A    -11.229408
       7A    -11.227656     8A    -11.219083     9A    -11.215640
      10A     -1.150658    11A     -1.042040    12A     -1.020023
      13A     -1.010153    14A     -0.930446    15A     -0.838244
      16A     -0.822968    17A     -0.795028    18A     -0.690538
      19A     -0.630534    20A     -0.628410    21A     -0.600483
      22A     -0.598817    23A     -0.581153    24A     -0.575184
      25A     -0.562172    26A     -0.534449    27A     -0.501738
      28A     -0.490234    29A     -0.488620    30A     -0.484179
      31A     -0.480764    32A     -0.478095    33A     -0.330642
      34A     -0.320549

    Virtual:

      35A      0.137381    36A      0.140918    37A      0.171632
      38A      0.194461    39A      0.199733    40A      0.219571
      41A      0.234505    42A      0.242192    43A      0.248916
      44A      0.260533    45A      0.268479    46A      0.275736
      47A      0.282879    48A      0.291493    49A      0.297832
      50A      0.340343    51A      0.364611    52A      0.375998
      53A      0.401249    54A      0.453820    55A      0.465976
      56A      0.476485    57A      0.495409    58A      0.557875
      59A      0.595117    60A      0.599749    61A      0.601220
      62A      0.605176    63A      0.649234    64A      0.672195
      65A      0.682898    66A      0.688221    67A      0.696847
      68A      0.713990    69A      0.720491    70A      0.737141
      71A      0.743207    72A      0.748815    73A      0.762846
      74A      0.764855    75A      0.788445    76A      0.793125
      77A      0.833566    78A      0.852007    79A      0.862388
      80A      0.870389    81A      0.874769    82A      0.878761
      83A      0.892451    84A      0.894013    85A      0.896994
      86A      0.900931    87A      0.910813    88A      0.916616
      89A      0.931939    90A      0.940087    91A      0.950599
      92A      0.975511    93A      0.998887    94A      1.004161
      95A      1.035589    96A      1.051258    97A      1.119702
      98A      1.124582    99A      1.135178   100A      1.147127
     101A      1.159096   102A      1.172191   103A      1.194718
     104A      1.227145   105A      1.231350   106A      1.238968
     107A      1.254905   108A      1.260595   109A      1.295801
     110A      1.309398   111A      1.327665   112A      1.339446
     113A      1.413731   114A      1.465416   115A      1.483502
     116A      1.510241   117A      1.522022   118A      1.562972
     119A      1.580104   120A      1.601420   121A      1.672125
     122A      1.679235   123A      1.700071   124A      1.705623
     125A      1.739330   126A      1.744800   127A      1.762883
     128A      1.792919   129A      1.814639   130A      1.853405
     131A      1.861980   132A      1.875239   133A      1.885100
     134A      1.892925   135A      1.910168   136A      1.910937
     137A      1.924162   138A      1.925541   139A      1.939529
     140A      1.944922   141A      1.948181   142A      1.955609
     143A      1.957134   144A      1.961879   145A      1.969352
     146A      1.980832   147A      1.992907   148A      2.000525
     149A      2.043983   150A      2.077718   151A      2.083387
     152A      2.094407   153A      2.115531   154A      2.120299
     155A      2.141072   156A      2.160269   157A      2.166222
     158A      2.168186   159A      2.180494   160A      2.262080
     161A      2.275992   162A      2.290039   163A      2.295682
     164A      2.305069   165A      2.322190   166A      2.329632
     167A      2.339988   168A      2.449160   169A      2.456785
     170A      2.471725   171A      2.477387   172A      2.492112
     173A      2.548148   174A      2.568215   175A      2.574271
     176A      2.632153   177A      2.736988   178A      2.749457
     179A      2.769845   180A      2.774216   181A      2.786362
     182A      2.793198   183A      2.821469   184A      2.846119
     185A      2.853828   186A      2.859466   187A      2.865202
     188A      2.958066   189A      2.970088   190A      2.987310
     191A      3.019359   192A      3.024671   193A      3.162132
     194A      3.202046   195A      3.303825   196A      3.964333

    Final Occupation by Irrep:
              A
    DOCC [    34 ]

  @RHF Final Energy:  -348.99208407340728

   => Energetics <=

    Nuclear Repulsion Energy =            400.9587564653888307
    One-Electron Energy =               -1264.6040489314561910
    Two-Electron Energy =                 514.6532083926599626
    Total Energy =                       -348.9920840734073408

Computation Completed

Properties will be evaluated at   0.000000,   0.000000,   0.000000 [a0]

Properties computed using the SCF density matrix

  Nuclear Dipole Moment: [e a0]
     X:    -2.2854      Y:    -8.8493      Z:   -10.5104

  Electronic Dipole Moment: [e a0]
     X:     2.3867      Y:     8.8586      Z:    10.4262

  Dipole Moment: [e a0]
     X:     0.1013      Y:     0.0093      Z:    -0.0842     Total:     0.1321

  Dipole Moment: [D]
     X:     0.2576      Y:     0.0237      Z:    -0.2141     Total:     0.3358

*** tstop() called on ds3 at Sun Apr 26 23:57:18 2020
Module time:
	user time   =      62.31 seconds =       1.04 minutes
	system time =      27.86 seconds =       0.46 minutes
	total time  =         87 seconds =       1.45 minutes
Total time:
	user time   =      62.31 seconds =       1.04 minutes
	system time =      27.86 seconds =       0.46 minutes
	total time  =         87 seconds =       1.45 minutes
                                     G D M A

                                 by Anthony Stone

                           version 2.2.06, 22 June 2011

               Distributed Multipoles from Gaussian wavefunctions

Starting at 23:57:18 on 26 Apr 2020

Using SCF density matrix from file ./SSI/SSI-021PHE-054ILE-1-dimer.test.5419.fchk

                         Distributed Multipole Analysis

Standard DMA

Positions and radii in angstrom
Multipole moments in atomic units, ea_0^k for rank k

C          x =  2.353305  y =  0.494532  z = -0.723489 angstrom
           Maximum rank =  0   Radius =  0.650 angstrom
                   Q00  =  -0.215506

C          x = -0.090695  y =  0.590532  z = -0.180489 angstrom
           Maximum rank =  0   Radius =  0.650 angstrom
                   Q00  =  -0.003257

C          x =  1.224305  y =  0.710532  z =  0.263511 angstrom
           Maximum rank =  0   Radius =  0.650 angstrom
                   Q00  =  -0.098259

C          x = -1.154695  y =  0.791532  z =  0.686511 angstrom
           Maximum rank =  0   Radius =  0.650 angstrom
                   Q00  =  -0.044309

C          x =  1.453305  y =  1.112532  z =  1.586511 angstrom
           Maximum rank =  0   Radius =  0.650 angstrom
                   Q00  =  -0.090166

C          x = -0.925695  y =  1.149532  z =  2.008511 angstrom
           Maximum rank =  0   Radius =  0.650 angstrom
                   Q00  =  -0.078971

C          x =  0.380305  y =  1.313532  z =  2.461511 angstrom
           Maximum rank =  0   Radius =  0.650 angstrom
                   Q00  =  -0.078203

H          x = -0.292695  y =  0.331532  z = -1.208489 angstrom
           Maximum rank =  0   Radius =  0.325 angstrom
                   Q00  =   0.058635

H          x = -2.166695  y =  0.693532  z =  0.321511 angstrom
           Maximum rank =  0   Radius =  0.325 angstrom
                   Q00  =   0.061658

H          x =  2.610305  y =  1.462532  z = -1.154489 angstrom
           Maximum rank =  0   Radius =  0.325 angstrom
                   Q00  =   0.104052

H          x =  1.988305  y = -0.139468  z = -1.532489 angstrom
           Maximum rank =  0   Radius =  0.325 angstrom
                   Q00  =   0.098415

H          x =  2.455305  y =  1.271532  z =  1.946511 angstrom
           Maximum rank =  0   Radius =  0.325 angstrom
                   Q00  =   0.056658

H          x = -1.754695  y =  1.293532  z =  2.683511 angstrom
           Maximum rank =  0   Radius =  0.325 angstrom
                   Q00  =   0.060580

H          x =  0.554305  y =  1.609532  z =  3.483511 angstrom
           Maximum rank =  0   Radius =  0.325 angstrom
                   Q00  =   0.065019

H          x =  3.261175  y =  0.031624  z = -0.309389 angstrom
           Maximum rank =  0   Radius =  0.325 angstrom
                   Q00  =   0.103544

C          x = -0.909695  y = -2.421468  z = -2.201489 angstrom
           Maximum rank =  0   Radius =  0.650 angstrom
                   Q00  =  -0.231682

C          x = -2.125695  y = -2.948468  z = -2.959489 angstrom
           Maximum rank =  0   Radius =  0.650 angstrom
                   Q00  =  -0.240701

H          x = -0.110695  y = -3.147468  z = -2.102489 angstrom
           Maximum rank =  0   Radius =  0.325 angstrom
                   Q00  =   0.083911

H          x = -0.522695  y = -1.546468  z = -2.724489 angstrom
           Maximum rank =  0   Radius =  0.325 angstrom
                   Q00  =   0.068496

H          x = -1.214695  y = -2.107468  z = -1.202489 angstrom
           Maximum rank =  0   Radius =  0.325 angstrom
                   Q00  =   0.083160

H          x = -1.826695  y = -3.263468  z = -3.960489 angstrom
           Maximum rank =  0   Radius =  0.325 angstrom
                   Q00  =   0.079103

H          x = -2.847695  y = -2.136468  z = -3.039489 angstrom
           Maximum rank =  0   Radius =  0.325 angstrom
                   Q00  =   0.078099

H          x = -2.570646  y = -3.792588  z = -2.412239 angstrom
           Maximum rank =  0   Radius =  0.325 angstrom
                   Q00  =   0.079725

Total multipoles referred to origin at
           x =   0.000000,  y =    0.000000,  z =    0.000000 angstrom
                   Q00  =  -0.000000

Finished at 23:57:18 on 26 Apr 2020

  DMA results are available in the Python driver through the
	  variable('DMA DISTRIBUTED MULTIPOLES')
  and
	  variable('DMA TOTAL MULTIPOLES')
  commands.

    Psi4 stopped on: Sunday, 26 April 2020 11:57PM
    Psi4 wall time for execution: 0:01:27.07

*** Psi4 exiting successfully. Buy a developer a beer!
