                               Psi4 1.3.2 release

  ==> Input File <==

--------------------------------------------------------------------------
import numpy as np
set {scf_type pk
basis cc-pvdz
d_convergence 10
gdma_switch   0
gdma_limit    0
gdma_origin   [ 0.0,  0.0,  0.0 ]
}
molecule test {
    units Angstrom
    0 1
    --
    0 1
    C               -0.029719494196515    -0.635973289690681    -0.484162087174997
    C               -0.889719494196515    -1.831973289690681    -0.018162087174997
    C                0.971280505803485    -2.237973289690681    -2.064162087174997
    N                0.968280505803485    -1.051973289690681    -1.476162087174997
    N                0.003280505803485    -3.114973289690681    -1.865162087174997
    N                1.942280505803485    -2.567973289690682    -2.887162087174997
    H               -0.672719494196515     0.141026710309319    -0.898162087174997
    H                0.504280505803485    -0.227973289690681     0.375837912825003
    H               -0.263719494196515    -2.693973289690681     0.231837912825003
    H               -1.778719494196515    -1.980973289690681    -0.638162087174997
    H                1.669280505803485    -0.377973289690681    -1.751162087174997
    H               -0.932719494196515    -2.756973289690681    -1.802162087174997
    H                0.094280505803485    -4.030973289690681    -2.281162087174997
    H                2.705280505803485    -1.935973289690681    -3.069162087174997
    H                1.993280505803485    -3.492973289690681    -3.283162087174997
    H               -1.185599494196515    -1.831973289690681     1.041297912825003
    C                0.421280505803485     3.494026710309319     2.702837912825003
    C               -0.811719494196515     2.838026710309319     2.185837912825003
    O               -0.650719494196515     1.838026710309319     1.444837912825003
    O               -1.915719494196515     3.353026710309319     2.493837912825003
    H                0.169280505803485     4.181026710309319     3.515837912825003
    H                0.820280505803485     4.077026710309318     1.870837912825003
    H                1.154450505803485     2.760136710309319     3.068697912825002

}
e, wfn = energy('scf', return_wfn=True)
gdma(wfn)
dmavals = variable('DMA DISTRIBUTED MULTIPOLES')
charges = np.array(dmavals)
print(charges)
np.save('SSI-001ARG-005ASP-1-dimer.npy', np.array(charges))--------------------------------------------------------------------------

*** tstart() called on ds3
*** at Mon Apr 27 14:10:45 2020

   => Loading Basis Set <=

    Name: CC-PVDZ
    Role: ORBITAL
    Keyword: BASIS
    atoms 1-3, 17-18  entry C          line   138 file /theoryfs2/ds/metcalf/miniconda2/envs/tf2gpu/share/psi4/basis/cc-pvdz.gbs
    atoms 4-6         entry N          line   168 file /theoryfs2/ds/metcalf/miniconda2/envs/tf2gpu/share/psi4/basis/cc-pvdz.gbs
    atoms 7-16, 21-23 entry H          line    22 file /theoryfs2/ds/metcalf/miniconda2/envs/tf2gpu/share/psi4/basis/cc-pvdz.gbs
    atoms 19-20       entry O          line   198 file /theoryfs2/ds/metcalf/miniconda2/envs/tf2gpu/share/psi4/basis/cc-pvdz.gbs

         ---------------------------------------------------------
                                   SCF
               by Justin Turney, Rob Parrish, Andy Simmonett
                          and Daniel G. A. Smith
                              RHF Reference
                        1 Threads,    500 MiB Core
         ---------------------------------------------------------

  ==> Geometry <==

    Molecular point group: c1
    Full point group: C1

    Geometry (in Angstrom), charge = 0, multiplicity = 1:

       Center              X                  Y                   Z               Mass
    ------------   -----------------  -----------------  -----------------  -----------------
         C           -0.029719494197    -0.635973289691    -0.484162087175    12.000000000000
         C           -0.889719494197    -1.831973289691    -0.018162087175    12.000000000000
         C            0.971280505803    -2.237973289691    -2.064162087175    12.000000000000
         N            0.968280505803    -1.051973289691    -1.476162087175    14.003074004430
         N            0.003280505803    -3.114973289691    -1.865162087175    14.003074004430
         N            1.942280505803    -2.567973289691    -2.887162087175    14.003074004430
         H           -0.672719494197     0.141026710309    -0.898162087175     1.007825032230
         H            0.504280505803    -0.227973289691     0.375837912825     1.007825032230
         H           -0.263719494197    -2.693973289691     0.231837912825     1.007825032230
         H           -1.778719494197    -1.980973289691    -0.638162087175     1.007825032230
         H            1.669280505803    -0.377973289691    -1.751162087175     1.007825032230
         H           -0.932719494197    -2.756973289691    -1.802162087175     1.007825032230
         H            0.094280505803    -4.030973289691    -2.281162087175     1.007825032230
         H            2.705280505803    -1.935973289691    -3.069162087175     1.007825032230
         H            1.993280505803    -3.492973289691    -3.283162087175     1.007825032230
         H           -1.185599494197    -1.831973289691     1.041297912825     1.007825032230
         C            0.421280505803     3.494026710309     2.702837912825    12.000000000000
         C           -0.811719494197     2.838026710309     2.185837912825    12.000000000000
         O           -0.650719494197     1.838026710309     1.444837912825    15.994914619570
         O           -1.915719494197     3.353026710309     2.493837912825    15.994914619570
         H            0.169280505803     4.181026710309     3.515837912825     1.007825032230
         H            0.820280505803     4.077026710309     1.870837912825     1.007825032230
         H            1.154450505803     2.760136710309     3.068697912825     1.007825032230

  Running in c1 symmetry.

  Rotational constants: A =      0.10937  B =      0.01079  C =      0.01006 [cm^-1]
  Rotational constants: A =   3278.91366  B =    323.55973  C =    301.72738 [MHz]
  Nuclear repulsion =  514.559582917772786

  Charge       = 0
  Multiplicity = 1
  Electrons    = 80
  Nalpha       = 40
  Nbeta        = 40

  ==> Algorithm <==

  SCF Algorithm Type is PK.
  DIIS enabled.
  MOM disabled.
  Fractional occupation disabled.
  Guess Type is SAD.
  Energy threshold   = 1.00e-06
  Density threshold  = 1.00e-10
  Integral threshold = 0.00e+00

  ==> Primary Basis <==

  Basis Set: CC-PVDZ
    Blend: CC-PVDZ
    Number of shells: 99
    Number of basis function: 205
    Number of Cartesian functions: 215
    Spherical Harmonics?: true
    Max angular momentum: 2

  ==> Pre-Iterations <==

   -------------------------------------------------------
    Irrep   Nso     Nmo     Nalpha   Nbeta   Ndocc  Nsocc
   -------------------------------------------------------
     A        205     205       0       0       0       0
   -------------------------------------------------------
    Total     205     205      40      40      40       0
   -------------------------------------------------------

  ==> Integral Setup <==

  Using integral reordering PK algorithm.
  Sizing the integral batches needed.
  Building batch lookup table.
   Calculation information:
      Number of atoms:                  23
      Number of AO shells:              99
      Number of primitives:            285
      Number of atomic orbitals:       215
      Number of basis functions:       205

      Integral cutoff                 1.00e-12
      Number of threads:                 1

	Batch   1 pq = [       0,    9405] index = [             0,44231715] size =     44231715
	Batch   2 pq = [    9405,   13301] index = [      44231715,88464951] size =     44233236
	Batch   3 pq = [   13301,   16290] index = [      88464951,132690195] size =     44225244
	Batch   4 pq = [   16290,   18810] index = [     132690195,176917455] size =     44227260
	Batch   5 pq = [   18810,   21115] index = [     176917455,222932170] size =     46014715
  Task number: 21
  Buffer size: 11059200
  Buffer per thread: 2
  We computed 8178488 shell quartets total.
  Whereas there are 12253725 unique shell quartets.

  ==> DiskJK: Disk-Based J/K Matrices <==

    J tasked:                  Yes
    K tasked:                  Yes
    wK tasked:                  No
    Memory [MiB]:              375
    Schwarz Cutoff:          1E-12

    OpenMP threads:              1

  Minimum eigenvalue in the overlap matrix is 3.6820554870E-03.
  Using Symmetric Orthogonalization.

  SCF Guess: Superposition of Atomic Densities via on-the-fly atomic UHF.

  ==> Iterations <==

                        Total Energy        Delta E     RMS |[F,P]|

   @RHF iter SAD:  -508.84322992464962   -5.08843e+02   0.00000e+00
   @RHF iter   1:  -509.55780355348224   -7.14574e-01   4.02750e-03 DIIS
   @RHF iter   2:  -509.83193516417288   -2.74132e-01   2.08892e-03 DIIS
   @RHF iter   3:  -509.89982316779481   -6.78880e-02   3.80803e-04 DIIS
   @RHF iter   4:  -509.90382185055722   -3.99868e-03   1.34355e-04 DIIS
   @RHF iter   5:  -509.90430684669201   -4.84996e-04   2.58244e-05 DIIS
   @RHF iter   6:  -509.90433489790814   -2.80512e-05   9.69197e-06 DIIS
   @RHF iter   7:  -509.90433775846503   -2.86056e-06   3.22073e-06 DIIS
   @RHF iter   8:  -509.90433823146992   -4.73005e-07   1.49391e-06 DIIS
   @RHF iter   9:  -509.90433831412179   -8.26519e-08   4.75320e-07 DIIS
   @RHF iter  10:  -509.90433832928807   -1.51663e-08   1.89030e-07 DIIS
   @RHF iter  11:  -509.90433833150939   -2.22133e-09   5.34044e-08 DIIS
   @RHF iter  12:  -509.90433833167492   -1.65528e-10   1.90459e-08 DIIS
   @RHF iter  13:  -509.90433833169078   -1.58593e-11   5.44515e-09 DIIS
   @RHF iter  14:  -509.90433833169391   -3.12639e-12   1.66552e-09 DIIS
   @RHF iter  15:  -509.90433833169595   -2.04636e-12   6.43175e-10 DIIS
   @RHF iter  16:  -509.90433833169118    4.77485e-12   2.23052e-10 DIIS
   @RHF iter  17:  -509.90433833169311   -1.93268e-12   9.26075e-11 DIIS
  Energy and wave function converged.

  ==> Post-Iterations <==

    Orbital Energies [Eh]
    ---------------------

    Doubly Occupied:

       1A    -20.349522     2A    -20.339399     3A    -15.701483
       4A    -15.683414     5A    -15.677849     6A    -11.491779
       7A    -11.307536     8A    -11.263342     9A    -11.196864
      10A    -11.121392    11A     -1.453433    12A     -1.306994
      13A     -1.299852    14A     -1.229384    15A     -1.120932
      16A     -1.070572    17A     -0.966440    18A     -0.923745
      19A     -0.876012    20A     -0.872115    21A     -0.828343
      22A     -0.779223    23A     -0.761156    24A     -0.714657
      25A     -0.676751    26A     -0.664699    27A     -0.591476
      28A     -0.582440    29A     -0.569951    30A     -0.544422
      31A     -0.494717    32A     -0.488705    33A     -0.483279
      34A     -0.480062    35A     -0.467246    36A     -0.419619
      37A     -0.382105    38A     -0.266789    39A     -0.255960
      40A     -0.247555

    Virtual:

      41A      0.074444    42A      0.102595    43A      0.115521
      44A      0.135749    45A      0.153536    46A      0.184509
      47A      0.200665    48A      0.230551    49A      0.243773
      50A      0.259291    51A      0.283976    52A      0.302155
      53A      0.325339    54A      0.332874    55A      0.340990
      56A      0.350952    57A      0.401854    58A      0.406808
      59A      0.437310    60A      0.453005    61A      0.503180
      62A      0.546473    63A      0.559147    64A      0.603054
      65A      0.614277    66A      0.620080    67A      0.629978
      68A      0.636212    69A      0.646974    70A      0.660220
      71A      0.677678    72A      0.698201    73A      0.740814
      74A      0.745949    75A      0.765577    76A      0.790001
      77A      0.796933    78A      0.809780    79A      0.828853
      80A      0.838726    81A      0.847580    82A      0.866505
      83A      0.868487    84A      0.881959    85A      0.901658
      86A      0.903387    87A      0.914290    88A      0.922518
      89A      0.946674    90A      0.952457    91A      0.954510
      92A      0.966802    93A      0.982064    94A      0.988795
      95A      1.005316    96A      1.032101    97A      1.048262
      98A      1.067807    99A      1.079225   100A      1.138024
     101A      1.179075   102A      1.197806   103A      1.226749
     104A      1.248116   105A      1.267171   106A      1.269640
     107A      1.270070   108A      1.320587   109A      1.330545
     110A      1.394917   111A      1.419187   112A      1.440588
     113A      1.442154   114A      1.479038   115A      1.480931
     116A      1.495237   117A      1.509517   118A      1.536291
     119A      1.572033   120A      1.595893   121A      1.611036
     122A      1.622822   123A      1.633759   124A      1.664484
     125A      1.667311   126A      1.690073   127A      1.749502
     128A      1.759904   129A      1.762121   130A      1.785660
     131A      1.789374   132A      1.797225   133A      1.812718
     134A      1.847623   135A      1.856625   136A      1.880117
     137A      1.896238   138A      1.911222   139A      1.929381
     140A      1.946994   141A      1.960719   142A      1.972757
     143A      1.988197   144A      1.995871   145A      2.045262
     146A      2.049944   147A      2.057315   148A      2.076995
     149A      2.101723   150A      2.132451   151A      2.145113
     152A      2.172926   153A      2.174689   154A      2.198989
     155A      2.213514   156A      2.250974   157A      2.268323
     158A      2.282296   159A      2.313741   160A      2.341171
     161A      2.355374   162A      2.369112   163A      2.371963
     164A      2.399133   165A      2.411140   166A      2.449128
     167A      2.477982   168A      2.493835   169A      2.517364
     170A      2.564519   171A      2.585756   172A      2.607095
     173A      2.630175   174A      2.633667   175A      2.672499
     176A      2.685452   177A      2.726435   178A      2.744899
     179A      2.788179   180A      2.802875   181A      2.840639
     182A      2.849591   183A      2.881512   184A      2.894581
     185A      2.921371   186A      2.925544   187A      2.932675
     188A      2.963581   189A      3.018260   190A      3.042805
     191A      3.133755   192A      3.155645   193A      3.184888
     194A      3.192358   195A      3.212937   196A      3.255962
     197A      3.275574   198A      3.529099   199A      3.676767
     200A      3.693170   201A      3.721904   202A      3.770278
     203A      3.964682   204A      4.024859   205A      4.104497

    Final Occupation by Irrep:
              A
    DOCC [    40 ]

  @RHF Final Energy:  -509.90433833169311

   => Energetics <=

    Nuclear Repulsion Energy =            514.5595829177727865
    One-Electron Energy =               -1717.0254189263800981
    Two-Electron Energy =                 692.5614976769142004
    Total Energy =                       -509.9043383316931113

Computation Completed

Properties will be evaluated at   0.000000,   0.000000,   0.000000 [a0]

Properties computed using the SCF density matrix

  Nuclear Dipole Moment: [e a0]
     X:     3.9887      Y:    -7.6151      Z:    -3.3555

  Electronic Dipole Moment: [e a0]
     X:    -0.0303      Y:    -0.4367      Z:    -3.4493

  Dipole Moment: [e a0]
     X:     3.9584      Y:    -8.0518      Z:    -6.8048     Total:    11.2608

  Dipole Moment: [D]
     X:    10.0612      Y:   -20.4656      Z:   -17.2960     Total:    28.6221

*** tstop() called on ds3 at Mon Apr 27 14:12:17 2020
Module time:
	user time   =      63.11 seconds =       1.05 minutes
	system time =      33.83 seconds =       0.56 minutes
	total time  =         92 seconds =       1.53 minutes
Total time:
	user time   =      63.11 seconds =       1.05 minutes
	system time =      33.83 seconds =       0.56 minutes
	total time  =         92 seconds =       1.53 minutes
                                     G D M A

                                 by Anthony Stone

                           version 2.2.06, 22 June 2011

               Distributed Multipoles from Gaussian wavefunctions

Starting at 14:12:17 on 27 Apr 2020

Using SCF density matrix from file ./SSI/SSI-001ARG-005ASP-1-dimer.test.8907.fchk

                         Distributed Multipole Analysis

Standard DMA

Positions and radii in angstrom
Multipole moments in atomic units, ea_0^k for rank k

C          x = -0.029719  y = -0.635973  z = -0.484162 angstrom
           Maximum rank =  0   Radius =  0.650 angstrom
                   Q00  =   0.039075

C          x = -0.889719  y = -1.831973  z = -0.018162 angstrom
           Maximum rank =  0   Radius =  0.650 angstrom
                   Q00  =  -0.284333

C          x =  0.971281  y = -2.237973  z = -2.064162 angstrom
           Maximum rank =  0   Radius =  0.650 angstrom
                   Q00  =   1.064493

N          x =  0.968281  y = -1.051973  z = -1.476162 angstrom
           Maximum rank =  0   Radius =  0.650 angstrom
                   Q00  =  -0.477313

N          x =  0.003281  y = -3.114973  z = -1.865162 angstrom
           Maximum rank =  0   Radius =  0.650 angstrom
                   Q00  =  -0.490019

N          x =  1.942281  y = -2.567973  z = -2.887162 angstrom
           Maximum rank =  0   Radius =  0.650 angstrom
                   Q00  =  -0.588474

H          x = -0.672719  y =  0.141027  z = -0.898162 angstrom
           Maximum rank =  0   Radius =  0.325 angstrom
                   Q00  =   0.112442

H          x =  0.504281  y = -0.227973  z =  0.375838 angstrom
           Maximum rank =  0   Radius =  0.325 angstrom
                   Q00  =   0.126347

H          x = -0.263719  y = -2.693973  z =  0.231838 angstrom
           Maximum rank =  0   Radius =  0.325 angstrom
                   Q00  =   0.061435

H          x = -1.778719  y = -1.980973  z = -0.638162 angstrom
           Maximum rank =  0   Radius =  0.325 angstrom
                   Q00  =   0.048638

H          x =  1.669281  y = -0.377973  z = -1.751162 angstrom
           Maximum rank =  0   Radius =  0.325 angstrom
                   Q00  =   0.233276

H          x = -0.932719  y = -2.756973  z = -1.802162 angstrom
           Maximum rank =  0   Radius =  0.325 angstrom
                   Q00  =   0.269510

H          x =  0.094281  y = -4.030973  z = -2.281162 angstrom
           Maximum rank =  0   Radius =  0.325 angstrom
                   Q00  =   0.219825

H          x =  2.705281  y = -1.935973  z = -3.069162 angstrom
           Maximum rank =  0   Radius =  0.325 angstrom
                   Q00  =   0.250241

H          x =  1.993281  y = -3.492973  z = -3.283162 angstrom
           Maximum rank =  0   Radius =  0.325 angstrom
                   Q00  =   0.248036

H          x = -1.185599  y = -1.831973  z =  1.041298 angstrom
           Maximum rank =  0   Radius =  0.325 angstrom
                   Q00  =   0.152759

C          x =  0.421281  y =  3.494027  z =  2.702838 angstrom
           Maximum rank =  0   Radius =  0.650 angstrom
                   Q00  =  -0.269443

C          x = -0.811719  y =  2.838027  z =  2.185838 angstrom
           Maximum rank =  0   Radius =  0.650 angstrom
                   Q00  =   0.972531

O          x = -0.650719  y =  1.838027  z =  1.444838 angstrom
           Maximum rank =  0   Radius =  0.650 angstrom
                   Q00  =  -0.969135

O          x = -1.915719  y =  3.353027  z =  2.493838 angstrom
           Maximum rank =  0   Radius =  0.650 angstrom
                   Q00  =  -0.914040

H          x =  0.169281  y =  4.181027  z =  3.515838 angstrom
           Maximum rank =  0   Radius =  0.325 angstrom
                   Q00  =   0.067212

H          x =  0.820281  y =  4.077027  z =  1.870838 angstrom
           Maximum rank =  0   Radius =  0.325 angstrom
                   Q00  =   0.077471

H          x =  1.154451  y =  2.760137  z =  3.068698 angstrom
           Maximum rank =  0   Radius =  0.325 angstrom
                   Q00  =   0.049467

Total multipoles referred to origin at
           x =   0.000000,  y =    0.000000,  z =    0.000000 angstrom
                   Q00  =  -0.000000

Finished at 14:12:17 on 27 Apr 2020

  DMA results are available in the Python driver through the
	  variable('DMA DISTRIBUTED MULTIPOLES')
  and
	  variable('DMA TOTAL MULTIPOLES')
  commands.

    Psi4 stopped on: Monday, 27 April 2020 02:12PM
    Psi4 wall time for execution: 0:01:32.57

*** Psi4 exiting successfully. Buy a developer a beer!
