                               Psi4 1.3.2 release

  ==> Input File <==

--------------------------------------------------------------------------
import numpy as np
set {scf_type pk
basis cc-pvdz
d_convergence 10
gdma_switch   0
gdma_limit    0
gdma_origin   [ 0.0,  0.0,  0.0 ]
}
molecule test {
    units Angstrom
    0 1
    --
    0 1
    C               -0.129519207473061     2.000972405019477    -2.227226782176913
    C                0.486480792526939     2.122972405019477    -3.634226782176913
    H               -0.855519207473060     2.798972405019477    -2.058226782176912
    H               -0.625519207473060     1.039972405019477    -2.101226782176913
    H                0.640480792526940     2.045972405019477    -1.456226782176913
    H                1.252480792526939     1.351972405019477    -3.740226782176912
    H                0.952830792526940     3.109872405019477    -3.770424782176912
    H               -0.284339207473061     1.972092405019477    -4.404335782176912
    C               -1.860519207473061     0.039972405019477     3.051773217823087
    C                0.790480792526940    -0.865027594980523    -0.240226782176913
    C                1.209480792526940    -0.038027594980523     0.799773217823087
    C               -0.494519207473060    -1.406027594980523    -0.213226782176913
    C                0.344480792526939     0.255972405019477     1.852773217823088
    C               -1.352519207473061    -1.112027594980523     0.854773217823087
    C               -0.943519207473061    -0.270027594980523     1.890773217823088
    O                1.647480792526939    -1.153027594980524    -1.267226782176912
    H                2.207480792526940     0.378972405019477     0.793773217823088
    H                2.467480792526939    -0.651027594980523    -1.203226782176912
    H               -0.816519207473061    -2.051027594980523    -1.016226782176912
    H                0.691480792526940     0.891972405019477     2.657773217823088
    H               -2.339519207473061    -1.550027594980523     0.874773217823087
    H               -1.247519207473061     0.045972405019477     3.947773217823088
    H               -2.586519207473061    -0.765027594980523     3.160773217823087
    H               -2.389075207473061     1.003602405019477     3.006473217823088

}
e, wfn = energy('scf', return_wfn=True)
gdma(wfn)
dmavals = variable('DMA DISTRIBUTED MULTIPOLES')
charges = np.array(dmavals)
print(charges)
np.save('SSI-120ILE-123TYR-1-dimer.npy', np.array(charges))--------------------------------------------------------------------------

*** tstart() called on ds3
*** at Tue Apr 28 00:47:07 2020

   => Loading Basis Set <=

    Name: CC-PVDZ
    Role: ORBITAL
    Keyword: BASIS
    atoms 1-2, 9-15  entry C          line   138 file /theoryfs2/ds/metcalf/miniconda2/envs/tf2gpu/share/psi4/basis/cc-pvdz.gbs
    atoms 3-8, 17-24 entry H          line    22 file /theoryfs2/ds/metcalf/miniconda2/envs/tf2gpu/share/psi4/basis/cc-pvdz.gbs
    atoms 16         entry O          line   198 file /theoryfs2/ds/metcalf/miniconda2/envs/tf2gpu/share/psi4/basis/cc-pvdz.gbs

         ---------------------------------------------------------
                                   SCF
               by Justin Turney, Rob Parrish, Andy Simmonett
                          and Daniel G. A. Smith
                              RHF Reference
                        1 Threads,    500 MiB Core
         ---------------------------------------------------------

  ==> Geometry <==

    Molecular point group: c1
    Full point group: C1

    Geometry (in Angstrom), charge = 0, multiplicity = 1:

       Center              X                  Y                   Z               Mass
    ------------   -----------------  -----------------  -----------------  -----------------
         C           -0.129519207473     2.000972405019    -2.227226782177    12.000000000000
         C            0.486480792527     2.122972405019    -3.634226782177    12.000000000000
         H           -0.855519207473     2.798972405019    -2.058226782177     1.007825032230
         H           -0.625519207473     1.039972405019    -2.101226782177     1.007825032230
         H            0.640480792527     2.045972405019    -1.456226782177     1.007825032230
         H            1.252480792527     1.351972405019    -3.740226782177     1.007825032230
         H            0.952830792527     3.109872405019    -3.770424782177     1.007825032230
         H           -0.284339207473     1.972092405019    -4.404335782177     1.007825032230
         C           -1.860519207473     0.039972405019     3.051773217823    12.000000000000
         C            0.790480792527    -0.865027594981    -0.240226782177    12.000000000000
         C            1.209480792527    -0.038027594981     0.799773217823    12.000000000000
         C           -0.494519207473    -1.406027594981    -0.213226782177    12.000000000000
         C            0.344480792527     0.255972405019     1.852773217823    12.000000000000
         C           -1.352519207473    -1.112027594981     0.854773217823    12.000000000000
         C           -0.943519207473    -0.270027594981     1.890773217823    12.000000000000
         O            1.647480792527    -1.153027594981    -1.267226782177    15.994914619570
         H            2.207480792527     0.378972405019     0.793773217823     1.007825032230
         H            2.467480792527    -0.651027594981    -1.203226782177     1.007825032230
         H           -0.816519207473    -2.051027594981    -1.016226782177     1.007825032230
         H            0.691480792527     0.891972405019     2.657773217823     1.007825032230
         H           -2.339519207473    -1.550027594981     0.874773217823     1.007825032230
         H           -1.247519207473     0.045972405019     3.947773217823     1.007825032230
         H           -2.586519207473    -0.765027594981     3.160773217823     1.007825032230
         H           -2.389075207473     1.003602405019     3.006473217823     1.007825032230

  Running in c1 symmetry.

  Rotational constants: A =      0.05886  B =      0.02201  C =      0.01947 [cm^-1]
  Rotational constants: A =   1764.46265  B =    659.94903  C =    583.83561 [MHz]
  Nuclear repulsion =  499.889199734740600

  Charge       = 0
  Multiplicity = 1
  Electrons    = 76
  Nalpha       = 38
  Nbeta        = 38

  ==> Algorithm <==

  SCF Algorithm Type is PK.
  DIIS enabled.
  MOM disabled.
  Fractional occupation disabled.
  Guess Type is SAD.
  Energy threshold   = 1.00e-06
  Density threshold  = 1.00e-10
  Integral threshold = 0.00e+00

  ==> Primary Basis <==

  Basis Set: CC-PVDZ
    Blend: CC-PVDZ
    Number of shells: 102
    Number of basis function: 210
    Number of Cartesian functions: 220
    Spherical Harmonics?: true
    Max angular momentum: 2

  ==> Pre-Iterations <==

   -------------------------------------------------------
    Irrep   Nso     Nmo     Nalpha   Nbeta   Ndocc  Nsocc
   -------------------------------------------------------
     A        210     210       0       0       0       0
   -------------------------------------------------------
    Total     210     210      38      38      38       0
   -------------------------------------------------------

  ==> Integral Setup <==

  Using integral reordering PK algorithm.
  Sizing the integral batches needed.
  Building batch lookup table.
   Calculation information:
      Number of atoms:                  24
      Number of AO shells:             102
      Number of primitives:            290
      Number of atomic orbitals:       220
      Number of basis functions:       210

      Integral cutoff                 1.00e-12
      Number of threads:                 1

	Batch   1 pq = [       0,    9405] index = [             0,44231715] size =     44231715
	Batch   2 pq = [    9405,   13301] index = [      44231715,88464951] size =     44233236
	Batch   3 pq = [   13301,   16290] index = [      88464951,132690195] size =     44225244
	Batch   4 pq = [   16290,   18810] index = [     132690195,176917455] size =     44227260
	Batch   5 pq = [   18810,   21030] index = [     176917455,221140965] size =     44223510
	Batch   6 pq = [   21030,   22155] index = [     221140965,245433090] size =     24292125
  Task number: 23
  Buffer size: 11059200
  Buffer per thread: 2
  We computed 12095570 shell quartets total.
  Whereas there are 13799631 unique shell quartets.

  ==> DiskJK: Disk-Based J/K Matrices <==

    J tasked:                  Yes
    K tasked:                  Yes
    wK tasked:                  No
    Memory [MiB]:              375
    Schwarz Cutoff:          1E-12

    OpenMP threads:              1

  Minimum eigenvalue in the overlap matrix is 3.2663810881E-04.
  Using Symmetric Orthogonalization.

  SCF Guess: Superposition of Atomic Densities via on-the-fly atomic UHF.

  ==> Iterations <==

                        Total Energy        Delta E     RMS |[F,P]|

   @RHF iter SAD:  -422.61467902375699   -4.22615e+02   0.00000e+00
   @RHF iter   1:  -423.60351684251179   -9.88838e-01   2.96653e-03 DIIS
   @RHF iter   2:  -423.81846001412760   -2.14943e-01   1.25137e-03 DIIS
   @RHF iter   3:  -423.85297594205269   -3.45159e-02   2.84192e-04 DIIS
   @RHF iter   4:  -423.85582047645391   -2.84453e-03   1.19011e-04 DIIS
   @RHF iter   5:  -423.85618320815109   -3.62732e-04   2.05646e-05 DIIS
   @RHF iter   6:  -423.85620051246644   -1.73043e-05   6.47526e-06 DIIS
   @RHF iter   7:  -423.85620213651811   -1.62405e-06   2.09365e-06 DIIS
   @RHF iter   8:  -423.85620235945350   -2.22935e-07   7.83926e-07 DIIS
   @RHF iter   9:  -423.85620239484956   -3.53961e-08   2.99957e-07 DIIS
   @RHF iter  10:  -423.85620240112877   -6.27921e-09   1.24068e-07 DIIS
   @RHF iter  11:  -423.85620240293747   -1.80870e-09   5.71820e-08 DIIS
   @RHF iter  12:  -423.85620240332560   -3.88127e-10   2.86840e-08 DIIS
   @RHF iter  13:  -423.85620240340774   -8.21387e-11   8.24879e-09 DIIS
   @RHF iter  14:  -423.85620240341245   -4.71800e-12   2.16208e-09 DIIS
   @RHF iter  15:  -423.85620240341404   -1.59162e-12   6.69976e-10 DIIS
   @RHF iter  16:  -423.85620240341143    2.61480e-12   2.00496e-10 DIIS
   @RHF iter  17:  -423.85620240341251   -1.08002e-12   7.37443e-11 DIIS
  Energy and wave function converged.

  ==> Post-Iterations <==

    Orbital Energies [Eh]
    ---------------------

    Doubly Occupied:

       1A    -20.584804     2A    -11.300804     3A    -11.240290
       4A    -11.239723     5A    -11.234748     6A    -11.234266
       7A    -11.232358     8A    -11.228185     9A    -11.215160
      10A    -11.208548    11A     -1.398417    12A     -1.150282
      13A     -1.037523    14A     -1.016838    15A     -1.007260
      16A     -0.927260    17A     -0.844393    18A     -0.831275
      19A     -0.802711    20A     -0.732013    21A     -0.668275
      22A     -0.642071    23A     -0.608130    24A     -0.595237
      25A     -0.586654    26A     -0.585710    27A     -0.581791
      28A     -0.568153    29A     -0.567370    30A     -0.527318
      31A     -0.498858    32A     -0.493438    33A     -0.485372
      34A     -0.480567    35A     -0.477701    36A     -0.466036
      37A     -0.337953    38A     -0.303170

    Virtual:

      39A      0.127204    40A      0.153417    41A      0.165632
      42A      0.186595    43A      0.204181    44A      0.214434
      45A      0.222027    46A      0.246197    47A      0.251964
      48A      0.261324    49A      0.269577    50A      0.276015
      51A      0.280232    52A      0.291733    53A      0.300516
      54A      0.312611    55A      0.368672    56A      0.374102
      57A      0.397106    58A      0.429716    59A      0.454569
      60A      0.483537    61A      0.495271    62A      0.503726
      63A      0.586873    64A      0.596960    65A      0.600810
      66A      0.612100    67A      0.631435    68A      0.642713
      69A      0.658696    70A      0.668794    71A      0.684928
      72A      0.690914    73A      0.706017    74A      0.732277
      75A      0.737001    76A      0.754700    77A      0.756880
      78A      0.768996    79A      0.778543    80A      0.786009
      81A      0.841025    82A      0.841417    83A      0.846905
      84A      0.852385    85A      0.872977    86A      0.877316
      87A      0.881856    88A      0.894551    89A      0.896725
      90A      0.899135    91A      0.902920    92A      0.913466
      93A      0.928018    94A      0.934491    95A      0.938279
      96A      0.942847    97A      0.974492    98A      0.980874
      99A      0.990651   100A      1.013645   101A      1.032457
     102A      1.051637   103A      1.121663   104A      1.130115
     105A      1.136376   106A      1.144966   107A      1.167461
     108A      1.172715   109A      1.203406   110A      1.228232
     111A      1.249090   112A      1.256347   113A      1.267753
     114A      1.293821   115A      1.304047   116A      1.308011
     117A      1.319491   118A      1.352584   119A      1.365652
     120A      1.381685   121A      1.474159   122A      1.480068
     123A      1.489399   124A      1.503955   125A      1.519603
     126A      1.549654   127A      1.589166   128A      1.614599
     129A      1.620046   130A      1.686126   131A      1.686830
     132A      1.696359   133A      1.702229   134A      1.746755
     135A      1.747011   136A      1.779850   137A      1.801992
     138A      1.821652   139A      1.872110   140A      1.876851
     141A      1.881485   142A      1.892633   143A      1.897342
     144A      1.900218   145A      1.914363   146A      1.916678
     147A      1.928808   148A      1.941226   149A      1.945142
     150A      1.953929   151A      1.955296   152A      1.958776
     153A      1.966455   154A      1.976057   155A      1.983237
     156A      2.000759   157A      2.033354   158A      2.049044
     159A      2.058769   160A      2.062217   161A      2.068885
     162A      2.104678   163A      2.117503   164A      2.141174
     165A      2.143336   166A      2.164251   167A      2.194987
     168A      2.228868   169A      2.256107   170A      2.268985
     171A      2.300323   172A      2.301481   173A      2.323731
     174A      2.333073   175A      2.397226   176A      2.423161
     177A      2.458235   178A      2.460467   179A      2.463804
     180A      2.471513   181A      2.493833   182A      2.535586
     183A      2.556197   184A      2.566450   185A      2.578890
     186A      2.597270   187A      2.641163   188A      2.745540
     189A      2.765571   190A      2.770303   191A      2.788860
     192A      2.797577   193A      2.804625   194A      2.853764
     195A      2.860976   196A      2.870039   197A      2.898011
     198A      2.949299   199A      2.976512   200A      2.980613
     201A      3.001272   202A      3.081535   203A      3.111080
     204A      3.249499   205A      3.276540   206A      3.344380
     207A      3.574463   208A      3.662766   209A      3.968611
     210A      4.184006

    Final Occupation by Irrep:
              A
    DOCC [    38 ]

  @RHF Final Energy:  -423.85620240341251

   => Energetics <=

    Nuclear Repulsion Energy =            499.8891997347406004
    One-Electron Energy =               -1565.6094801932515566
    Two-Electron Energy =                 641.8640780550982754
    Total Energy =                       -423.8562024034125670

Computation Completed

Properties will be evaluated at   0.000000,   0.000000,   0.000000 [a0]

Properties computed using the SCF density matrix

  Nuclear Dipole Moment: [e a0]
     X:    -2.7410      Y:     9.0150      Z:    -4.9829

  Electronic Dipole Moment: [e a0]
     X:     2.9605      Y:    -8.6924      Z:     5.4074

  Dipole Moment: [e a0]
     X:     0.2194      Y:     0.3227      Z:     0.4245     Total:     0.5766

  Dipole Moment: [D]
     X:     0.5578      Y:     0.8201      Z:     1.0790     Total:     1.4656

*** tstop() called on ds3 at Tue Apr 28 00:49:25 2020
Module time:
	user time   =      90.77 seconds =       1.51 minutes
	system time =      36.96 seconds =       0.62 minutes
	total time  =        138 seconds =       2.30 minutes
Total time:
	user time   =      90.77 seconds =       1.51 minutes
	system time =      36.96 seconds =       0.62 minutes
	total time  =        138 seconds =       2.30 minutes
                                     G D M A

                                 by Anthony Stone

                           version 2.2.06, 22 June 2011

               Distributed Multipoles from Gaussian wavefunctions

Starting at 0:49:25 on 28 Apr 2020

Using SCF density matrix from file ./SSI/SSI-120ILE-123TYR-1-dimer.test.30125.fchk

                         Distributed Multipole Analysis

Standard DMA

Positions and radii in angstrom
Multipole moments in atomic units, ea_0^k for rank k

C          x = -0.129519  y =  2.000972  z = -2.227227 angstrom
           Maximum rank =  0   Radius =  0.650 angstrom
                   Q00  =  -0.244608

C          x =  0.486481  y =  2.122972  z = -3.634227 angstrom
           Maximum rank =  0   Radius =  0.650 angstrom
                   Q00  =  -0.230657

H          x = -0.855519  y =  2.798972  z = -2.058227 angstrom
           Maximum rank =  0   Radius =  0.325 angstrom
                   Q00  =   0.075194

H          x = -0.625519  y =  1.039972  z = -2.101227 angstrom
           Maximum rank =  0   Radius =  0.325 angstrom
                   Q00  =   0.090086

H          x =  0.640481  y =  2.045972  z = -1.456227 angstrom
           Maximum rank =  0   Radius =  0.325 angstrom
                   Q00  =   0.074150

H          x =  1.252481  y =  1.351972  z = -3.740227 angstrom
           Maximum rank =  0   Radius =  0.325 angstrom
                   Q00  =   0.074639

H          x =  0.952831  y =  3.109872  z = -3.770425 angstrom
           Maximum rank =  0   Radius =  0.325 angstrom
                   Q00  =   0.075533

H          x = -0.284339  y =  1.972092  z = -4.404336 angstrom
           Maximum rank =  0   Radius =  0.325 angstrom
                   Q00  =   0.080735

C          x = -1.860519  y =  0.039972  z =  3.051773 angstrom
           Maximum rank =  0   Radius =  0.650 angstrom
                   Q00  =  -0.199368

C          x =  0.790481  y = -0.865028  z = -0.240227 angstrom
           Maximum rank =  0   Radius =  0.650 angstrom
                   Q00  =   0.320213

C          x =  1.209481  y = -0.038028  z =  0.799773 angstrom
           Maximum rank =  0   Radius =  0.650 angstrom
                   Q00  =  -0.179948

C          x = -0.494519  y = -1.406028  z = -0.213227 angstrom
           Maximum rank =  0   Radius =  0.650 angstrom
                   Q00  =  -0.124919

C          x =  0.344481  y =  0.255972  z =  1.852773 angstrom
           Maximum rank =  0   Radius =  0.650 angstrom
                   Q00  =   0.028311

C          x = -1.352519  y = -1.112028  z =  0.854773 angstrom
           Maximum rank =  0   Radius =  0.650 angstrom
                   Q00  =  -0.013614

C          x = -0.943519  y = -0.270028  z =  1.890773 angstrom
           Maximum rank =  0   Radius =  0.650 angstrom
                   Q00  =  -0.134559

O          x =  1.647481  y = -1.153028  z = -1.267227 angstrom
           Maximum rank =  0   Radius =  0.650 angstrom
                   Q00  =  -0.677916

H          x =  2.207481  y =  0.378972  z =  0.793773 angstrom
           Maximum rank =  0   Radius =  0.325 angstrom
                   Q00  =   0.070519

H          x =  2.467481  y = -0.651028  z = -1.203227 angstrom
           Maximum rank =  0   Radius =  0.325 angstrom
                   Q00  =   0.408057

H          x = -0.816519  y = -2.051028  z = -1.016227 angstrom
           Maximum rank =  0   Radius =  0.325 angstrom
                   Q00  =   0.081525

H          x =  0.691481  y =  0.891972  z =  2.657773 angstrom
           Maximum rank =  0   Radius =  0.325 angstrom
                   Q00  =   0.068223

H          x = -2.339519  y = -1.550028  z =  0.874773 angstrom
           Maximum rank =  0   Radius =  0.325 angstrom
                   Q00  =   0.065588

H          x = -1.247519  y =  0.045972  z =  3.947773 angstrom
           Maximum rank =  0   Radius =  0.325 angstrom
                   Q00  =   0.094274

H          x = -2.586519  y = -0.765028  z =  3.160773 angstrom
           Maximum rank =  0   Radius =  0.325 angstrom
                   Q00  =   0.097333

H          x = -2.389075  y =  1.003602  z =  3.006473 angstrom
           Maximum rank =  0   Radius =  0.325 angstrom
                   Q00  =   0.101209

Total multipoles referred to origin at
           x =   0.000000,  y =    0.000000,  z =    0.000000 angstrom
                   Q00  =  -0.000000

Finished at 0:49:25 on 28 Apr 2020

  DMA results are available in the Python driver through the
	  variable('DMA DISTRIBUTED MULTIPOLES')
  and
	  variable('DMA TOTAL MULTIPOLES')
  commands.

    Psi4 stopped on: Tuesday, 28 April 2020 12:49AM
    Psi4 wall time for execution: 0:02:18.04

*** Psi4 exiting successfully. Buy a developer a beer!
