                               Psi4 1.3.2 release

  ==> Input File <==

--------------------------------------------------------------------------
import numpy as np
set {scf_type pk
basis cc-pvdz
d_convergence 10
gdma_switch   0
gdma_limit    0
gdma_origin   [ 0.0,  0.0,  0.0 ]
}
molecule test {
    units Angstrom
    0 1
    --
    0 1
    C                0.169102765965093     0.901654715431140    -0.654218632556568
    C               -0.736897234034907     1.797654715431140     0.193781367443432
    C                0.670102765965093     1.556654715431141    -1.933218632556568
    O                0.222102765965093     2.630654715431141    -2.327218632556568
    N                1.614102765965093     0.904654715431140    -2.594218632556568
    H                1.042102765965093     0.639654715431140    -0.056218632556568
    H               -0.343897234034907    -0.026345284568860    -0.906218632556568
    H               -0.388897234034907     2.832654715431140     0.172781367443432
    H               -0.646897234034907     1.454654715431140     1.225781367443432
    H                1.951102765965093     1.303654715431140    -3.454218632556568
    H                1.962102765965093     0.013654715431140    -2.242218632556568
    H               -1.799567234034907     1.740135715431141    -0.084468632556568
    C               -1.869897234034907    -1.461345284568860     1.453781367443432
    C                0.372102765965093    -2.989345284568859     1.366781367443432
    S               -0.185897234034907    -1.438345284568860     2.064781367443432
    H               -2.372897234034907    -2.377345284568860     1.766781367443432
    H               -2.388897234034907    -0.607345284568860     1.881781367443432
    H               -1.902897234034907    -1.362345284568860     0.369781367443432
    H               -0.034897234034907    -3.793345284568860     1.961781367443432
    H                1.449102765965093    -3.022345284568860     1.423781367443432
    H                0.035782765965093    -3.166929284568859     0.334622367443432

}
e, wfn = energy('scf', return_wfn=True)
gdma(wfn)
dmavals = variable('DMA DISTRIBUTED MULTIPOLES')
charges = np.array(dmavals)
print(charges)
np.save('SSI-165GLN-224MET-2-dimer.npy', np.array(charges))--------------------------------------------------------------------------

*** tstart() called on ds3
*** at Mon Apr 27 13:27:12 2020

   => Loading Basis Set <=

    Name: CC-PVDZ
    Role: ORBITAL
    Keyword: BASIS
    atoms 1-3, 13-14  entry C          line   138 file /theoryfs2/ds/metcalf/miniconda2/envs/tf2gpu/share/psi4/basis/cc-pvdz.gbs
    atoms 4           entry O          line   198 file /theoryfs2/ds/metcalf/miniconda2/envs/tf2gpu/share/psi4/basis/cc-pvdz.gbs
    atoms 5           entry N          line   168 file /theoryfs2/ds/metcalf/miniconda2/envs/tf2gpu/share/psi4/basis/cc-pvdz.gbs
    atoms 6-12, 16-21 entry H          line    22 file /theoryfs2/ds/metcalf/miniconda2/envs/tf2gpu/share/psi4/basis/cc-pvdz.gbs
    atoms 15          entry S          line   598 file /theoryfs2/ds/metcalf/miniconda2/envs/tf2gpu/share/psi4/basis/cc-pvdz.gbs

         ---------------------------------------------------------
                                   SCF
               by Justin Turney, Rob Parrish, Andy Simmonett
                          and Daniel G. A. Smith
                              RHF Reference
                        1 Threads,    500 MiB Core
         ---------------------------------------------------------

  ==> Geometry <==

    Molecular point group: c1
    Full point group: C1

    Geometry (in Angstrom), charge = 0, multiplicity = 1:

       Center              X                  Y                   Z               Mass
    ------------   -----------------  -----------------  -----------------  -----------------
         C            0.169102765965     0.901654715431    -0.654218632557    12.000000000000
         C           -0.736897234035     1.797654715431     0.193781367443    12.000000000000
         C            0.670102765965     1.556654715431    -1.933218632557    12.000000000000
         O            0.222102765965     2.630654715431    -2.327218632557    15.994914619570
         N            1.614102765965     0.904654715431    -2.594218632557    14.003074004430
         H            1.042102765965     0.639654715431    -0.056218632557     1.007825032230
         H           -0.343897234035    -0.026345284569    -0.906218632557     1.007825032230
         H           -0.388897234035     2.832654715431     0.172781367443     1.007825032230
         H           -0.646897234035     1.454654715431     1.225781367443     1.007825032230
         H            1.951102765965     1.303654715431    -3.454218632557     1.007825032230
         H            1.962102765965     0.013654715431    -2.242218632557     1.007825032230
         H           -1.799567234035     1.740135715431    -0.084468632557     1.007825032230
         C           -1.869897234035    -1.461345284569     1.453781367443    12.000000000000
         C            0.372102765965    -2.989345284569     1.366781367443    12.000000000000
         S           -0.185897234035    -1.438345284569     2.064781367443    31.972071174400
         H           -2.372897234035    -2.377345284569     1.766781367443     1.007825032230
         H           -2.388897234035    -0.607345284569     1.881781367443     1.007825032230
         H           -1.902897234035    -1.362345284569     0.369781367443     1.007825032230
         H           -0.034897234035    -3.793345284569     1.961781367443     1.007825032230
         H            1.449102765965    -3.022345284569     1.423781367443     1.007825032230
         H            0.035782765965    -3.166929284569     0.334622367443     1.007825032230

  Running in c1 symmetry.

  Rotational constants: A =      0.09030  B =      0.01925  C =      0.01697 [cm^-1]
  Rotational constants: A =   2706.97780  B =    577.16310  C =    508.72002 [MHz]
  Nuclear repulsion =  441.413945629926729

  Charge       = 0
  Multiplicity = 1
  Electrons    = 74
  Nalpha       = 37
  Nbeta        = 37

  ==> Algorithm <==

  SCF Algorithm Type is PK.
  DIIS enabled.
  MOM disabled.
  Fractional occupation disabled.
  Guess Type is SAD.
  Energy threshold   = 1.00e-06
  Density threshold  = 1.00e-10
  Integral threshold = 0.00e+00

  ==> Primary Basis <==

  Basis Set: CC-PVDZ
    Blend: CC-PVDZ
    Number of shells: 89
    Number of basis function: 181
    Number of Cartesian functions: 189
    Spherical Harmonics?: true
    Max angular momentum: 2

  ==> Pre-Iterations <==

   -------------------------------------------------------
    Irrep   Nso     Nmo     Nalpha   Nbeta   Ndocc  Nsocc
   -------------------------------------------------------
     A        181     181       0       0       0       0
   -------------------------------------------------------
    Total     181     181      37      37      37       0
   -------------------------------------------------------

  ==> Integral Setup <==

  Using integral reordering PK algorithm.
  Sizing the integral batches needed.
  Building batch lookup table.
   Calculation information:
      Number of atoms:                  21
      Number of AO shells:              89
      Number of primitives:            269
      Number of atomic orbitals:       189
      Number of basis functions:       181

      Integral cutoff                 1.00e-12
      Number of threads:                 1

	Batch   1 pq = [       0,    9405] index = [             0,44231715] size =     44231715
	Batch   2 pq = [    9405,   13301] index = [      44231715,88464951] size =     44233236
	Batch   3 pq = [   13301,   16471] index = [      88464951,135655156] size =     47190205
  Task number: 13
  Buffer size: 11059200
  Buffer per thread: 2
  We computed 6836227 shell quartets total.
  Whereas there are 8022015 unique shell quartets.

  ==> DiskJK: Disk-Based J/K Matrices <==

    J tasked:                  Yes
    K tasked:                  Yes
    wK tasked:                  No
    Memory [MiB]:              375
    Schwarz Cutoff:          1E-12

    OpenMP threads:              1

  Minimum eigenvalue in the overlap matrix is 2.8768405378E-03.
  Using Symmetric Orthogonalization.

  SCF Guess: Superposition of Atomic Densities via on-the-fly atomic UHF.

  ==> Iterations <==

                        Total Energy        Delta E     RMS |[F,P]|

   @RHF iter SAD:  -722.55211821544719   -7.22552e+02   0.00000e+00
   @RHF iter   1:  -723.53946431721863   -9.87346e-01   3.58825e-03 DIIS
   @RHF iter   2:  -723.72906776459627   -1.89603e-01   1.97486e-03 DIIS
   @RHF iter   3:  -723.77872178448479   -4.96540e-02   4.53511e-04 DIIS
   @RHF iter   4:  -723.78279643354301   -4.07465e-03   1.73087e-04 DIIS
   @RHF iter   5:  -723.78341454263693   -6.18109e-04   2.80019e-05 DIIS
   @RHF iter   6:  -723.78344769089870   -3.31483e-05   1.12121e-05 DIIS
   @RHF iter   7:  -723.78345259006733   -4.89917e-06   4.58766e-06 DIIS
   @RHF iter   8:  -723.78345355679767   -9.66730e-07   1.77770e-06 DIIS
   @RHF iter   9:  -723.78345370240731   -1.45610e-07   4.33561e-07 DIIS
   @RHF iter  10:  -723.78345371001205   -7.60474e-09   1.38769e-07 DIIS
   @RHF iter  11:  -723.78345371070236   -6.90306e-10   3.77507e-08 DIIS
   @RHF iter  12:  -723.78345371075670   -5.43423e-11   9.79445e-09 DIIS
   @RHF iter  13:  -723.78345371076239   -5.68434e-12   3.06921e-09 DIIS
   @RHF iter  14:  -723.78345371076512   -2.72848e-12   1.32475e-09 DIIS
   @RHF iter  15:  -723.78345371076159    3.52429e-12   6.01170e-10 DIIS
   @RHF iter  16:  -723.78345371076284   -1.25056e-12   2.28496e-10 DIIS
   @RHF iter  17:  -723.78345371076284    0.00000e+00   8.25092e-11 DIIS
  Energy and wave function converged.

  ==> Post-Iterations <==

    Orbital Energies [Eh]
    ---------------------

    Doubly Occupied:

       1A    -91.944045     2A    -20.499064     3A    -15.583266
       4A    -11.337414     5A    -11.261638     6A    -11.261506
       7A    -11.233224     8A    -11.214783     9A     -8.948402
      10A     -6.630505    11A     -6.628909    12A     -6.626635
      13A     -1.362697    14A     -1.210850    15A     -1.076254
      16A     -1.037945    17A     -0.961213    18A     -0.883053
      19A     -0.815262    20A     -0.775955    21A     -0.717404
      22A     -0.658124    23A     -0.629877    24A     -0.615019
      25A     -0.608620    26A     -0.587017    27A     -0.578439
      28A     -0.568789    29A     -0.545375    30A     -0.510830
      31A     -0.502146    32A     -0.499330    33A     -0.483861
      34A     -0.442339    35A     -0.403236    36A     -0.399082
      37A     -0.339505

    Virtual:

      38A      0.155015    39A      0.168497    40A      0.184467
      41A      0.201552    42A      0.212095    43A      0.228542
      44A      0.236272    45A      0.241802    46A      0.244156
      47A      0.252504    48A      0.267324    49A      0.277109
      50A      0.283607    51A      0.299376    52A      0.331312
      53A      0.337628    54A      0.393586    55A      0.421466
      56A      0.481749    57A      0.506348    58A      0.530544
      59A      0.550289    60A      0.581016    61A      0.608996
      62A      0.619375    63A      0.631830    64A      0.637761
      65A      0.684694    66A      0.700752    67A      0.708245
      68A      0.727600    69A      0.744264    70A      0.777133
      71A      0.785222    72A      0.801254    73A      0.813433
      74A      0.817469    75A      0.831411    76A      0.849185
      77A      0.857186    78A      0.864394    79A      0.873905
      80A      0.880548    81A      0.886597    82A      0.901133
      83A      0.906844    84A      0.908870    85A      0.916328
      86A      0.924818    87A      0.936533    88A      0.944542
      89A      0.960795    90A      0.978826    91A      1.000372
      92A      1.021188    93A      1.035974    94A      1.074017
      95A      1.079759    96A      1.118151    97A      1.121514
      98A      1.164867    99A      1.243656   100A      1.294163
     101A      1.309001   102A      1.321757   103A      1.331996
     104A      1.350017   105A      1.371214   106A      1.378240
     107A      1.398098   108A      1.416672   109A      1.430603
     110A      1.463082   111A      1.483674   112A      1.488148
     113A      1.526084   114A      1.642752   115A      1.664667
     116A      1.670213   117A      1.674857   118A      1.706684
     119A      1.729226   120A      1.775688   121A      1.796311
     122A      1.836259   123A      1.871627   124A      1.885709
     125A      1.886954   126A      1.897537   127A      1.900971
     128A      1.911114   129A      1.922613   130A      1.938544
     131A      1.950349   132A      1.963357   133A      1.983968
     134A      1.991509   135A      1.999421   136A      2.009019
     137A      2.025010   138A      2.036370   139A      2.041386
     140A      2.068876   141A      2.078830   142A      2.130409
     143A      2.148617   144A      2.171804   145A      2.222773
     146A      2.234008   147A      2.245246   148A      2.310228
     149A      2.340905   150A      2.386987   151A      2.397172
     152A      2.418506   153A      2.428719   154A      2.440007
     155A      2.452696   156A      2.468065   157A      2.547819
     158A      2.557977   159A      2.584536   160A      2.615377
     161A      2.634760   162A      2.728380   163A      2.734551
     164A      2.758758   165A      2.777592   166A      2.787375
     167A      2.803465   168A      2.806163   169A      2.833491
     170A      2.854258   171A      2.879811   172A      2.915151
     173A      2.948895   174A      3.026406   175A      3.104996
     176A      3.156083   177A      3.310027   178A      3.522495
     179A      3.530006   180A      3.866857   181A      3.908449

    Final Occupation by Irrep:
              A
    DOCC [    37 ]

  @RHF Final Energy:  -723.78345371076284

   => Energetics <=

    Nuclear Repulsion Energy =            441.4139456299267295
    One-Electron Energy =               -1869.6315720363875243
    Two-Electron Energy =                 704.4341726956979528
    Total Energy =                       -723.7834537107628421

Computation Completed

Properties will be evaluated at   0.000000,   0.000000,   0.000000 [a0]

Properties computed using the SCF density matrix

  Nuclear Dipole Moment: [e a0]
     X:    -3.2322      Y:    -6.0011      Z:     2.2949

  Electronic Dipole Moment: [e a0]
     X:     3.6844      Y:     4.0778      Z:    -2.2734

  Dipole Moment: [e a0]
     X:     0.4522      Y:    -1.9234      Z:     0.0215     Total:     1.9759

  Dipole Moment: [D]
     X:     1.1494      Y:    -4.8887      Z:     0.0546     Total:     5.0223

*** tstop() called on ds3 at Mon Apr 27 13:28:35 2020
Module time:
	user time   =      57.36 seconds =       0.96 minutes
	system time =      28.11 seconds =       0.47 minutes
	total time  =         83 seconds =       1.38 minutes
Total time:
	user time   =      57.36 seconds =       0.96 minutes
	system time =      28.11 seconds =       0.47 minutes
	total time  =         83 seconds =       1.38 minutes
                                     G D M A

                                 by Anthony Stone

                           version 2.2.06, 22 June 2011

               Distributed Multipoles from Gaussian wavefunctions

Starting at 13:28:35 on 27 Apr 2020

Using SCF density matrix from file ./SSI/SSI-165GLN-224MET-2-dimer.test.6682.fchk

                         Distributed Multipole Analysis

Standard DMA

Positions and radii in angstrom
Multipole moments in atomic units, ea_0^k for rank k

C          x =  0.169103  y =  0.901655  z = -0.654219 angstrom
           Maximum rank =  0   Radius =  0.650 angstrom
                   Q00  =  -0.159685

C          x = -0.736897  y =  1.797655  z =  0.193781 angstrom
           Maximum rank =  0   Radius =  0.650 angstrom
                   Q00  =  -0.224412

C          x =  0.670103  y =  1.556655  z = -1.933219 angstrom
           Maximum rank =  0   Radius =  0.650 angstrom
                   Q00  =   0.886788

O          x =  0.222103  y =  2.630655  z = -2.327219 angstrom
           Maximum rank =  0   Radius =  0.650 angstrom
                   Q00  =  -0.816830

N          x =  1.614103  y =  0.904655  z = -2.594219 angstrom
           Maximum rank =  0   Radius =  0.650 angstrom
                   Q00  =  -0.561981

H          x =  1.042103  y =  0.639655  z = -0.056219 angstrom
           Maximum rank =  0   Radius =  0.325 angstrom
                   Q00  =   0.085500

H          x = -0.343897  y = -0.026345  z = -0.906219 angstrom
           Maximum rank =  0   Radius =  0.325 angstrom
                   Q00  =   0.087708

H          x = -0.388897  y =  2.832655  z =  0.172781 angstrom
           Maximum rank =  0   Radius =  0.325 angstrom
                   Q00  =   0.112818

H          x = -0.646897  y =  1.454655  z =  1.225781 angstrom
           Maximum rank =  0   Radius =  0.325 angstrom
                   Q00  =   0.082648

H          x =  1.951103  y =  1.303655  z = -3.454219 angstrom
           Maximum rank =  0   Radius =  0.325 angstrom
                   Q00  =   0.217673

H          x =  1.962103  y =  0.013655  z = -2.242219 angstrom
           Maximum rank =  0   Radius =  0.325 angstrom
                   Q00  =   0.207334

H          x = -1.799567  y =  1.740136  z = -0.084469 angstrom
           Maximum rank =  0   Radius =  0.325 angstrom
                   Q00  =   0.087585

C          x = -1.869897  y = -1.461345  z =  1.453781 angstrom
           Maximum rank =  0   Radius =  0.650 angstrom
                   Q00  =  -0.354217

C          x =  0.372103  y = -2.989345  z =  1.366781 angstrom
           Maximum rank =  0   Radius =  0.650 angstrom
                   Q00  =  -0.358505

S          x = -0.185897  y = -1.438345  z =  2.064781 angstrom
           Maximum rank =  0   Radius =  0.650 angstrom
                   Q00  =   0.122496

H          x = -2.372897  y = -2.377345  z =  1.766781 angstrom
           Maximum rank =  0   Radius =  0.325 angstrom
                   Q00  =   0.090032

H          x = -2.388897  y = -0.607345  z =  1.881781 angstrom
           Maximum rank =  0   Radius =  0.325 angstrom
                   Q00  =   0.123141

H          x = -1.902897  y = -1.362345  z =  0.369781 angstrom
           Maximum rank =  0   Radius =  0.325 angstrom
                   Q00  =   0.080880

H          x = -0.034897  y = -3.793345  z =  1.961781 angstrom
           Maximum rank =  0   Radius =  0.325 angstrom
                   Q00  =   0.088125

H          x =  1.449103  y = -3.022345  z =  1.423781 angstrom
           Maximum rank =  0   Radius =  0.325 angstrom
                   Q00  =   0.116860

H          x =  0.035783  y = -3.166929  z =  0.334622 angstrom
           Maximum rank =  0   Radius =  0.325 angstrom
                   Q00  =   0.086044

Total multipoles referred to origin at
           x =   0.000000,  y =    0.000000,  z =    0.000000 angstrom
                   Q00  =  -0.000000

Finished at 13:28:35 on 27 Apr 2020

  DMA results are available in the Python driver through the
	  variable('DMA DISTRIBUTED MULTIPOLES')
  and
	  variable('DMA TOTAL MULTIPOLES')
  commands.

    Psi4 stopped on: Monday, 27 April 2020 01:28PM
    Psi4 wall time for execution: 0:01:22.63

*** Psi4 exiting successfully. Buy a developer a beer!
