                               Psi4 1.3.2 release

  ==> Input File <==

--------------------------------------------------------------------------
import numpy as np
set {scf_type pk
basis cc-pvdz
d_convergence 10
gdma_switch   0
gdma_limit    0
gdma_origin   [ 0.0,  0.0,  0.0 ]
}
molecule test {
    units Angstrom
    0 1
    --
    0 1
    C               -0.617441984564124    -0.961026501824180     0.008032962779885
    C               -0.591441984564124    -2.104026501824180    -1.009967037220115
    C               -1.790441984564124    -1.111026501824180     0.957032962779885
    O                0.557558015435876    -1.008026501824180     0.797032962779885
    H               -0.683441984564124    -0.001026501824180    -0.507967037220115
    H               -1.508441984564124    -2.035026501824180    -1.590967037220115
    H               -1.705441984564124    -0.398026501824180     1.775032962779885
    H               -2.721441984564124    -0.960026501824180     0.412032962779885
    H               -1.807441984564124    -2.092026501824180     1.410032962779885
    H                0.563558015435876    -0.240026501824180     1.373032962779885
    H               -0.511996784564124    -3.079104501824180    -0.507064037220115
    H                0.235044615435876    -1.985749501824180    -1.726158637220115
    C                1.015558015435876     2.535973498175820     0.313032962779885
    C                1.334558015435876     2.597973498175820    -1.170967037220115
    H               -0.035441984564124     2.773973498175820     0.475032962779885
    H                1.223558015435876     1.538973498175820     0.692032962779885
    H                1.633558015435876     3.250973498175820     0.857032962779885
    H                0.635558015435876     1.941973498175820    -1.688967037220115
    H                2.364506015435876     2.250357498175820    -1.339399737220115
    H                1.199047015435876     3.627709498175820    -1.533294837220115

}
e, wfn = energy('scf', return_wfn=True)
gdma(wfn)
dmavals = variable('DMA DISTRIBUTED MULTIPOLES')
charges = np.array(dmavals)
print(charges)
np.save('SSI-118THR-121LEU-1-dimer.npy', np.array(charges))--------------------------------------------------------------------------

*** tstart() called on ds3
*** at Tue Apr 28 14:38:51 2020

   => Loading Basis Set <=

    Name: CC-PVDZ
    Role: ORBITAL
    Keyword: BASIS
    atoms 1-3, 13-14  entry C          line   138 file /theoryfs2/ds/metcalf/miniconda2/envs/tf2gpu/share/psi4/basis/cc-pvdz.gbs
    atoms 4           entry O          line   198 file /theoryfs2/ds/metcalf/miniconda2/envs/tf2gpu/share/psi4/basis/cc-pvdz.gbs
    atoms 5-12, 15-20 entry H          line    22 file /theoryfs2/ds/metcalf/miniconda2/envs/tf2gpu/share/psi4/basis/cc-pvdz.gbs

         ---------------------------------------------------------
                                   SCF
               by Justin Turney, Rob Parrish, Andy Simmonett
                          and Daniel G. A. Smith
                              RHF Reference
                        1 Threads,    500 MiB Core
         ---------------------------------------------------------

  ==> Geometry <==

    Molecular point group: c1
    Full point group: C1

    Geometry (in Angstrom), charge = 0, multiplicity = 1:

       Center              X                  Y                   Z               Mass
    ------------   -----------------  -----------------  -----------------  -----------------
         C           -0.617441984564    -0.961026501824     0.008032962780    12.000000000000
         C           -0.591441984564    -2.104026501824    -1.009967037220    12.000000000000
         C           -1.790441984564    -1.111026501824     0.957032962780    12.000000000000
         O            0.557558015436    -1.008026501824     0.797032962780    15.994914619570
         H           -0.683441984564    -0.001026501824    -0.507967037220     1.007825032230
         H           -1.508441984564    -2.035026501824    -1.590967037220     1.007825032230
         H           -1.705441984564    -0.398026501824     1.775032962780     1.007825032230
         H           -2.721441984564    -0.960026501824     0.412032962780     1.007825032230
         H           -1.807441984564    -2.092026501824     1.410032962780     1.007825032230
         H            0.563558015436    -0.240026501824     1.373032962780     1.007825032230
         H           -0.511996784564    -3.079104501824    -0.507064037220     1.007825032230
         H            0.235044615436    -1.985749501824    -1.726158637220     1.007825032230
         C            1.015558015436     2.535973498176     0.313032962780    12.000000000000
         C            1.334558015436     2.597973498176    -1.170967037220    12.000000000000
         H           -0.035441984564     2.773973498176     0.475032962780     1.007825032230
         H            1.223558015436     1.538973498176     0.692032962780     1.007825032230
         H            1.633558015436     3.250973498176     0.857032962780     1.007825032230
         H            0.635558015436     1.941973498176    -1.688967037220     1.007825032230
         H            2.364506015436     2.250357498176    -1.339399737220     1.007825032230
         H            1.199047015436     3.627709498176    -1.533294837220     1.007825032230

  Running in c1 symmetry.

  Rotational constants: A =      0.14966  B =      0.03881  C =      0.03606 [cm^-1]
  Rotational constants: A =   4486.63563  B =   1163.54918  C =   1080.97184 [MHz]
  Nuclear repulsion =  250.839474352590543

  Charge       = 0
  Multiplicity = 1
  Electrons    = 52
  Nalpha       = 26
  Nbeta        = 26

  ==> Algorithm <==

  SCF Algorithm Type is PK.
  DIIS enabled.
  MOM disabled.
  Fractional occupation disabled.
  Guess Type is SAD.
  Energy threshold   = 1.00e-06
  Density threshold  = 1.00e-10
  Integral threshold = 0.00e+00

  ==> Primary Basis <==

  Basis Set: CC-PVDZ
    Blend: CC-PVDZ
    Number of shells: 78
    Number of basis function: 154
    Number of Cartesian functions: 160
    Spherical Harmonics?: true
    Max angular momentum: 2

  ==> Pre-Iterations <==

   -------------------------------------------------------
    Irrep   Nso     Nmo     Nalpha   Nbeta   Ndocc  Nsocc
   -------------------------------------------------------
     A        154     154       0       0       0       0
   -------------------------------------------------------
    Total     154     154      26      26      26       0
   -------------------------------------------------------

  ==> Integral Setup <==

  Using integral reordering PK algorithm.
  Sizing the integral batches needed.
  Building batch lookup table.
   Calculation information:
      Number of atoms:                  20
      Number of AO shells:              78
      Number of primitives:            202
      Number of atomic orbitals:       160
      Number of basis functions:       154

      Integral cutoff                 1.00e-12
      Number of threads:                 1

	Batch   1 pq = [       0,    9405] index = [             0,44231715] size =     44231715
	Batch   2 pq = [    9405,   11935] index = [      44231715,71228080] size =     26996365
  Task number: 7
  Buffer size: 11059200
  Buffer per thread: 2
  We computed 4158855 shell quartets total.
  Whereas there are 4747821 unique shell quartets.

  ==> DiskJK: Disk-Based J/K Matrices <==

    J tasked:                  Yes
    K tasked:                  Yes
    wK tasked:                  No
    Memory [MiB]:              375
    Schwarz Cutoff:          1E-12

    OpenMP threads:              1

  Minimum eigenvalue in the overlap matrix is 4.3658505763E-03.
  Using Symmetric Orthogonalization.

  SCF Guess: Superposition of Atomic Densities via on-the-fly atomic UHF.

  ==> Iterations <==

                        Total Energy        Delta E     RMS |[F,P]|

   @RHF iter SAD:  -271.17597191661963   -2.71176e+02   0.00000e+00
   @RHF iter   1:  -272.14242278767671   -9.66451e-01   3.91195e-03 DIIS
   @RHF iter   2:  -272.32716672330400   -1.84744e-01   1.79375e-03 DIIS
   @RHF iter   3:  -272.36178380362708   -3.46171e-02   3.53593e-04 DIIS
   @RHF iter   4:  -272.36425678074920   -2.47298e-03   1.16841e-04 DIIS
   @RHF iter   5:  -272.36442848092065   -1.71700e-04   2.18797e-05 DIIS
   @RHF iter   6:  -272.36443736162238   -8.88070e-06   4.62746e-06 DIIS
   @RHF iter   7:  -272.36443782839604   -4.66774e-07   1.39209e-06 DIIS
   @RHF iter   8:  -272.36443786980072   -4.14047e-08   3.88015e-07 DIIS
   @RHF iter   9:  -272.36443787486189   -5.06117e-09   1.01511e-07 DIIS
   @RHF iter  10:  -272.36443787522325   -3.61354e-10   3.14911e-08 DIIS
   @RHF iter  11:  -272.36443787525218   -2.89333e-11   8.92181e-09 DIIS
   @RHF iter  12:  -272.36443787525593   -3.75167e-12   2.66068e-09 DIIS
   @RHF iter  13:  -272.36443787525570    2.27374e-13   6.87593e-10 DIIS
   @RHF iter  14:  -272.36443787525536    3.41061e-13   1.49648e-10 DIIS
   @RHF iter  15:  -272.36443787525468    6.82121e-13   5.43493e-11 DIIS
  Energy and wave function converged.

  ==> Post-Iterations <==

    Orbital Energies [Eh]
    ---------------------

    Doubly Occupied:

       1A    -20.545841     2A    -11.277504     3A    -11.222167
       4A    -11.221361     5A    -11.220306     6A    -11.215908
       7A     -1.357153     8A     -1.041649     9A     -1.026484
      10A     -0.936433    11A     -0.839821    12A     -0.798485
      13A     -0.699447    14A     -0.617144    15A     -0.607371
      16A     -0.606575    17A     -0.603466    18A     -0.543201
      19A     -0.540758    20A     -0.521776    21A     -0.508827
      22A     -0.503832    23A     -0.491732    24A     -0.489383
      25A     -0.463832    26A     -0.428315

    Virtual:

      27A      0.160994    28A      0.195930    29A      0.207040
      30A      0.230821    31A      0.234012    32A      0.243851
      33A      0.253335    34A      0.263119    35A      0.268431
      36A      0.275590    37A      0.294585    38A      0.306938
      39A      0.341792    40A      0.354220    41A      0.385481
      42A      0.390922    43A      0.415150    44A      0.420544
      45A      0.569959    46A      0.592725    47A      0.599303
      48A      0.602849    49A      0.615669    50A      0.650810
      51A      0.674058    52A      0.684906    53A      0.703074
      54A      0.773111    55A      0.785559    56A      0.794928
      57A      0.833708    58A      0.844667    59A      0.854252
      60A      0.875783    61A      0.887160    62A      0.892479
      63A      0.895218    64A      0.896753    65A      0.900229
      66A      0.910832    67A      0.924628    68A      0.936284
      69A      0.940766    70A      0.948792    71A      0.971412
      72A      0.979872    73A      1.001187    74A      1.119530
      75A      1.119729    76A      1.130795    77A      1.160601
      78A      1.181084    79A      1.239485    80A      1.285222
      81A      1.366833    82A      1.404062    83A      1.428879
      84A      1.475216    85A      1.484026    86A      1.502820
      87A      1.542474    88A      1.579152    89A      1.588451
      90A      1.609838    91A      1.661866    92A      1.679389
      93A      1.683693    94A      1.691615    95A      1.714975
      96A      1.736173    97A      1.815744    98A      1.841325
      99A      1.852793   100A      1.862772   101A      1.885099
     102A      1.890873   103A      1.907060   104A      1.927894
     105A      1.939883   106A      1.950812   107A      1.954511
     108A      1.965334   109A      1.966663   110A      1.984274
     111A      1.988793   112A      1.998961   113A      2.010277
     114A      2.039985   115A      2.040461   116A      2.110232
     117A      2.120340   118A      2.124871   119A      2.163342
     120A      2.219467   121A      2.247504   122A      2.280924
     123A      2.303583   124A      2.310447   125A      2.317287
     126A      2.379984   127A      2.450312   128A      2.458166
     129A      2.464000   130A      2.531446   131A      2.534273
     132A      2.555874   133A      2.567703   134A      2.582871
     135A      2.600337   136A      2.650165   137A      2.757385
     138A      2.763635   139A      2.776081   140A      2.793857
     141A      2.806130   142A      2.827562   143A      2.841651
     144A      2.845777   145A      2.881978   146A      2.920954
     147A      2.955608   148A      2.961873   149A      3.013976
     150A      3.348134   151A      3.428417   152A      3.486243
     153A      3.666081   154A      4.148258

    Final Occupation by Irrep:
              A
    DOCC [    26 ]

  @RHF Final Energy:  -272.36443787525468

   => Energetics <=

    Nuclear Repulsion Energy =            250.8394743525905426
    One-Electron Energy =                -865.7502816661019551
    Two-Electron Energy =                 342.5463694382567610
    Total Energy =                       -272.3644378752546800

Computation Completed

Properties will be evaluated at   0.000000,   0.000000,   0.000000 [a0]

Properties computed using the SCF density matrix

  Nuclear Dipole Moment: [e a0]
     X:    -1.0462      Y:     4.3009      Z:    -1.7770

  Electronic Dipole Moment: [e a0]
     X:     0.6106      Y:    -3.8534      Z:     1.7661

  Dipole Moment: [e a0]
     X:    -0.4356      Y:     0.4475      Z:    -0.0109     Total:     0.6246

  Dipole Moment: [D]
     X:    -1.1072      Y:     1.1374      Z:    -0.0276     Total:     1.5876

*** tstop() called on ds3 at Tue Apr 28 14:39:25 2020
Module time:
	user time   =      24.48 seconds =       0.41 minutes
	system time =      10.50 seconds =       0.17 minutes
	total time  =         34 seconds =       0.57 minutes
Total time:
	user time   =      24.48 seconds =       0.41 minutes
	system time =      10.50 seconds =       0.17 minutes
	total time  =         34 seconds =       0.57 minutes
                                     G D M A

                                 by Anthony Stone

                           version 2.2.06, 22 June 2011

               Distributed Multipoles from Gaussian wavefunctions

Starting at 14:39:25 on 28 Apr 2020

Using SCF density matrix from file ./SSI/SSI-118THR-121LEU-1-dimer.test.6478.fchk

                         Distributed Multipole Analysis

Standard DMA

Positions and radii in angstrom
Multipole moments in atomic units, ea_0^k for rank k

C          x = -0.617442  y = -0.961027  z =  0.008033 angstrom
           Maximum rank =  0   Radius =  0.650 angstrom
                   Q00  =   0.125145

C          x = -0.591442  y = -2.104027  z = -1.009967 angstrom
           Maximum rank =  0   Radius =  0.650 angstrom
                   Q00  =  -0.240488

C          x = -1.790442  y = -1.111027  z =  0.957033 angstrom
           Maximum rank =  0   Radius =  0.650 angstrom
                   Q00  =  -0.255181

O          x =  0.557558  y = -1.008027  z =  0.797033 angstrom
           Maximum rank =  0   Radius =  0.650 angstrom
                   Q00  =  -0.534819

H          x = -0.683442  y = -0.001027  z = -0.507967 angstrom
           Maximum rank =  0   Radius =  0.325 angstrom
                   Q00  =   0.003001

H          x = -1.508442  y = -2.035027  z = -1.590967 angstrom
           Maximum rank =  0   Radius =  0.325 angstrom
                   Q00  =   0.079299

H          x = -1.705442  y = -0.398027  z =  1.775033 angstrom
           Maximum rank =  0   Radius =  0.325 angstrom
                   Q00  =   0.076855

H          x = -2.721442  y = -0.960027  z =  0.412033 angstrom
           Maximum rank =  0   Radius =  0.325 angstrom
                   Q00  =   0.075812

H          x = -1.807442  y = -2.092027  z =  1.410033 angstrom
           Maximum rank =  0   Radius =  0.325 angstrom
                   Q00  =   0.093578

H          x =  0.563558  y = -0.240027  z =  1.373033 angstrom
           Maximum rank =  0   Radius =  0.325 angstrom
                   Q00  =   0.388234

H          x = -0.511997  y = -3.079105  z = -0.507064 angstrom
           Maximum rank =  0   Radius =  0.325 angstrom
                   Q00  =   0.096864

H          x =  0.235045  y = -1.985750  z = -1.726159 angstrom
           Maximum rank =  0   Radius =  0.325 angstrom
                   Q00  =   0.095440

C          x =  1.015558  y =  2.535973  z =  0.313033 angstrom
           Maximum rank =  0   Radius =  0.650 angstrom
                   Q00  =  -0.207066

C          x =  1.334558  y =  2.597973  z = -1.170967 angstrom
           Maximum rank =  0   Radius =  0.650 angstrom
                   Q00  =  -0.238214

H          x = -0.035442  y =  2.773973  z =  0.475033 angstrom
           Maximum rank =  0   Radius =  0.325 angstrom
                   Q00  =   0.073936

H          x =  1.223558  y =  1.538974  z =  0.692033 angstrom
           Maximum rank =  0   Radius =  0.325 angstrom
                   Q00  =   0.047145

H          x =  1.633558  y =  3.250973  z =  0.857033 angstrom
           Maximum rank =  0   Radius =  0.325 angstrom
                   Q00  =   0.081601

H          x =  0.635558  y =  1.941973  z = -1.688967 angstrom
           Maximum rank =  0   Radius =  0.325 angstrom
                   Q00  =   0.076425

H          x =  2.364506  y =  2.250358  z = -1.339400 angstrom
           Maximum rank =  0   Radius =  0.325 angstrom
                   Q00  =   0.083850

H          x =  1.199047  y =  3.627709  z = -1.533295 angstrom
           Maximum rank =  0   Radius =  0.325 angstrom
                   Q00  =   0.078581

Total multipoles referred to origin at
           x =   0.000000,  y =    0.000000,  z =    0.000000 angstrom
                   Q00  =  -0.000000

Finished at 14:39:25 on 28 Apr 2020

  DMA results are available in the Python driver through the
	  variable('DMA DISTRIBUTED MULTIPOLES')
  and
	  variable('DMA TOTAL MULTIPOLES')
  commands.

    Psi4 stopped on: Tuesday, 28 April 2020 02:39PM
    Psi4 wall time for execution: 0:00:33.68

*** Psi4 exiting successfully. Buy a developer a beer!
