                               Psi4 1.3.2 release

  ==> Input File <==

--------------------------------------------------------------------------
import numpy as np
set {scf_type pk
basis cc-pvdz
d_convergence 10
gdma_switch   0
gdma_limit    0
gdma_origin   [ 0.0,  0.0,  0.0 ]
}
molecule test {
    units Angstrom
    0 1
    --
    0 1
    C                1.689113640221587     0.851094248688114    -0.228033118360649
    C                2.960113640221587     0.011094248688114    -0.031033118360649
    C                1.544113640221587     1.867094248688114     0.883966881639351
    C                1.679113640221587     1.532094248688114    -1.594033118360649
    H                0.838113640221587     0.176094248688114    -0.176033118360649
    H                2.861113640221587    -0.519905751311886     0.916966881639351
    H                2.293113640221587     2.655094248688114     0.794966881639351
    H                0.554113640221587     2.320094248688114     0.849966881639351
    H                1.650113640221587     1.374094248688114     1.850966881639351
    H                2.498113640221587     2.245094248688114    -1.660033118360649
    H                1.850113640221587     0.769094248688114    -2.333033118360649
    H                3.869653640221587     0.629424248688114    -0.010823118360649
    H                3.074613640221588    -0.756315751311886    -0.810763118360649
    H                0.735473640221587     2.038424248688115    -1.845383118360649
    C               -1.739886359778413    -0.870905751311886    -0.103033118360649
    C               -3.040886359778413    -1.575905751311886    -0.526033118360649
    C               -2.037886359778413     0.203094248688114     0.932966881639351
    O               -0.869886359778413    -1.792905751311886     0.527966881639351
    H               -1.244886359778413    -0.432905751311886    -0.970033118360649
    H               -3.525886359778413    -1.957905751311886     0.373966881639351
    H               -2.629886359778413    -0.206905751311886     1.751966881639351
    H               -1.103886359778413     0.594094248688114     1.333966881639351
    H               -2.580886359778413     1.026094248688114     0.468966881639351
    H               -1.349886359778413    -2.243905751311885     1.231966881639351
    H               -2.810526359778413    -2.411425751311886    -1.203413118360649
    H               -3.720326359778413    -0.867545751311886    -1.022603118360649

}
e, wfn = energy('scf', return_wfn=True)
gdma(wfn)
dmavals = variable('DMA DISTRIBUTED MULTIPOLES')
charges = np.array(dmavals)
print(charges)
np.save('SSI-036ILE-040THR-1-dimer.npy', np.array(charges))--------------------------------------------------------------------------

*** tstart() called on ds3
*** at Sun Apr 26 22:23:45 2020

   => Loading Basis Set <=

    Name: CC-PVDZ
    Role: ORBITAL
    Keyword: BASIS
    atoms 1-4, 15-17  entry C          line   138 file /theoryfs2/ds/metcalf/miniconda2/envs/tf2gpu/share/psi4/basis/cc-pvdz.gbs
    atoms 5-14, 19-26 entry H          line    22 file /theoryfs2/ds/metcalf/miniconda2/envs/tf2gpu/share/psi4/basis/cc-pvdz.gbs
    atoms 18          entry O          line   198 file /theoryfs2/ds/metcalf/miniconda2/envs/tf2gpu/share/psi4/basis/cc-pvdz.gbs

         ---------------------------------------------------------
                                   SCF
               by Justin Turney, Rob Parrish, Andy Simmonett
                          and Daniel G. A. Smith
                              RHF Reference
                        1 Threads,    500 MiB Core
         ---------------------------------------------------------

  ==> Geometry <==

    Molecular point group: c1
    Full point group: C1

    Geometry (in Angstrom), charge = 0, multiplicity = 1:

       Center              X                  Y                   Z               Mass
    ------------   -----------------  -----------------  -----------------  -----------------
         C            1.689113640222     0.851094248688    -0.228033118361    12.000000000000
         C            2.960113640222     0.011094248688    -0.031033118361    12.000000000000
         C            1.544113640222     1.867094248688     0.883966881639    12.000000000000
         C            1.679113640222     1.532094248688    -1.594033118361    12.000000000000
         H            0.838113640222     0.176094248688    -0.176033118361     1.007825032230
         H            2.861113640222    -0.519905751312     0.916966881639     1.007825032230
         H            2.293113640222     2.655094248688     0.794966881639     1.007825032230
         H            0.554113640222     2.320094248688     0.849966881639     1.007825032230
         H            1.650113640222     1.374094248688     1.850966881639     1.007825032230
         H            2.498113640222     2.245094248688    -1.660033118361     1.007825032230
         H            1.850113640222     0.769094248688    -2.333033118361     1.007825032230
         H            3.869653640222     0.629424248688    -0.010823118361     1.007825032230
         H            3.074613640222    -0.756315751312    -0.810763118361     1.007825032230
         H            0.735473640222     2.038424248688    -1.845383118361     1.007825032230
         C           -1.739886359778    -0.870905751312    -0.103033118361    12.000000000000
         C           -3.040886359778    -1.575905751312    -0.526033118361    12.000000000000
         C           -2.037886359778     0.203094248688     0.932966881639    12.000000000000
         O           -0.869886359778    -1.792905751312     0.527966881639    15.994914619570
         H           -1.244886359778    -0.432905751312    -0.970033118361     1.007825032230
         H           -3.525886359778    -1.957905751312     0.373966881639     1.007825032230
         H           -2.629886359778    -0.206905751312     1.751966881639     1.007825032230
         H           -1.103886359778     0.594094248688     1.333966881639     1.007825032230
         H           -2.580886359778     1.026094248688     0.468966881639     1.007825032230
         H           -1.349886359778    -2.243905751312     1.231966881639     1.007825032230
         H           -2.810526359778    -2.411425751312    -1.203413118361     1.007825032230
         H           -3.720326359778    -0.867545751312    -1.022603118361     1.007825032230

  Running in c1 symmetry.

  Rotational constants: A =      0.09050  B =      0.02365  C =      0.02303 [cm^-1]
  Rotational constants: A =   2713.08756  B =    709.12595  C =    690.43699 [MHz]
  Nuclear repulsion =  401.077486775441344

  Charge       = 0
  Multiplicity = 1
  Electrons    = 68
  Nalpha       = 34
  Nbeta        = 34

  ==> Algorithm <==

  SCF Algorithm Type is PK.
  DIIS enabled.
  MOM disabled.
  Fractional occupation disabled.
  Guess Type is SAD.
  Energy threshold   = 1.00e-06
  Density threshold  = 1.00e-10
  Integral threshold = 0.00e+00

  ==> Primary Basis <==

  Basis Set: CC-PVDZ
    Blend: CC-PVDZ
    Number of shells: 102
    Number of basis function: 202
    Number of Cartesian functions: 210
    Spherical Harmonics?: true
    Max angular momentum: 2

  ==> Pre-Iterations <==

   -------------------------------------------------------
    Irrep   Nso     Nmo     Nalpha   Nbeta   Ndocc  Nsocc
   -------------------------------------------------------
     A        202     202       0       0       0       0
   -------------------------------------------------------
    Total     202     202      34      34      34       0
   -------------------------------------------------------

  ==> Integral Setup <==

  Using integral reordering PK algorithm.
  Sizing the integral batches needed.
  Building batch lookup table.
   Calculation information:
      Number of atoms:                  26
      Number of AO shells:             102
      Number of primitives:            266
      Number of atomic orbitals:       210
      Number of basis functions:       202

      Integral cutoff                 1.00e-12
      Number of threads:                 1

	Batch   1 pq = [       0,    9405] index = [             0,44231715] size =     44231715
	Batch   2 pq = [    9405,   13301] index = [      44231715,88464951] size =     44233236
	Batch   3 pq = [   13301,   16290] index = [      88464951,132690195] size =     44225244
	Batch   4 pq = [   16290,   18810] index = [     132690195,176917455] size =     44227260
	Batch   5 pq = [   18810,   20503] index = [     176917455,210196756] size =     33279301
  Task number: 20
  Buffer size: 11059200
  Buffer per thread: 2
  We computed 12513925 shell quartets total.
  Whereas there are 13799631 unique shell quartets.

  ==> DiskJK: Disk-Based J/K Matrices <==

    J tasked:                  Yes
    K tasked:                  Yes
    wK tasked:                  No
    Memory [MiB]:              375
    Schwarz Cutoff:          1E-12

    OpenMP threads:              1

  Minimum eigenvalue in the overlap matrix is 4.2626836466E-03.
  Using Symmetric Orthogonalization.

  SCF Guess: Superposition of Atomic Densities via on-the-fly atomic UHF.

  ==> Iterations <==

                        Total Energy        Delta E     RMS |[F,P]|

   @RHF iter SAD:  -349.22933632792893   -3.49229e+02   0.00000e+00
   @RHF iter   1:  -350.14865810107307   -9.19322e-01   3.33378e-03 DIIS
   @RHF iter   2:  -350.39086785734548   -2.42210e-01   1.49025e-03 DIIS
   @RHF iter   3:  -350.43383528379593   -4.29674e-02   3.08698e-04 DIIS
   @RHF iter   4:  -350.43711870397976   -3.28342e-03   9.41265e-05 DIIS
   @RHF iter   5:  -350.43731996659977   -2.01263e-04   1.82390e-05 DIIS
   @RHF iter   6:  -350.43732990493459   -9.93833e-06   5.17627e-06 DIIS
   @RHF iter   7:  -350.43733071755338   -8.12619e-07   1.32953e-06 DIIS
   @RHF iter   8:  -350.43733078784521   -7.02918e-08   3.95150e-07 DIIS
   @RHF iter   9:  -350.43733079578544   -7.94023e-09   9.44548e-08 DIIS
   @RHF iter  10:  -350.43733079625900   -4.73563e-10   2.36930e-08 DIIS
   @RHF iter  11:  -350.43733079628299   -2.39879e-11   6.58710e-09 DIIS
   @RHF iter  12:  -350.43733079628487   -1.87583e-12   1.91638e-09 DIIS
   @RHF iter  13:  -350.43733079628629   -1.42109e-12   4.02939e-10 DIIS
   @RHF iter  14:  -350.43733079628612    1.70530e-13   9.46286e-11 DIIS
  Energy and wave function converged.

  ==> Post-Iterations <==

    Orbital Energies [Eh]
    ---------------------

    Doubly Occupied:

       1A    -20.548260     2A    -11.280724     3A    -11.227001
       4A    -11.217302     5A    -11.214312     6A    -11.208808
       7A    -11.207498     8A    -11.206952     9A     -1.358931
      10A     -1.076906    11A     -1.040720    12A     -0.938155
      13A     -0.924095    14A     -0.918412    15A     -0.815879
      16A     -0.758289    17A     -0.659495    18A     -0.646525
      19A     -0.625511    20A     -0.598367    21A     -0.584369
      22A     -0.581549    23A     -0.574368    24A     -0.544434
      25A     -0.530481    26A     -0.529171    27A     -0.518395
      28A     -0.505307    29A     -0.499947    30A     -0.468260
      31A     -0.453833    32A     -0.451401    33A     -0.449627
      34A     -0.426646

    Virtual:

      35A      0.166192    36A      0.184090    37A      0.206161
      38A      0.222252    39A      0.229747    40A      0.234487
      41A      0.245906    42A      0.251105    43A      0.262418
      44A      0.265343    45A      0.276164    46A      0.282652
      47A      0.298162    48A      0.307982    49A      0.309013
      50A      0.318999    51A      0.329204    52A      0.344859
      53A      0.368225    54A      0.383291    55A      0.403700
      56A      0.415027    57A      0.417536    58A      0.443328
      59A      0.564329    60A      0.572248    61A      0.593286
      62A      0.595475    63A      0.617935    64A      0.639406
      65A      0.660740    66A      0.681306    67A      0.718891
      68A      0.733642    69A      0.755285    70A      0.778113
      71A      0.787115    72A      0.793375    73A      0.813454
      74A      0.831186    75A      0.834879    76A      0.862886
      77A      0.869149    78A      0.876787    79A      0.886722
      80A      0.888502    81A      0.892357    82A      0.903275
      83A      0.905592    84A      0.914091    85A      0.917135
      86A      0.922123    87A      0.928975    88A      0.933133
      89A      0.937968    90A      0.942104    91A      0.947113
      92A      0.961422    93A      0.979919    94A      0.996390
      95A      1.009326    96A      1.039201    97A      1.061831
      98A      1.125354    99A      1.138711   100A      1.140078
     101A      1.147346   102A      1.169775   103A      1.242273
     104A      1.293774   105A      1.348453   106A      1.377142
     107A      1.381532   108A      1.412116   109A      1.421407
     110A      1.426106   111A      1.500349   112A      1.519891
     113A      1.540050   114A      1.558812   115A      1.563169
     116A      1.647556   117A      1.659217   118A      1.668669
     119A      1.678811   120A      1.683893   121A      1.690146
     122A      1.699690   123A      1.707862   124A      1.714336
     125A      1.720827   126A      1.731097   127A      1.771074
     128A      1.828060   129A      1.849544   130A      1.852313
     131A      1.864483   132A      1.874858   133A      1.876450
     134A      1.896562   135A      1.921490   136A      1.923783
     137A      1.940029   138A      1.950235   139A      1.966845
     140A      1.973161   141A      1.978595   142A      1.979801
     143A      1.985192   144A      1.996009   145A      2.004892
     146A      2.017916   147A      2.020088   148A      2.036996
     149A      2.080626   150A      2.087404   151A      2.098302
     152A      2.115635   153A      2.132047   154A      2.139116
     155A      2.150049   156A      2.182458   157A      2.210658
     158A      2.245258   159A      2.263318   160A      2.286415
     161A      2.302746   162A      2.324353   163A      2.331812
     164A      2.335374   165A      2.347474   166A      2.359920
     167A      2.377749   168A      2.395343   169A      2.437986
     170A      2.485942   171A      2.510104   172A      2.524037
     173A      2.552586   174A      2.557910   175A      2.599255
     176A      2.637116   177A      2.643548   178A      2.652019
     179A      2.726025   180A      2.734395   181A      2.752623
     182A      2.763508   183A      2.779423   184A      2.792179
     185A      2.798352   186A      2.804409   187A      2.812438
     188A      2.834841   189A      2.844245   190A      2.854576
     191A      2.875613   192A      2.898655   193A      2.911436
     194A      3.003617   195A      3.039505   196A      3.048807
     197A      3.176502   198A      3.321798   199A      3.415890
     200A      3.478004   201A      3.699387   202A      4.128570

    Final Occupation by Irrep:
              A
    DOCC [    34 ]

  @RHF Final Energy:  -350.43733079628612

   => Energetics <=

    Nuclear Repulsion Energy =            401.0774867754413435
    One-Electron Energy =               -1269.8497750835183524
    Two-Electron Energy =                 518.3349575117908898
    Total Energy =                       -350.4373307962861190

Computation Completed

Properties will be evaluated at   0.000000,   0.000000,   0.000000 [a0]

Properties computed using the SCF density matrix

  Nuclear Dipole Moment: [e a0]
     X:     1.1755      Y:     4.1451      Z:    -0.4272

  Electronic Dipole Moment: [e a0]
     X:    -1.8727      Y:    -4.1582      Z:     0.5764

  Dipole Moment: [e a0]
     X:    -0.6972      Y:    -0.0130      Z:     0.1492     Total:     0.7131

  Dipole Moment: [D]
     X:    -1.7721      Y:    -0.0332      Z:     0.3791     Total:     1.8125

*** tstop() called on ds3 at Sun Apr 26 22:25:24 2020
Module time:
	user time   =      74.87 seconds =       1.25 minutes
	system time =      28.66 seconds =       0.48 minutes
	total time  =         99 seconds =       1.65 minutes
Total time:
	user time   =      74.87 seconds =       1.25 minutes
	system time =      28.66 seconds =       0.48 minutes
	total time  =         99 seconds =       1.65 minutes
                                     G D M A

                                 by Anthony Stone

                           version 2.2.06, 22 June 2011

               Distributed Multipoles from Gaussian wavefunctions

Starting at 22:25:24 on 26 Apr 2020

Using SCF density matrix from file ./SSI/SSI-036ILE-040THR-1-dimer.test.27320.fchk

                         Distributed Multipole Analysis

Standard DMA

Positions and radii in angstrom
Multipole moments in atomic units, ea_0^k for rank k

C          x =  1.689114  y =  0.851094  z = -0.228033 angstrom
           Maximum rank =  0   Radius =  0.650 angstrom
                   Q00  =   0.042747

C          x =  2.960114  y =  0.011094  z = -0.031033 angstrom
           Maximum rank =  0   Radius =  0.650 angstrom
                   Q00  =  -0.258293

C          x =  1.544114  y =  1.867094  z =  0.883967 angstrom
           Maximum rank =  0   Radius =  0.650 angstrom
                   Q00  =  -0.241735

C          x =  1.679114  y =  1.532094  z = -1.594033 angstrom
           Maximum rank =  0   Radius =  0.650 angstrom
                   Q00  =  -0.257892

H          x =  0.838114  y =  0.176094  z = -0.176033 angstrom
           Maximum rank =  0   Radius =  0.325 angstrom
                   Q00  =   0.007559

H          x =  2.861114  y = -0.519906  z =  0.916967 angstrom
           Maximum rank =  0   Radius =  0.325 angstrom
                   Q00  =   0.084394

H          x =  2.293114  y =  2.655094  z =  0.794967 angstrom
           Maximum rank =  0   Radius =  0.325 angstrom
                   Q00  =   0.074408

H          x =  0.554114  y =  2.320094  z =  0.849967 angstrom
           Maximum rank =  0   Radius =  0.325 angstrom
                   Q00  =   0.075085

H          x =  1.650114  y =  1.374094  z =  1.850967 angstrom
           Maximum rank =  0   Radius =  0.325 angstrom
                   Q00  =   0.077095

H          x =  2.498114  y =  2.245094  z = -1.660033 angstrom
           Maximum rank =  0   Radius =  0.325 angstrom
                   Q00  =   0.075495

H          x =  1.850114  y =  0.769094  z = -2.333033 angstrom
           Maximum rank =  0   Radius =  0.325 angstrom
                   Q00  =   0.078274

H          x =  3.869654  y =  0.629424  z = -0.010823 angstrom
           Maximum rank =  0   Radius =  0.325 angstrom
                   Q00  =   0.071573

H          x =  3.074614  y = -0.756316  z = -0.810763 angstrom
           Maximum rank =  0   Radius =  0.325 angstrom
                   Q00  =   0.082839

H          x =  0.735474  y =  2.038424  z = -1.845383 angstrom
           Maximum rank =  0   Radius =  0.325 angstrom
                   Q00  =   0.076310

C          x = -1.739886  y = -0.870906  z = -0.103033 angstrom
           Maximum rank =  0   Radius =  0.650 angstrom
                   Q00  =   0.093391

C          x = -3.040886  y = -1.575906  z = -0.526033 angstrom
           Maximum rank =  0   Radius =  0.650 angstrom
                   Q00  =  -0.222991

C          x = -2.037886  y =  0.203094  z =  0.932967 angstrom
           Maximum rank =  0   Radius =  0.650 angstrom
                   Q00  =  -0.265680

O          x = -0.869886  y = -1.792906  z =  0.527967 angstrom
           Maximum rank =  0   Radius =  0.650 angstrom
                   Q00  =  -0.537120

H          x = -1.244886  y = -0.432906  z = -0.970033 angstrom
           Maximum rank =  0   Radius =  0.325 angstrom
                   Q00  =   0.055242

H          x = -3.525886  y = -1.957906  z =  0.373967 angstrom
           Maximum rank =  0   Radius =  0.325 angstrom
                   Q00  =   0.073508

H          x = -2.629886  y = -0.206906  z =  1.751967 angstrom
           Maximum rank =  0   Radius =  0.325 angstrom
                   Q00  =   0.074784

H          x = -1.103886  y =  0.594094  z =  1.333967 angstrom
           Maximum rank =  0   Radius =  0.325 angstrom
                   Q00  =   0.103550

H          x = -2.580886  y =  1.026094  z =  0.468967 angstrom
           Maximum rank =  0   Radius =  0.325 angstrom
                   Q00  =   0.074495

H          x = -1.349886  y = -2.243906  z =  1.231967 angstrom
           Maximum rank =  0   Radius =  0.325 angstrom
                   Q00  =   0.381641

H          x = -2.810526  y = -2.411426  z = -1.203413 angstrom
           Maximum rank =  0   Radius =  0.325 angstrom
                   Q00  =   0.095811

H          x = -3.720326  y = -0.867546  z = -1.022603 angstrom
           Maximum rank =  0   Radius =  0.325 angstrom
                   Q00  =   0.085509

Total multipoles referred to origin at
           x =   0.000000,  y =    0.000000,  z =    0.000000 angstrom
                   Q00  =  -0.000000

Finished at 22:25:24 on 26 Apr 2020

  DMA results are available in the Python driver through the
	  variable('DMA DISTRIBUTED MULTIPOLES')
  and
	  variable('DMA TOTAL MULTIPOLES')
  commands.

    Psi4 stopped on: Sunday, 26 April 2020 10:25PM
    Psi4 wall time for execution: 0:01:39.47

*** Psi4 exiting successfully. Buy a developer a beer!
