                               Psi4 1.3.2 release

  ==> Input File <==

--------------------------------------------------------------------------
import numpy as np
set {scf_type pk
basis cc-pvdz
d_convergence 10
gdma_switch   0
gdma_limit    0
gdma_origin   [ 0.0,  0.0,  0.0 ]
}
molecule test {
    units Angstrom
    -1 1
    --
    -1 1
    C               -0.509229493732668     0.944184897517736     1.115236489773064
    C               -0.211229493732668     2.067184897517737     0.120236489773064
    C                0.723770506267332     0.105184897517736     1.439236489773064
    O                1.438770506267332    -0.296815102482264     0.489236489773064
    O                0.961770506267332    -0.155815102482264     2.645236489773064
    H               -0.914229493732668     1.374184897517736     2.033236489773064
    H               -1.273229493732668     0.296184897517736     0.685236489773064
    H                0.166770506267332     1.620184897517736    -0.799763510226936
    H                0.550202506267332     2.749374897517736     0.526236489773064
    H               -1.132440493732668     2.624384897517736    -0.105380510226936
    C               -1.199229493732668    -0.973815102482264    -2.120763510226936
    C               -1.188229493732668    -1.617815102482263    -3.509763510226936
    H               -0.371229493732668    -1.352815102482264    -1.521763510226936
    H               -1.081229493732668     0.104184897517736    -2.218763510226936
    H               -2.134229493732668    -1.188815102482264    -1.606763510226936
    H               -0.204229493732668    -1.457815102482264    -3.951763510226936
    H               -1.381263493732668    -2.698095102482264    -3.433979510226936
    H               -1.935584493732668    -1.137575102482263    -4.158479510226936

}
e, wfn = energy('scf', return_wfn=True)
gdma(wfn)
dmavals = variable('DMA DISTRIBUTED MULTIPOLES')
charges = np.array(dmavals)
print(charges)
np.save('SSI-089ASP-131VAL-1-dimer.npy', np.array(charges))--------------------------------------------------------------------------

*** tstart() called on ds3
*** at Tue Apr 28 13:31:19 2020

   => Loading Basis Set <=

    Name: CC-PVDZ
    Role: ORBITAL
    Keyword: BASIS
    atoms 1-3, 11-12  entry C          line   138 file /theoryfs2/ds/metcalf/miniconda2/envs/tf2gpu/share/psi4/basis/cc-pvdz.gbs
    atoms 4-5         entry O          line   198 file /theoryfs2/ds/metcalf/miniconda2/envs/tf2gpu/share/psi4/basis/cc-pvdz.gbs
    atoms 6-10, 13-18 entry H          line    22 file /theoryfs2/ds/metcalf/miniconda2/envs/tf2gpu/share/psi4/basis/cc-pvdz.gbs

         ---------------------------------------------------------
                                   SCF
               by Justin Turney, Rob Parrish, Andy Simmonett
                          and Daniel G. A. Smith
                              RHF Reference
                        1 Threads,    500 MiB Core
         ---------------------------------------------------------

  ==> Geometry <==

    Molecular point group: c1
    Full point group: C1

    Geometry (in Angstrom), charge = -1, multiplicity = 1:

       Center              X                  Y                   Z               Mass
    ------------   -----------------  -----------------  -----------------  -----------------
         C           -0.509229493733     0.944184897518     1.115236489773    12.000000000000
         C           -0.211229493733     2.067184897518     0.120236489773    12.000000000000
         C            0.723770506267     0.105184897518     1.439236489773    12.000000000000
         O            1.438770506267    -0.296815102482     0.489236489773    15.994914619570
         O            0.961770506267    -0.155815102482     2.645236489773    15.994914619570
         H           -0.914229493733     1.374184897518     2.033236489773     1.007825032230
         H           -1.273229493733     0.296184897518     0.685236489773     1.007825032230
         H            0.166770506267     1.620184897518    -0.799763510227     1.007825032230
         H            0.550202506267     2.749374897518     0.526236489773     1.007825032230
         H           -1.132440493733     2.624384897518    -0.105380510227     1.007825032230
         C           -1.199229493733    -0.973815102482    -2.120763510227    12.000000000000
         C           -1.188229493733    -1.617815102482    -3.509763510227    12.000000000000
         H           -0.371229493733    -1.352815102482    -1.521763510227     1.007825032230
         H           -1.081229493733     0.104184897518    -2.218763510227     1.007825032230
         H           -2.134229493733    -1.188815102482    -1.606763510227     1.007825032230
         H           -0.204229493733    -1.457815102482    -3.951763510227     1.007825032230
         H           -1.381263493733    -2.698095102482    -3.433979510227     1.007825032230
         H           -1.935584493733    -1.137575102482    -4.158479510227     1.007825032230

  Running in c1 symmetry.

  Rotational constants: A =      0.11973  B =      0.03021  C =      0.02664 [cm^-1]
  Rotational constants: A =   3589.49493  B =    905.62213  C =    798.78053 [MHz]
  Nuclear repulsion =  290.104219626231099

  Charge       = -1
  Multiplicity = 1
  Electrons    = 58
  Nalpha       = 29
  Nbeta        = 29

  ==> Algorithm <==

  SCF Algorithm Type is PK.
  DIIS enabled.
  MOM disabled.
  Fractional occupation disabled.
  Guess Type is SAD.
  Energy threshold   = 1.00e-06
  Density threshold  = 1.00e-10
  Integral threshold = 0.00e+00

  ==> Primary Basis <==

  Basis Set: CC-PVDZ
    Blend: CC-PVDZ
    Number of shells: 75
    Number of basis function: 153
    Number of Cartesian functions: 160
    Spherical Harmonics?: true
    Max angular momentum: 2

  ==> Pre-Iterations <==

   -------------------------------------------------------
    Irrep   Nso     Nmo     Nalpha   Nbeta   Ndocc  Nsocc
   -------------------------------------------------------
     A        153     153       0       0       0       0
   -------------------------------------------------------
    Total     153     153      29      29      29       0
   -------------------------------------------------------

  ==> Integral Setup <==

  Using integral reordering PK algorithm.
  Sizing the integral batches needed.
  Building batch lookup table.
   Calculation information:
      Number of atoms:                  18
      Number of AO shells:              75
      Number of primitives:            209
      Number of atomic orbitals:       160
      Number of basis functions:       153

      Integral cutoff                 1.00e-12
      Number of threads:                 1

	Batch   1 pq = [       0,    9405] index = [             0,44231715] size =     44231715
	Batch   2 pq = [    9405,   11781] index = [      44231715,69401871] size =     25170156
  Task number: 7
  Buffer size: 11059200
  Buffer per thread: 2
  We computed 3427321 shell quartets total.
  Whereas there are 4062675 unique shell quartets.

  ==> DiskJK: Disk-Based J/K Matrices <==

    J tasked:                  Yes
    K tasked:                  Yes
    wK tasked:                  No
    Memory [MiB]:              375
    Schwarz Cutoff:          1E-12

    OpenMP threads:              1

  Minimum eigenvalue in the overlap matrix is 4.3125774450E-03.
  Using Symmetric Orthogonalization.

  SCF Guess: Superposition of Atomic Densities via on-the-fly atomic UHF.

  ==> Iterations <==

                        Total Energy        Delta E     RMS |[F,P]|

   @RHF iter SAD:  -343.82410849722010   -3.43824e+02   0.00000e+00
   @RHF iter   1:  -345.22594445999420   -1.40184e+00   4.89540e-03 DIIS
   @RHF iter   2:  -345.44596629278271   -2.20022e-01   2.71766e-03 DIIS
   @RHF iter   3:  -345.51088147241848   -6.49152e-02   4.26348e-04 DIIS
   @RHF iter   4:  -345.51387255208806   -2.99108e-03   1.68037e-04 DIIS
   @RHF iter   5:  -345.51431633741191   -4.43785e-04   2.43325e-05 DIIS
   @RHF iter   6:  -345.51432996787338   -1.36305e-05   5.36962e-06 DIIS
   @RHF iter   7:  -345.51433061472460   -6.46851e-07   2.14467e-06 DIIS
   @RHF iter   8:  -345.51433069142405   -7.66995e-08   7.15592e-07 DIIS
   @RHF iter   9:  -345.51433070426020   -1.28362e-08   3.92347e-07 DIIS
   @RHF iter  10:  -345.51433070768655   -3.42635e-09   1.08499e-07 DIIS
   @RHF iter  11:  -345.51433070822219   -5.35636e-10   3.42138e-08 DIIS
   @RHF iter  12:  -345.51433070826863   -4.64411e-11   9.57035e-09 DIIS
   @RHF iter  13:  -345.51433070827056   -1.93268e-12   2.98542e-09 DIIS
   @RHF iter  14:  -345.51433070827085   -2.84217e-13   8.58173e-10 DIIS
   @RHF iter  15:  -345.51433070827090   -5.68434e-14   3.33004e-10 DIIS
   @RHF iter  16:  -345.51433070826954    1.36424e-12   1.29836e-10 DIIS
   @RHF iter  17:  -345.51433070827079   -1.25056e-12   5.62420e-11 DIIS
  Energy and wave function converged.

  ==> Post-Iterations <==

    Orbital Energies [Eh]
    ---------------------

    Doubly Occupied:

       1A    -20.261859     2A    -20.257582     3A    -11.122769
       4A    -11.113846     5A    -11.100776     6A    -11.074729
       7A    -11.051265     8A     -1.144891     9A     -1.033091
      10A     -0.912324    11A     -0.870152    12A     -0.730558
      13A     -0.700054    14A     -0.507330    15A     -0.495296
      16A     -0.491127    17A     -0.455559    18A     -0.429697
      19A     -0.392878    20A     -0.385976    21A     -0.382414
      22A     -0.376003    23A     -0.363637    24A     -0.359676
      25A     -0.321297    26A     -0.297225    27A     -0.179399
      28A     -0.171223    29A     -0.159514

    Virtual:

      30A      0.284107    31A      0.317560    32A      0.342340
      33A      0.352606    34A      0.361832    35A      0.381981
      36A      0.393839    37A      0.407158    38A      0.419994
      39A      0.430991    40A      0.456972    41A      0.476692
      42A      0.506206    43A      0.556828    44A      0.604569
      45A      0.692982    46A      0.702910    47A      0.703049
      48A      0.706723    49A      0.732088    50A      0.773781
      51A      0.796176    52A      0.797616    53A      0.855192
      54A      0.865851    55A      0.952196    56A      0.967753
      57A      0.975140    58A      0.986565    59A      0.988062
      60A      0.998598    61A      1.005368    62A      1.013108
      63A      1.032457    64A      1.037130    65A      1.047511
      66A      1.064578    67A      1.072413    68A      1.086972
      69A      1.096687    70A      1.110046    71A      1.144146
      72A      1.148047    73A      1.231052    74A      1.248060
      75A      1.257166    76A      1.305017    77A      1.314506
      78A      1.352164    79A      1.406938    80A      1.480364
      81A      1.522646    82A      1.560561    83A      1.574840
      84A      1.585138    85A      1.612005    86A      1.621347
      87A      1.658712    88A      1.667153    89A      1.685713
      90A      1.711562    91A      1.749870    92A      1.774227
      93A      1.817113    94A      1.835065    95A      1.861468
      96A      1.936848    97A      1.961923    98A      1.982897
      99A      2.002049   100A      2.023438   101A      2.036687
     102A      2.047817   103A      2.058500   104A      2.062566
     105A      2.072595   106A      2.081992   107A      2.100661
     108A      2.131473   109A      2.138558   110A      2.145249
     111A      2.166343   112A      2.193665   113A      2.205065
     114A      2.210409   115A      2.222475   116A      2.294750
     117A      2.366337   118A      2.379180   119A      2.412086
     120A      2.441157   121A      2.466947   122A      2.483946
     123A      2.522783   124A      2.561811   125A      2.568923
     126A      2.609059   127A      2.655989   128A      2.667530
     129A      2.680969   130A      2.718941   131A      2.755025
     132A      2.823000   133A      2.857278   134A      2.904679
     135A      2.918639   136A      2.952577   137A      2.960052
     138A      2.998232   139A      3.011768   140A      3.052430
     141A      3.063945   142A      3.078950   143A      3.128380
     144A      3.251163   145A      3.285740   146A      3.302508
     147A      3.362753   148A      3.628940   149A      3.785834
     150A      3.823423   151A      4.045384   152A      4.088162
     153A      4.188352

    Final Occupation by Irrep:
              A
    DOCC [    29 ]

  @RHF Final Energy:  -345.51433070827079

   => Energetics <=

    Nuclear Repulsion Energy =            290.1042196262310995
    One-Electron Energy =               -1056.9528083841057651
    Two-Electron Energy =                 421.3342580496039318
    Total Energy =                       -345.5143307082707906

Computation Completed

Properties will be evaluated at   0.000000,   0.000000,   0.000000 [a0]

Properties computed using the SCF density matrix

  Nuclear Dipole Moment: [e a0]
     X:    -9.0919      Y:     0.8728      Z:   -13.6269

  Electronic Dipole Moment: [e a0]
     X:     6.9135      Y:    -0.4270      Z:    10.9999

  Dipole Moment: [e a0]
     X:    -2.1784      Y:     0.4459      Z:    -2.6270     Total:     3.4417

  Dipole Moment: [D]
     X:    -5.5370      Y:     1.1333      Z:    -6.6772     Total:     8.7480

*** tstop() called on ds3 at Tue Apr 28 13:32:06 2020
Module time:
	user time   =      22.83 seconds =       0.38 minutes
	system time =      10.05 seconds =       0.17 minutes
	total time  =         47 seconds =       0.78 minutes
Total time:
	user time   =      22.83 seconds =       0.38 minutes
	system time =      10.05 seconds =       0.17 minutes
	total time  =         47 seconds =       0.78 minutes
                                     G D M A

                                 by Anthony Stone

                           version 2.2.06, 22 June 2011

               Distributed Multipoles from Gaussian wavefunctions

Starting at 13:32:6 on 28 Apr 2020

Using SCF density matrix from file ./SSI/SSI-089ASP-131VAL-1-dimer.test.16270.fchk

                         Distributed Multipole Analysis

Standard DMA

Positions and radii in angstrom
Multipole moments in atomic units, ea_0^k for rank k

C          x = -0.509229  y =  0.944185  z =  1.115236 angstrom
           Maximum rank =  0   Radius =  0.650 angstrom
                   Q00  =  -0.134848

C          x = -0.211229  y =  2.067185  z =  0.120236 angstrom
           Maximum rank =  0   Radius =  0.650 angstrom
                   Q00  =  -0.208471

C          x =  0.723771  y =  0.105185  z =  1.439236 angstrom
           Maximum rank =  0   Radius =  0.650 angstrom
                   Q00  =   0.989659

O          x =  1.438771  y = -0.296815  z =  0.489236 angstrom
           Maximum rank =  0   Radius =  0.650 angstrom
                   Q00  =  -0.951869

O          x =  0.961771  y = -0.155815  z =  2.645236 angstrom
           Maximum rank =  0   Radius =  0.650 angstrom
                   Q00  =  -0.927690

H          x = -0.914229  y =  1.374185  z =  2.033236 angstrom
           Maximum rank =  0   Radius =  0.325 angstrom
                   Q00  =   0.022019

H          x = -1.273229  y =  0.296185  z =  0.685236 angstrom
           Maximum rank =  0   Radius =  0.325 angstrom
                   Q00  =   0.047533

H          x =  0.166771  y =  1.620185  z = -0.799764 angstrom
           Maximum rank =  0   Radius =  0.325 angstrom
                   Q00  =   0.088845

H          x =  0.550203  y =  2.749375  z =  0.526236 angstrom
           Maximum rank =  0   Radius =  0.325 angstrom
                   Q00  =   0.065376

H          x = -1.132440  y =  2.624385  z = -0.105381 angstrom
           Maximum rank =  0   Radius =  0.325 angstrom
                   Q00  =   0.018811

C          x = -1.199229  y = -0.973815  z = -2.120764 angstrom
           Maximum rank =  0   Radius =  0.650 angstrom
                   Q00  =  -0.194633

C          x = -1.188229  y = -1.617815  z = -3.509764 angstrom
           Maximum rank =  0   Radius =  0.650 angstrom
                   Q00  =  -0.246236

H          x = -0.371229  y = -1.352815  z = -1.521764 angstrom
           Maximum rank =  0   Radius =  0.325 angstrom
                   Q00  =   0.102738

H          x = -1.081229  y =  0.104185  z = -2.218764 angstrom
           Maximum rank =  0   Radius =  0.325 angstrom
                   Q00  =   0.074439

H          x = -2.134229  y = -1.188815  z = -1.606764 angstrom
           Maximum rank =  0   Radius =  0.325 angstrom
                   Q00  =   0.057674

H          x = -0.204229  y = -1.457815  z = -3.951764 angstrom
           Maximum rank =  0   Radius =  0.325 angstrom
                   Q00  =   0.076985

H          x = -1.381263  y = -2.698095  z = -3.433980 angstrom
           Maximum rank =  0   Radius =  0.325 angstrom
                   Q00  =   0.066218

H          x = -1.935584  y = -1.137575  z = -4.158480 angstrom
           Maximum rank =  0   Radius =  0.325 angstrom
                   Q00  =   0.053452

Total multipoles referred to origin at
           x =   0.000000,  y =    0.000000,  z =    0.000000 angstrom
                   Q00  =  -1.000000

Finished at 13:32:6 on 28 Apr 2020

  DMA results are available in the Python driver through the
	  variable('DMA DISTRIBUTED MULTIPOLES')
  and
	  variable('DMA TOTAL MULTIPOLES')
  commands.

    Psi4 stopped on: Tuesday, 28 April 2020 01:32PM
    Psi4 wall time for execution: 0:00:47.46

*** Psi4 exiting successfully. Buy a developer a beer!
