                               Psi4 1.3.2 release

  ==> Input File <==

--------------------------------------------------------------------------
import numpy as np
set {scf_type pk
basis cc-pvdz
d_convergence 10
gdma_switch   0
gdma_limit    0
gdma_origin   [ 0.0,  0.0,  0.0 ]
}
molecule test {
    units Angstrom
    -1 1
    --
    -1 1
    C               -1.135306312291349     0.689432803808818    -2.493483261798095
    C               -1.980306312291349     0.771432803808818    -3.757483261798094
    H               -0.436306312291349    -0.144567196191182    -2.570483261798095
    H               -0.564306312291349     1.611432803808818    -2.373483261798095
    H               -1.741306312291349     0.545432803808818    -1.604483261798094
    H               -2.526306312291349     1.717432803808818    -3.749483261798094
    H               -2.709246312291349    -0.052366196191182    -3.755343261798095
    H               -1.367466312291349     0.737939803808818    -4.670333261798094
    C               -0.145306312291349    -0.838567196191182     0.770516738201905
    C                0.068693687708651    -2.202567196191182     1.414516738201905
    C                0.821693687708651     0.222432803808818     1.277516738201905
    O                1.961693687708651    -0.093567196191182     1.638516738201906
    O                0.456693687708651     1.404432803808818     1.296516738201906
    H                0.007693687708651    -0.942567196191182    -0.304483261798095
    H               -1.168306312291349    -0.498567196191182     0.927516738201905
    H                1.114693687708651    -2.487567196191182     1.287516738201906
    H               -0.594466312291349    -2.944190896191182     0.945246738201905
    H               -0.170726312291349    -2.179280396191182     2.487896738201905

}
e, wfn = energy('scf', return_wfn=True)
gdma(wfn)
dmavals = variable('DMA DISTRIBUTED MULTIPOLES')
charges = np.array(dmavals)
print(charges)
np.save('SSI-061ILE-086ASP-1-dimer.npy', np.array(charges))--------------------------------------------------------------------------

*** tstart() called on ds3
*** at Mon Apr 27 17:00:06 2020

   => Loading Basis Set <=

    Name: CC-PVDZ
    Role: ORBITAL
    Keyword: BASIS
    atoms 1-2, 9-11  entry C          line   138 file /theoryfs2/ds/metcalf/miniconda2/envs/tf2gpu/share/psi4/basis/cc-pvdz.gbs
    atoms 3-8, 14-18 entry H          line    22 file /theoryfs2/ds/metcalf/miniconda2/envs/tf2gpu/share/psi4/basis/cc-pvdz.gbs
    atoms 12-13      entry O          line   198 file /theoryfs2/ds/metcalf/miniconda2/envs/tf2gpu/share/psi4/basis/cc-pvdz.gbs

         ---------------------------------------------------------
                                   SCF
               by Justin Turney, Rob Parrish, Andy Simmonett
                          and Daniel G. A. Smith
                              RHF Reference
                        1 Threads,    500 MiB Core
         ---------------------------------------------------------

  ==> Geometry <==

    Molecular point group: c1
    Full point group: C1

    Geometry (in Angstrom), charge = -1, multiplicity = 1:

       Center              X                  Y                   Z               Mass
    ------------   -----------------  -----------------  -----------------  -----------------
         C           -1.135306312291     0.689432803809    -2.493483261798    12.000000000000
         C           -1.980306312291     0.771432803809    -3.757483261798    12.000000000000
         H           -0.436306312291    -0.144567196191    -2.570483261798     1.007825032230
         H           -0.564306312291     1.611432803809    -2.373483261798     1.007825032230
         H           -1.741306312291     0.545432803809    -1.604483261798     1.007825032230
         H           -2.526306312291     1.717432803809    -3.749483261798     1.007825032230
         H           -2.709246312291    -0.052366196191    -3.755343261798     1.007825032230
         H           -1.367466312291     0.737939803809    -4.670333261798     1.007825032230
         C           -0.145306312291    -0.838567196191     0.770516738202    12.000000000000
         C            0.068693687709    -2.202567196191     1.414516738202    12.000000000000
         C            0.821693687709     0.222432803809     1.277516738202    12.000000000000
         O            1.961693687709    -0.093567196191     1.638516738202    15.994914619570
         O            0.456693687709     1.404432803809     1.296516738202    15.994914619570
         H            0.007693687709    -0.942567196191    -0.304483261798     1.007825032230
         H           -1.168306312291    -0.498567196191     0.927516738202     1.007825032230
         H            1.114693687709    -2.487567196191     1.287516738202     1.007825032230
         H           -0.594466312291    -2.944190896191     0.945246738202     1.007825032230
         H           -0.170726312291    -2.179280396191     2.487896738202     1.007825032230

  Running in c1 symmetry.

  Rotational constants: A =      0.11263  B =      0.02752  C =      0.02369 [cm^-1]
  Rotational constants: A =   3376.62549  B =    825.13122  C =    710.11660 [MHz]
  Nuclear repulsion =  286.203257232251644

  Charge       = -1
  Multiplicity = 1
  Electrons    = 58
  Nalpha       = 29
  Nbeta        = 29

  ==> Algorithm <==

  SCF Algorithm Type is PK.
  DIIS enabled.
  MOM disabled.
  Fractional occupation disabled.
  Guess Type is SAD.
  Energy threshold   = 1.00e-06
  Density threshold  = 1.00e-10
  Integral threshold = 0.00e+00

  ==> Primary Basis <==

  Basis Set: CC-PVDZ
    Blend: CC-PVDZ
    Number of shells: 75
    Number of basis function: 153
    Number of Cartesian functions: 160
    Spherical Harmonics?: true
    Max angular momentum: 2

  ==> Pre-Iterations <==

   -------------------------------------------------------
    Irrep   Nso     Nmo     Nalpha   Nbeta   Ndocc  Nsocc
   -------------------------------------------------------
     A        153     153       0       0       0       0
   -------------------------------------------------------
    Total     153     153      29      29      29       0
   -------------------------------------------------------

  ==> Integral Setup <==

  Using integral reordering PK algorithm.
  Sizing the integral batches needed.
  Building batch lookup table.
   Calculation information:
      Number of atoms:                  18
      Number of AO shells:              75
      Number of primitives:            209
      Number of atomic orbitals:       160
      Number of basis functions:       153

      Integral cutoff                 1.00e-12
      Number of threads:                 1

	Batch   1 pq = [       0,    9405] index = [             0,44231715] size =     44231715
	Batch   2 pq = [    9405,   11781] index = [      44231715,69401871] size =     25170156
  Task number: 7
  Buffer size: 11059200
  Buffer per thread: 2
  We computed 3227024 shell quartets total.
  Whereas there are 4062675 unique shell quartets.

  ==> DiskJK: Disk-Based J/K Matrices <==

    J tasked:                  Yes
    K tasked:                  Yes
    wK tasked:                  No
    Memory [MiB]:              375
    Schwarz Cutoff:          1E-12

    OpenMP threads:              1

  Minimum eigenvalue in the overlap matrix is 3.8695160564E-03.
  Using Symmetric Orthogonalization.

  SCF Guess: Superposition of Atomic Densities via on-the-fly atomic UHF.

  ==> Iterations <==

                        Total Energy        Delta E     RMS |[F,P]|

   @RHF iter SAD:  -343.93257956504056   -3.43933e+02   0.00000e+00
   @RHF iter   1:  -345.21815950687358   -1.28558e+00   4.91889e-03 DIIS
   @RHF iter   2:  -345.44279346400140   -2.24634e-01   2.67822e-03 DIIS
   @RHF iter   3:  -345.50586505928442   -6.30716e-02   4.16074e-04 DIIS
   @RHF iter   4:  -345.50877927174042   -2.91421e-03   1.64133e-04 DIIS
   @RHF iter   5:  -345.50919556624024   -4.16294e-04   2.41326e-05 DIIS
   @RHF iter   6:  -345.50920855055023   -1.29843e-05   5.43974e-06 DIIS
   @RHF iter   7:  -345.50920913943492   -5.88885e-07   2.24552e-06 DIIS
   @RHF iter   8:  -345.50920920886165   -6.94267e-08   6.92853e-07 DIIS
   @RHF iter   9:  -345.50920921765771   -8.79606e-09   2.57532e-07 DIIS
   @RHF iter  10:  -345.50920921913854   -1.48083e-09   6.35479e-08 DIIS
   @RHF iter  11:  -345.50920921928821   -1.49669e-10   1.83223e-08 DIIS
   @RHF iter  12:  -345.50920921929975   -1.15392e-11   6.48384e-09 DIIS
   @RHF iter  13:  -345.50920921930225   -2.50111e-12   2.48498e-09 DIIS
   @RHF iter  14:  -345.50920921930117    1.08002e-12   8.09970e-10 DIIS
   @RHF iter  15:  -345.50920921930179   -6.25278e-13   2.90289e-10 DIIS
   @RHF iter  16:  -345.50920921930202   -2.27374e-13   9.69884e-11 DIIS
  Energy and wave function converged.

  ==> Post-Iterations <==

    Orbital Energies [Eh]
    ---------------------

    Doubly Occupied:

       1A    -20.250457     2A    -20.246520     3A    -11.130397
       4A    -11.109490     5A    -11.102870     6A    -11.070952
       7A    -11.049704     8A     -1.152659     9A     -1.030580
      10A     -0.922446    11A     -0.869699    12A     -0.738810
      13A     -0.698950    14A     -0.504564    15A     -0.500971
      16A     -0.500301    17A     -0.455046    18A     -0.428458
      19A     -0.407139    20A     -0.386479    21A     -0.385856
      22A     -0.384574    23A     -0.360932    24A     -0.355555
      25A     -0.322744    26A     -0.297446    27A     -0.177390
      28A     -0.160599    29A     -0.152848

    Virtual:

      30A      0.276469    31A      0.322798    32A      0.337915
      33A      0.343063    34A      0.347899    35A      0.368823
      36A      0.388814    37A      0.396201    38A      0.420873
      39A      0.435809    40A      0.448829    41A      0.483998
      42A      0.516741    43A      0.562989    44A      0.607219
      45A      0.688548    46A      0.690453    47A      0.695352
      48A      0.705374    49A      0.722041    50A      0.759112
      51A      0.773591    52A      0.794057    53A      0.846627
      54A      0.887252    55A      0.949401    56A      0.969826
      57A      0.978246    58A      0.979608    59A      0.985970
      60A      1.002564    61A      1.006988    62A      1.010360
      63A      1.026573    64A      1.043021    65A      1.049980
      66A      1.059865    67A      1.067100    68A      1.073822
      69A      1.088605    70A      1.113327    71A      1.125647
      72A      1.161359    73A      1.223459    74A      1.234664
      75A      1.288945    76A      1.308863    77A      1.317973
      78A      1.332897    79A      1.406175    80A      1.474106
      81A      1.507240    82A      1.548374    83A      1.567678
      84A      1.586392    85A      1.602684    86A      1.624602
      87A      1.641640    88A      1.674374    89A      1.678104
      90A      1.711418    91A      1.767881    92A      1.788586
      93A      1.808534    94A      1.838134    95A      1.908771
      96A      1.918119    97A      1.958182    98A      1.969216
      99A      1.997813   100A      2.027131   101A      2.029719
     102A      2.038695   103A      2.044963   104A      2.052836
     105A      2.058831   106A      2.072947   107A      2.083102
     108A      2.132349   109A      2.149645   110A      2.160763
     111A      2.174855   112A      2.187745   113A      2.194701
     114A      2.224843   115A      2.237570   116A      2.273969
     117A      2.376720   118A      2.394435   119A      2.405461
     120A      2.427874   121A      2.466777   122A      2.499831
     123A      2.538311   124A      2.560212   125A      2.571326
     126A      2.577768   127A      2.654577   128A      2.665703
     129A      2.682713   130A      2.719384   131A      2.759842
     132A      2.845773   133A      2.860985   134A      2.894093
     135A      2.911017   136A      2.940350   137A      2.964209
     138A      3.004061   139A      3.015964   140A      3.039852
     141A      3.061951   142A      3.065676   143A      3.145027
     144A      3.255871   145A      3.303595   146A      3.312325
     147A      3.379388   148A      3.676667   149A      3.789339
     150A      3.840635   151A      4.090975   152A      4.100128
     153A      4.244771

    Final Occupation by Irrep:
              A
    DOCC [    29 ]

  @RHF Final Energy:  -345.50920921930202

   => Energetics <=

    Nuclear Repulsion Energy =            286.2032572322516444
    One-Electron Energy =               -1049.1160639953304781
    Two-Electron Energy =                 417.4035975437768116
    Total Energy =                       -345.5092092193020221

Computation Completed

Properties will be evaluated at   0.000000,   0.000000,   0.000000 [a0]

Properties computed using the SCF density matrix

  Nuclear Dipole Moment: [e a0]
     X:    -9.5094      Y:    -4.3406      Z:   -12.5292

  Electronic Dipole Moment: [e a0]
     X:     7.3012      Y:     3.1685      Z:     9.8724

  Dipole Moment: [e a0]
     X:    -2.2081      Y:    -1.1721      Z:    -2.6568     Total:     3.6480

  Dipole Moment: [D]
     X:    -5.6126      Y:    -2.9792      Z:    -6.7529     Total:     9.2724

*** tstop() called on ds3 at Mon Apr 27 17:00:49 2020
Module time:
	user time   =      21.69 seconds =       0.36 minutes
	system time =       9.39 seconds =       0.16 minutes
	total time  =         43 seconds =       0.72 minutes
Total time:
	user time   =      21.69 seconds =       0.36 minutes
	system time =       9.39 seconds =       0.16 minutes
	total time  =         43 seconds =       0.72 minutes
                                     G D M A

                                 by Anthony Stone

                           version 2.2.06, 22 June 2011

               Distributed Multipoles from Gaussian wavefunctions

Starting at 17:0:49 on 27 Apr 2020

Using SCF density matrix from file ./SSI/SSI-061ILE-086ASP-1-dimer.test.29057.fchk

                         Distributed Multipole Analysis

Standard DMA

Positions and radii in angstrom
Multipole moments in atomic units, ea_0^k for rank k

C          x = -1.135306  y =  0.689433  z = -2.493483 angstrom
           Maximum rank =  0   Radius =  0.650 angstrom
                   Q00  =  -0.202179

C          x = -1.980306  y =  0.771433  z = -3.757483 angstrom
           Maximum rank =  0   Radius =  0.650 angstrom
                   Q00  =  -0.247555

H          x = -0.436306  y = -0.144567  z = -2.570483 angstrom
           Maximum rank =  0   Radius =  0.325 angstrom
                   Q00  =   0.073590

H          x = -0.564306  y =  1.611433  z = -2.373483 angstrom
           Maximum rank =  0   Radius =  0.325 angstrom
                   Q00  =   0.086131

H          x = -1.741306  y =  0.545433  z = -1.604483 angstrom
           Maximum rank =  0   Radius =  0.325 angstrom
                   Q00  =   0.095585

H          x = -2.526306  y =  1.717433  z = -3.749483 angstrom
           Maximum rank =  0   Radius =  0.325 angstrom
                   Q00  =   0.065939

H          x = -2.709246  y = -0.052366  z = -3.755343 angstrom
           Maximum rank =  0   Radius =  0.325 angstrom
                   Q00  =   0.064268

H          x = -1.367466  y =  0.737940  z = -4.670333 angstrom
           Maximum rank =  0   Radius =  0.325 angstrom
                   Q00  =   0.066070

C          x = -0.145306  y = -0.838567  z =  0.770517 angstrom
           Maximum rank =  0   Radius =  0.650 angstrom
                   Q00  =  -0.150417

C          x =  0.068694  y = -2.202567  z =  1.414517 angstrom
           Maximum rank =  0   Radius =  0.650 angstrom
                   Q00  =  -0.208919

C          x =  0.821694  y =  0.222433  z =  1.277517 angstrom
           Maximum rank =  0   Radius =  0.650 angstrom
                   Q00  =   1.016797

O          x =  1.961694  y = -0.093567  z =  1.638517 angstrom
           Maximum rank =  0   Radius =  0.650 angstrom
                   Q00  =  -0.961620

O          x =  0.456694  y =  1.404433  z =  1.296517 angstrom
           Maximum rank =  0   Radius =  0.650 angstrom
                   Q00  =  -0.943147

H          x =  0.007694  y = -0.942567  z = -0.304483 angstrom
           Maximum rank =  0   Radius =  0.325 angstrom
                   Q00  =   0.053243

H          x = -1.168306  y = -0.498567  z =  0.927517 angstrom
           Maximum rank =  0   Radius =  0.325 angstrom
                   Q00  =   0.024430

H          x =  1.114694  y = -2.487567  z =  1.287517 angstrom
           Maximum rank =  0   Radius =  0.325 angstrom
                   Q00  =   0.092768

H          x = -0.594466  y = -2.944191  z =  0.945247 angstrom
           Maximum rank =  0   Radius =  0.325 angstrom
                   Q00  =   0.012073

H          x = -0.170726  y = -2.179280  z =  2.487897 angstrom
           Maximum rank =  0   Radius =  0.325 angstrom
                   Q00  =   0.062944

Total multipoles referred to origin at
           x =   0.000000,  y =    0.000000,  z =    0.000000 angstrom
                   Q00  =  -1.000000

Finished at 17:0:49 on 27 Apr 2020

  DMA results are available in the Python driver through the
	  variable('DMA DISTRIBUTED MULTIPOLES')
  and
	  variable('DMA TOTAL MULTIPOLES')
  commands.

    Psi4 stopped on: Monday, 27 April 2020 05:00PM
    Psi4 wall time for execution: 0:00:43.22

*** Psi4 exiting successfully. Buy a developer a beer!
