                               Psi4 1.3.2 release

  ==> Input File <==

--------------------------------------------------------------------------
import numpy as np
set {scf_type pk
basis cc-pvdz
d_convergence 10
gdma_switch   0
gdma_limit    0
gdma_origin   [ 0.0,  0.0,  0.0 ]
}
molecule test {
    units Angstrom
    0 1
    --
    0 1
    C                0.368643712720084    -0.209224605592939    -0.517153007153147
    C                0.814643712720084    -1.602224605592939    -0.174153007153147
    C               -1.507356287279916    -1.726224605592939    -0.617153007153147
    C               -1.486356287279916     2.079775394407061    -0.522153007153147
    C               -1.983356287279916     0.649775394407061    -0.624153007153147
    O               -3.191356287279916     0.412775394407061    -0.708153007153147
    N               -1.084356287279916    -0.335224605592939    -0.594153007153147
    H                0.685643712720084     0.490775394407061     0.252846992846853
    H                0.764643712720084     0.079775394407061    -1.492153007153147
    H                0.785643712720084    -1.737224605592939     0.907846992846853
    H                1.819643712720084    -1.800224605592939    -0.545153007153147
    H               -2.174356287279916    -1.909224605592939    -1.462153007153147
    H               -0.519356287279916     2.147775394407061    -1.021153007153147
    H                0.066463712720084    -2.258434605592939    -0.642772007153147
    H               -0.571176287279916    -2.285624605592939    -0.760793007153147
    H               -2.006106287279916    -2.024744605592939     0.316728992846853
    H               -2.206276287279916     2.744495394407061    -1.022015007153147
    H               -1.366456287279916     2.365535394407061     0.533291992846853
    C                3.136643712720085     0.600775394407061     1.702846992846853
    C                4.618643712720084     0.195775394407061     1.888846992846853
    H                2.493643712720084    -0.264224605592939     1.867846992846853
    H                2.871643712720084     1.365775394407061     2.430846992846853
    H                2.968643712720084     1.007775394407061     0.707846992846853
    H                4.771643712720085    -0.011224605592939     2.948846992846853
    H                5.259643712720084     1.034775394407061     1.617846992846853
    H                4.903063712720084    -0.701284605592939     1.319295992846853

}
e, wfn = energy('scf', return_wfn=True)
gdma(wfn)
dmavals = variable('DMA DISTRIBUTED MULTIPOLES')
charges = np.array(dmavals)
print(charges)
np.save('SSI-063PRO-091ILE-1-dimer.npy', np.array(charges))--------------------------------------------------------------------------

*** tstart() called on ds3
*** at Mon Apr 27 16:04:35 2020

   => Loading Basis Set <=

    Name: CC-PVDZ
    Role: ORBITAL
    Keyword: BASIS
    atoms 1-5, 19-20  entry C          line   138 file /theoryfs2/ds/metcalf/miniconda2/envs/tf2gpu/share/psi4/basis/cc-pvdz.gbs
    atoms 6           entry O          line   198 file /theoryfs2/ds/metcalf/miniconda2/envs/tf2gpu/share/psi4/basis/cc-pvdz.gbs
    atoms 7           entry N          line   168 file /theoryfs2/ds/metcalf/miniconda2/envs/tf2gpu/share/psi4/basis/cc-pvdz.gbs
    atoms 8-18, 21-26 entry H          line    22 file /theoryfs2/ds/metcalf/miniconda2/envs/tf2gpu/share/psi4/basis/cc-pvdz.gbs

         ---------------------------------------------------------
                                   SCF
               by Justin Turney, Rob Parrish, Andy Simmonett
                          and Daniel G. A. Smith
                              RHF Reference
                        1 Threads,    500 MiB Core
         ---------------------------------------------------------

  ==> Geometry <==

    Molecular point group: c1
    Full point group: C1

    Geometry (in Angstrom), charge = 0, multiplicity = 1:

       Center              X                  Y                   Z               Mass
    ------------   -----------------  -----------------  -----------------  -----------------
         C            0.368643712720    -0.209224605593    -0.517153007153    12.000000000000
         C            0.814643712720    -1.602224605593    -0.174153007153    12.000000000000
         C           -1.507356287280    -1.726224605593    -0.617153007153    12.000000000000
         C           -1.486356287280     2.079775394407    -0.522153007153    12.000000000000
         C           -1.983356287280     0.649775394407    -0.624153007153    12.000000000000
         O           -3.191356287280     0.412775394407    -0.708153007153    15.994914619570
         N           -1.084356287280    -0.335224605593    -0.594153007153    14.003074004430
         H            0.685643712720     0.490775394407     0.252846992847     1.007825032230
         H            0.764643712720     0.079775394407    -1.492153007153     1.007825032230
         H            0.785643712720    -1.737224605593     0.907846992847     1.007825032230
         H            1.819643712720    -1.800224605593    -0.545153007153     1.007825032230
         H           -2.174356287280    -1.909224605593    -1.462153007153     1.007825032230
         H           -0.519356287280     2.147775394407    -1.021153007153     1.007825032230
         H            0.066463712720    -2.258434605593    -0.642772007153     1.007825032230
         H           -0.571176287280    -2.285624605593    -0.760793007153     1.007825032230
         H           -2.006106287280    -2.024744605593     0.316728992847     1.007825032230
         H           -2.206276287280     2.744495394407    -1.022015007153     1.007825032230
         H           -1.366456287280     2.365535394407     0.533291992847     1.007825032230
         C            3.136643712720     0.600775394407     1.702846992847    12.000000000000
         C            4.618643712720     0.195775394407     1.888846992847    12.000000000000
         H            2.493643712720    -0.264224605593     1.867846992847     1.007825032230
         H            2.871643712720     1.365775394407     2.430846992847     1.007825032230
         H            2.968643712720     1.007775394407     0.707846992847     1.007825032230
         H            4.771643712720    -0.011224605593     2.948846992847     1.007825032230
         H            5.259643712720     1.034775394407     1.617846992847     1.007825032230
         H            4.903063712720    -0.701284605593     1.319295992847     1.007825032230

  Running in c1 symmetry.

  Rotational constants: A =      0.08167  B =      0.01835  C =      0.01560 [cm^-1]
  Rotational constants: A =   2448.42388  B =    549.98671  C =    467.66960 [MHz]
  Nuclear repulsion =  469.972330849596176

  Charge       = 0
  Multiplicity = 1
  Electrons    = 74
  Nalpha       = 37
  Nbeta        = 37

  ==> Algorithm <==

  SCF Algorithm Type is PK.
  DIIS enabled.
  MOM disabled.
  Fractional occupation disabled.
  Guess Type is SAD.
  Energy threshold   = 1.00e-06
  Density threshold  = 1.00e-10
  Integral threshold = 0.00e+00

  ==> Primary Basis <==

  Basis Set: CC-PVDZ
    Blend: CC-PVDZ
    Number of shells: 105
    Number of basis function: 211
    Number of Cartesian functions: 220
    Spherical Harmonics?: true
    Max angular momentum: 2

  ==> Pre-Iterations <==

   -------------------------------------------------------
    Irrep   Nso     Nmo     Nalpha   Nbeta   Ndocc  Nsocc
   -------------------------------------------------------
     A        211     211       0       0       0       0
   -------------------------------------------------------
    Total     211     211      37      37      37       0
   -------------------------------------------------------

  ==> Integral Setup <==

  Using integral reordering PK algorithm.
  Sizing the integral batches needed.
  Building batch lookup table.
   Calculation information:
      Number of atoms:                  26
      Number of AO shells:             105
      Number of primitives:            283
      Number of atomic orbitals:       220
      Number of basis functions:       211

      Integral cutoff                 1.00e-12
      Number of threads:                 1

	Batch   1 pq = [       0,    9405] index = [             0,44231715] size =     44231715
	Batch   2 pq = [    9405,   13301] index = [      44231715,88464951] size =     44233236
	Batch   3 pq = [   13301,   16290] index = [      88464951,132690195] size =     44225244
	Batch   4 pq = [   16290,   18810] index = [     132690195,176917455] size =     44227260
	Batch   5 pq = [   18810,   21030] index = [     176917455,221140965] size =     44223510
	Batch   6 pq = [   21030,   22366] index = [     221140965,250130161] size =     28989196
  Task number: 23
  Buffer size: 11059200
  Buffer per thread: 2
  We computed 13112510 shell quartets total.
  Whereas there are 15487395 unique shell quartets.

  ==> DiskJK: Disk-Based J/K Matrices <==

    J tasked:                  Yes
    K tasked:                  Yes
    wK tasked:                  No
    Memory [MiB]:              375
    Schwarz Cutoff:          1E-12

    OpenMP threads:              1

  Minimum eigenvalue in the overlap matrix is 1.4235862666E-03.
  Using Symmetric Orthogonalization.

  SCF Guess: Superposition of Atomic Densities via on-the-fly atomic UHF.

  ==> Iterations <==

                        Total Energy        Delta E     RMS |[F,P]|

   @RHF iter SAD:  -403.46504111931262   -4.03465e+02   0.00000e+00
   @RHF iter   1:  -403.81288420795642   -3.47843e-01   3.32763e-03 DIIS
   @RHF iter   2:  -404.04091139463941   -2.28027e-01   1.84127e-03 DIIS
   @RHF iter   3:  -404.10036688877443   -5.94555e-02   4.41184e-04 DIIS
   @RHF iter   4:  -404.10561773066053   -5.25084e-03   1.72322e-04 DIIS
   @RHF iter   5:  -404.10645497068748   -8.37240e-04   3.01557e-05 DIIS
   @RHF iter   6:  -404.10650672978102   -5.17591e-05   1.53996e-05 DIIS
   @RHF iter   7:  -404.10651707717068   -1.03474e-05   5.63661e-06 DIIS
   @RHF iter   8:  -404.10651925257724   -2.17541e-06   2.17655e-06 DIIS
   @RHF iter   9:  -404.10651956934089   -3.16764e-07   5.80835e-07 DIIS
   @RHF iter  10:  -404.10651958731586   -1.79750e-08   1.70056e-07 DIIS
   @RHF iter  11:  -404.10651958887519   -1.55933e-09   5.09729e-08 DIIS
   @RHF iter  12:  -404.10651958900257   -1.27386e-10   1.61533e-08 DIIS
   @RHF iter  13:  -404.10651958901235   -9.77707e-12   4.78893e-09 DIIS
   @RHF iter  14:  -404.10651958901008    2.27374e-12   1.19852e-09 DIIS
   @RHF iter  15:  -404.10651958901104   -9.66338e-13   3.06970e-10 DIIS
   @RHF iter  16:  -404.10651958901019    8.52651e-13   1.27754e-10 DIIS
   @RHF iter  17:  -404.10651958901019    0.00000e+00   3.28271e-11 DIIS
  Energy and wave function converged.

  ==> Post-Iterations <==

    Orbital Energies [Eh]
    ---------------------

    Doubly Occupied:

       1A    -20.493694     2A    -15.579986     3A    -11.336567
       4A    -11.275854     5A    -11.242308     6A    -11.236876
       7A    -11.229094     8A    -11.228208     9A    -11.219947
      10A     -1.360065    11A     -1.256108    12A     -1.073765
      13A     -1.024109    14A     -1.007350    15A     -0.972559
      16A     -0.854464    17A     -0.850357    18A     -0.757275
      19A     -0.730232    20A     -0.674896    21A     -0.651738
      22A     -0.615617    23A     -0.607143    24A     -0.604671
      25A     -0.596685    26A     -0.573130    27A     -0.549907
      28A     -0.539219    29A     -0.534281    30A     -0.521050
      31A     -0.508251    32A     -0.498860    33A     -0.493921
      34A     -0.482581    35A     -0.400019    36A     -0.388812
      37A     -0.358368

    Virtual:

      38A      0.159621    39A      0.182399    40A      0.185152
      41A      0.198453    42A      0.211864    43A      0.228056
      44A      0.229645    45A      0.249784    46A      0.250208
      47A      0.251784    48A      0.266255    49A      0.268419
      50A      0.280706    51A      0.284790    52A      0.291013
      53A      0.312643    54A      0.333867    55A      0.342677
      56A      0.357195    57A      0.385835    58A      0.404169
      59A      0.418209    60A      0.455635    61A      0.502544
      62A      0.523292    63A      0.553831    64A      0.560887
      65A      0.585398    66A      0.597026    67A      0.616248
      68A      0.636486    69A      0.647693    70A      0.654907
      71A      0.666777    72A      0.677765    73A      0.698876
      74A      0.715614    75A      0.723095    76A      0.763244
      77A      0.784822    78A      0.803310    79A      0.826823
      80A      0.848906    81A      0.854955    82A      0.866160
      83A      0.868495    84A      0.875760    85A      0.885257
      86A      0.886695    87A      0.887855    88A      0.900172
      89A      0.905002    90A      0.908059    91A      0.912430
      92A      0.920517    93A      0.927717    94A      0.932101
      95A      0.944765    96A      0.969953    97A      0.984644
      98A      1.014590    99A      1.025064   100A      1.041397
     101A      1.079547   102A      1.106625   103A      1.122460
     104A      1.138176   105A      1.142197   106A      1.166474
     107A      1.212661   108A      1.239043   109A      1.240984
     110A      1.277475   111A      1.350857   112A      1.368323
     113A      1.392997   114A      1.425981   115A      1.449342
     116A      1.454435   117A      1.460978   118A      1.479724
     119A      1.497768   120A      1.556518   121A      1.561922
     122A      1.572995   123A      1.591084   124A      1.602255
     125A      1.625714   126A      1.646786   127A      1.679929
     128A      1.687917   129A      1.689648   130A      1.703390
     131A      1.737948   132A      1.767716   133A      1.816531
     134A      1.837567   135A      1.852823   136A      1.857064
     137A      1.863719   138A      1.868555   139A      1.885599
     140A      1.897861   141A      1.905521   142A      1.919418
     143A      1.928836   144A      1.936935   145A      1.939886
     146A      1.943971   147A      1.953013   148A      1.963714
     149A      1.983754   150A      1.997470   151A      2.008664
     152A      2.024444   153A      2.037273   154A      2.055414
     155A      2.059842   156A      2.097172   157A      2.115455
     158A      2.126271   159A      2.132745   160A      2.142800
     161A      2.163823   162A      2.178348   163A      2.224232
     164A      2.230479   165A      2.243327   166A      2.264837
     167A      2.280515   168A      2.300791   169A      2.316780
     170A      2.340762   171A      2.372350   172A      2.425020
     173A      2.438264   174A      2.449569   175A      2.472987
     176A      2.494273   177A      2.524201   178A      2.542389
     179A      2.557395   180A      2.563297   181A      2.575702
     182A      2.596402   183A      2.642978   184A      2.713364
     185A      2.743936   186A      2.753695   187A      2.764324
     188A      2.778733   189A      2.785475   190A      2.799456
     191A      2.803095   192A      2.831505   193A      2.835877
     194A      2.840572   195A      2.851244   196A      2.866741
     197A      2.928593   198A      2.947365   199A      2.963602
     200A      2.995889   201A      3.037159   202A      3.107672
     203A      3.131849   204A      3.179318   205A      3.235876
     206A      3.350305   207A      3.373094   208A      3.523291
     209A      3.838544   210A      3.906723   211A      5.162713

    Final Occupation by Irrep:
              A
    DOCC [    37 ]

  @RHF Final Energy:  -404.10651958901019

   => Energetics <=

    Nuclear Repulsion Energy =            469.9723308495961760
    One-Electron Energy =               -1479.5017616226589325
    Two-Electron Energy =                 605.4229111840526230
    Total Energy =                       -404.1065195890101904

Computation Completed

Properties will be evaluated at   0.000000,   0.000000,   0.000000 [a0]

Properties computed using the SCF density matrix

  Nuclear Dipole Moment: [e a0]
     X:    17.3747      Y:    -1.6428      Z:     5.5829

  Electronic Dipole Moment: [e a0]
     X:   -15.5926      Y:     1.4549      Z:    -5.4130

  Dipole Moment: [e a0]
     X:     1.7821      Y:    -0.1879      Z:     0.1699     Total:     1.8000

  Dipole Moment: [D]
     X:     4.5296      Y:    -0.4775      Z:     0.4318     Total:     4.5751

*** tstop() called on ds3 at Mon Apr 27 16:06:40 2020
Module time:
	user time   =      90.23 seconds =       1.50 minutes
	system time =      40.44 seconds =       0.67 minutes
	total time  =        125 seconds =       2.08 minutes
Total time:
	user time   =      90.23 seconds =       1.50 minutes
	system time =      40.44 seconds =       0.67 minutes
	total time  =        125 seconds =       2.08 minutes
                                     G D M A

                                 by Anthony Stone

                           version 2.2.06, 22 June 2011

               Distributed Multipoles from Gaussian wavefunctions

Starting at 16:6:40 on 27 Apr 2020

Using SCF density matrix from file ./SSI/SSI-063PRO-091ILE-1-dimer.test.16022.fchk

                         Distributed Multipole Analysis

Standard DMA

Positions and radii in angstrom
Multipole moments in atomic units, ea_0^k for rank k

C          x =  0.368644  y = -0.209225  z = -0.517153 angstrom
           Maximum rank =  0   Radius =  0.650 angstrom
                   Q00  =   0.006507

C          x =  0.814644  y = -1.602225  z = -0.174153 angstrom
           Maximum rank =  0   Radius =  0.650 angstrom
                   Q00  =  -0.246899

C          x = -1.507356  y = -1.726225  z = -0.617153 angstrom
           Maximum rank =  0   Radius =  0.650 angstrom
                   Q00  =  -0.100826

C          x = -1.486356  y =  2.079775  z = -0.522153 angstrom
           Maximum rank =  0   Radius =  0.650 angstrom
                   Q00  =  -0.264362

C          x = -1.983356  y =  0.649775  z = -0.624153 angstrom
           Maximum rank =  0   Radius =  0.650 angstrom
                   Q00  =   0.756046

O          x = -3.191356  y =  0.412775  z = -0.708153 angstrom
           Maximum rank =  0   Radius =  0.650 angstrom
                   Q00  =  -0.794456

N          x = -1.084356  y = -0.335225  z = -0.594153 angstrom
           Maximum rank =  0   Radius =  0.650 angstrom
                   Q00  =  -0.452009

H          x =  0.685644  y =  0.490775  z =  0.252847 angstrom
           Maximum rank =  0   Radius =  0.325 angstrom
                   Q00  =   0.087873

H          x =  0.764644  y =  0.079775  z = -1.492153 angstrom
           Maximum rank =  0   Radius =  0.325 angstrom
                   Q00  =   0.055282

H          x =  0.785644  y = -1.737225  z =  0.907847 angstrom
           Maximum rank =  0   Radius =  0.325 angstrom
                   Q00  =   0.097781

H          x =  1.819644  y = -1.800225  z = -0.545153 angstrom
           Maximum rank =  0   Radius =  0.325 angstrom
                   Q00  =   0.088981

H          x = -2.174356  y = -1.909225  z = -1.462153 angstrom
           Maximum rank =  0   Radius =  0.325 angstrom
                   Q00  =   0.104872

H          x = -0.519356  y =  2.147775  z = -1.021153 angstrom
           Maximum rank =  0   Radius =  0.325 angstrom
                   Q00  =   0.091590

H          x =  0.066464  y = -2.258435  z = -0.642772 angstrom
           Maximum rank =  0   Radius =  0.325 angstrom
                   Q00  =   0.114922

H          x = -0.571176  y = -2.285625  z = -0.760793 angstrom
           Maximum rank =  0   Radius =  0.325 angstrom
                   Q00  =   0.099283

H          x = -2.006106  y = -2.024745  z =  0.316729 angstrom
           Maximum rank =  0   Radius =  0.325 angstrom
                   Q00  =   0.099969

H          x = -2.206276  y =  2.744495  z = -1.022015 angstrom
           Maximum rank =  0   Radius =  0.325 angstrom
                   Q00  =   0.130488

H          x = -1.366456  y =  2.365535  z =  0.533292 angstrom
           Maximum rank =  0   Radius =  0.325 angstrom
                   Q00  =   0.124810

C          x =  3.136644  y =  0.600775  z =  1.702847 angstrom
           Maximum rank =  0   Radius =  0.650 angstrom
                   Q00  =  -0.250568

C          x =  4.618644  y =  0.195775  z =  1.888847 angstrom
           Maximum rank =  0   Radius =  0.650 angstrom
                   Q00  =  -0.239306

H          x =  2.493644  y = -0.264225  z =  1.867847 angstrom
           Maximum rank =  0   Radius =  0.325 angstrom
                   Q00  =   0.080096

H          x =  2.871644  y =  1.365775  z =  2.430847 angstrom
           Maximum rank =  0   Radius =  0.325 angstrom
                   Q00  =   0.084502

H          x =  2.968644  y =  1.007775  z =  0.707847 angstrom
           Maximum rank =  0   Radius =  0.325 angstrom
                   Q00  =   0.076246

H          x =  4.771644  y = -0.011225  z =  2.948847 angstrom
           Maximum rank =  0   Radius =  0.325 angstrom
                   Q00  =   0.081172

H          x =  5.259644  y =  1.034775  z =  1.617847 angstrom
           Maximum rank =  0   Radius =  0.325 angstrom
                   Q00  =   0.084086

H          x =  4.903064  y = -0.701285  z =  1.319296 angstrom
           Maximum rank =  0   Radius =  0.325 angstrom
                   Q00  =   0.083920

Total multipoles referred to origin at
           x =   0.000000,  y =    0.000000,  z =    0.000000 angstrom
                   Q00  =  -0.000000

Finished at 16:6:40 on 27 Apr 2020

  DMA results are available in the Python driver through the
	  variable('DMA DISTRIBUTED MULTIPOLES')
  and
	  variable('DMA TOTAL MULTIPOLES')
  commands.

    Psi4 stopped on: Monday, 27 April 2020 04:06PM
    Psi4 wall time for execution: 0:02:05.02

*** Psi4 exiting successfully. Buy a developer a beer!
