                               Psi4 1.3.2 release

  ==> Input File <==

--------------------------------------------------------------------------
import numpy as np
set {scf_type pk
basis cc-pvdz
d_convergence 10
gdma_switch   0
gdma_limit    0
gdma_origin   [ 0.0,  0.0,  0.0 ]
}
molecule test {
    units Angstrom
    0 1
    --
    0 1
    C               -0.481615992422425    -0.378802830926070    -3.945867378439139
    C                0.846384007577575    -0.762802830926071    -4.619867378439139
    H               -0.391615992422425    -0.430802830926070    -2.861867378439139
    H               -0.742615992422425     0.641197169073929    -4.226867378439139
    H               -1.291615992422424    -1.020802830926071    -4.285867378439140
    H                0.677384007577575    -0.906802830926071    -5.687867378439138
    H                1.216484007577575    -1.696007830926071    -4.170247378439139
    H                1.615894007577575     0.011059869073929    -4.482067378439138
    C               -1.232615992422425     2.134197169073929     2.777132621560861
    C                0.806384007577575    -0.099802830926071     0.565132621560861
    C               -0.416615992422425     0.281197169073929     1.172132621560861
    C               -0.189615992422425     1.457197169073929     1.938132621560861
    C                1.133384007577575     1.746197169073929     1.803132621560861
    C               -0.228615992422425    -1.968802830926071    -0.476867378439139
    C                0.917384007577575    -1.212802830926071    -0.257867378439139
    C               -1.445615992422425    -1.630802830926071     0.134132621560861
    C               -1.550615992422425    -0.508802830926071     0.954132621560861
    N                1.732384007577576     0.822197169073929     0.968132621560861
    H               -0.175615992422425    -2.849802830926071    -1.097867378439139
    H                1.857384007577575    -1.480802830926071    -0.711867378439139
    H               -2.313615992422425    -2.253802830926071    -0.028867378439139
    H               -2.477615992422424    -0.260802830926071     1.442132621560861
    H                2.740384007577576     0.744197169073929     0.875132621560861
    H                1.660384007577576     2.553197169073929     2.291132621560861
    H               -1.269615992422424     1.541197169073929     3.673132621560862
    H               -2.188615992422425     2.035197169073930     2.262132621560861
    H               -1.057625992422425     3.187722169073929     3.040692621560861

}
e, wfn = energy('scf', return_wfn=True)
gdma(wfn)
dmavals = variable('DMA DISTRIBUTED MULTIPOLES')
charges = np.array(dmavals)
print(charges)
np.save('SSI-012LEU-035TRP-1-dimer.npy', np.array(charges))--------------------------------------------------------------------------

*** tstart() called on ds3
*** at Mon Apr 27 07:24:28 2020

   => Loading Basis Set <=

    Name: CC-PVDZ
    Role: ORBITAL
    Keyword: BASIS
    atoms 1-2, 9-17  entry C          line   138 file /theoryfs2/ds/metcalf/miniconda2/envs/tf2gpu/share/psi4/basis/cc-pvdz.gbs
    atoms 3-8, 19-27 entry H          line    22 file /theoryfs2/ds/metcalf/miniconda2/envs/tf2gpu/share/psi4/basis/cc-pvdz.gbs
    atoms 18         entry N          line   168 file /theoryfs2/ds/metcalf/miniconda2/envs/tf2gpu/share/psi4/basis/cc-pvdz.gbs

         ---------------------------------------------------------
                                   SCF
               by Justin Turney, Rob Parrish, Andy Simmonett
                          and Daniel G. A. Smith
                              RHF Reference
                        1 Threads,    500 MiB Core
         ---------------------------------------------------------

  ==> Geometry <==

    Molecular point group: c1
    Full point group: C1

    Geometry (in Angstrom), charge = 0, multiplicity = 1:

       Center              X                  Y                   Z               Mass
    ------------   -----------------  -----------------  -----------------  -----------------
         C           -0.481615992422    -0.378802830926    -3.945867378439    12.000000000000
         C            0.846384007578    -0.762802830926    -4.619867378439    12.000000000000
         H           -0.391615992422    -0.430802830926    -2.861867378439     1.007825032230
         H           -0.742615992422     0.641197169074    -4.226867378439     1.007825032230
         H           -1.291615992422    -1.020802830926    -4.285867378439     1.007825032230
         H            0.677384007578    -0.906802830926    -5.687867378439     1.007825032230
         H            1.216484007578    -1.696007830926    -4.170247378439     1.007825032230
         H            1.615894007578     0.011059869074    -4.482067378439     1.007825032230
         C           -1.232615992422     2.134197169074     2.777132621561    12.000000000000
         C            0.806384007578    -0.099802830926     0.565132621561    12.000000000000
         C           -0.416615992422     0.281197169074     1.172132621561    12.000000000000
         C           -0.189615992422     1.457197169074     1.938132621561    12.000000000000
         C            1.133384007578     1.746197169074     1.803132621561    12.000000000000
         C           -0.228615992422    -1.968802830926    -0.476867378439    12.000000000000
         C            0.917384007578    -1.212802830926    -0.257867378439    12.000000000000
         C           -1.445615992422    -1.630802830926     0.134132621561    12.000000000000
         C           -1.550615992422    -0.508802830926     0.954132621561    12.000000000000
         N            1.732384007578     0.822197169074     0.968132621561    14.003074004430
         H           -0.175615992422    -2.849802830926    -1.097867378439     1.007825032230
         H            1.857384007578    -1.480802830926    -0.711867378439     1.007825032230
         H           -2.313615992422    -2.253802830926    -0.028867378439     1.007825032230
         H           -2.477615992422    -0.260802830926     1.442132621561     1.007825032230
         H            2.740384007578     0.744197169074     0.875132621561     1.007825032230
         H            1.660384007578     2.553197169074     2.291132621561     1.007825032230
         H           -1.269615992422     1.541197169074     3.673132621561     1.007825032230
         H           -2.188615992422     2.035197169074     2.262132621561     1.007825032230
         H           -1.057625992422     3.187722169074     3.040692621561     1.007825032230

  Running in c1 symmetry.

  Rotational constants: A =      0.04585  B =      0.01581  C =      0.01439 [cm^-1]
  Rotational constants: A =   1374.60152  B =    473.87226  C =    431.34442 [MHz]
  Nuclear repulsion =  650.725339249986405

  Charge       = 0
  Multiplicity = 1
  Electrons    = 88
  Nalpha       = 44
  Nbeta        = 44

  ==> Algorithm <==

  SCF Algorithm Type is PK.
  DIIS enabled.
  MOM disabled.
  Fractional occupation disabled.
  Guess Type is SAD.
  Energy threshold   = 1.00e-06
  Density threshold  = 1.00e-10
  Integral threshold = 0.00e+00

  ==> Primary Basis <==

  Basis Set: CC-PVDZ
    Blend: CC-PVDZ
    Number of shells: 117
    Number of basis function: 243
    Number of Cartesian functions: 255
    Spherical Harmonics?: true
    Max angular momentum: 2

  ==> Pre-Iterations <==

   -------------------------------------------------------
    Irrep   Nso     Nmo     Nalpha   Nbeta   Ndocc  Nsocc
   -------------------------------------------------------
     A        243     243       0       0       0       0
   -------------------------------------------------------
    Total     243     243      44      44      44       0
   -------------------------------------------------------

  ==> Integral Setup <==

  Using integral reordering PK algorithm.
  Sizing the integral batches needed.
  Building batch lookup table.
   Calculation information:
      Number of atoms:                  27
      Number of AO shells:             117
      Number of primitives:            339
      Number of atomic orbitals:       255
      Number of basis functions:       243

      Integral cutoff                 1.00e-12
      Number of threads:                 1

	Batch   1 pq = [       0,    9405] index = [             0,44231715] size =     44231715
	Batch   2 pq = [    9405,   13301] index = [      44231715,88464951] size =     44233236
	Batch   3 pq = [   13301,   16290] index = [      88464951,132690195] size =     44225244
	Batch   4 pq = [   16290,   18810] index = [     132690195,176917455] size =     44227260
	Batch   5 pq = [   18810,   21030] index = [     176917455,221140965] size =     44223510
	Batch   6 pq = [   21030,   23037] index = [     221140965,265363203] size =     44222238
	Batch   7 pq = [   23037,   24883] index = [     265363203,309594286] size =     44231083
	Batch   8 pq = [   24883,   26601] index = [     309594286,353819901] size =     44225615
	Batch   9 pq = [   26601,   28214] index = [     353819901,398029005] size =     44209104
	Batch  10 pq = [   28214,   29646] index = [     398029005,439457481] size =     41428476
  Task number: 40
  Buffer size: 11059200
  Buffer per thread: 2
  We computed 22150149 shell quartets total.
  Whereas there are 23829156 unique shell quartets.

  ==> DiskJK: Disk-Based J/K Matrices <==

    J tasked:                  Yes
    K tasked:                  Yes
    wK tasked:                  No
    Memory [MiB]:              375
    Schwarz Cutoff:          1E-12

    OpenMP threads:              1

  Minimum eigenvalue in the overlap matrix is 2.4585620805E-04.
  Using Symmetric Orthogonalization.

  SCF Guess: Superposition of Atomic Densities via on-the-fly atomic UHF.

  ==> Iterations <==

                        Total Energy        Delta E     RMS |[F,P]|

   @RHF iter SAD:  -479.04341256843628   -4.79043e+02   0.00000e+00
   @RHF iter   1:  -479.48780654349679   -4.44394e-01   2.59865e-03 DIIS
   @RHF iter   2:  -479.71905913523415   -2.31253e-01   1.15466e-03 DIIS
   @RHF iter   3:  -479.76061518631712   -4.15561e-02   3.04159e-04 DIIS
   @RHF iter   4:  -479.76442950462604   -3.81432e-03   1.40041e-04 DIIS
   @RHF iter   5:  -479.76508571043604   -6.56206e-04   2.01373e-05 DIIS
   @RHF iter   6:  -479.76511610584481   -3.03954e-05   9.46214e-06 DIIS
   @RHF iter   7:  -479.76512259240337   -6.48656e-06   4.02289e-06 DIIS
   @RHF iter   8:  -479.76512453060684   -1.93820e-06   1.59889e-06 DIIS
   @RHF iter   9:  -479.76512492047834   -3.89872e-07   7.10347e-07 DIIS
   @RHF iter  10:  -479.76512499794359   -7.74652e-08   3.20755e-07 DIIS
   @RHF iter  11:  -479.76512501587712   -1.79335e-08   1.16480e-07 DIIS
   @RHF iter  12:  -479.76512501814437   -2.26726e-09   3.86749e-08 DIIS
   @RHF iter  13:  -479.76512501830388   -1.59503e-10   1.04723e-08 DIIS
   @RHF iter  14:  -479.76512501831905   -1.51772e-11   4.69493e-09 DIIS
   @RHF iter  15:  -479.76512501832201   -2.95586e-12   2.55121e-09 DIIS
   @RHF iter  16:  -479.76512501832616   -4.14957e-12   1.04921e-09 DIIS
   @RHF iter  17:  -479.76512501833190   -5.74119e-12   4.29208e-10 DIIS
   @RHF iter  18:  -479.76512501833076    1.13687e-12   1.69056e-10 DIIS
   @RHF iter  19:  -479.76512501832087    9.89075e-12   5.96979e-11 DIIS
  Energy and wave function converged.

  ==> Post-Iterations <==

    Orbital Energies [Eh]
    ---------------------

    Doubly Occupied:

       1A    -15.599622     2A    -11.264039     3A    -11.262408
       4A    -11.231325     5A    -11.230577     6A    -11.230053
       7A    -11.226644     8A    -11.221853     9A    -11.218998
      10A    -11.217790    11A    -11.213649    12A    -11.204937
      13A     -1.294570    14A     -1.128418    15A     -1.076412
      16A     -1.006736    17A     -0.997113    18A     -0.986728
      19A     -0.934959    20A     -0.840870    21A     -0.829183
      22A     -0.804640    23A     -0.752996    24A     -0.718431
      25A     -0.662224    26A     -0.642479    27A     -0.606000
      28A     -0.596248    29A     -0.590886    30A     -0.588850
      31A     -0.584717    32A     -0.570838    33A     -0.555928
      34A     -0.534734    35A     -0.526704    36A     -0.495199
      37A     -0.491718    38A     -0.482168    39A     -0.475264
      40A     -0.473615    41A     -0.458190    42A     -0.373536
      43A     -0.295629    44A     -0.274833

    Virtual:

      45A      0.123799    46A      0.165356    47A      0.174974
      48A      0.186665    49A      0.191774    50A      0.215173
      51A      0.224839    52A      0.228192    53A      0.230469
      54A      0.249941    55A      0.257359    56A      0.261060
      57A      0.268617    58A      0.285889    59A      0.289618
      60A      0.296517    61A      0.305854    62A      0.315019
      63A      0.373166    64A      0.383095    65A      0.400516
      66A      0.402432    67A      0.421211    68A      0.443658
      69A      0.471039    70A      0.479694    71A      0.502193
      72A      0.508740    73A      0.590971    74A      0.594414
      75A      0.611950    76A      0.614710    77A      0.617982
      78A      0.629569    79A      0.639010    80A      0.663364
      81A      0.677559    82A      0.698045    83A      0.698632
      84A      0.714202    85A      0.720006    86A      0.733997
      87A      0.738255    88A      0.739152    89A      0.747011
      90A      0.756923    91A      0.778095    92A      0.786918
      93A      0.790508    94A      0.794361    95A      0.834248
      96A      0.843703    97A      0.849745    98A      0.860460
      99A      0.872674   100A      0.881740   101A      0.885468
     102A      0.889270   103A      0.898095   104A      0.899746
     105A      0.908603   106A      0.909990   107A      0.922321
     108A      0.934359   109A      0.948150   110A      0.956870
     111A      0.958775   112A      0.963441   113A      0.972935
     114A      0.986372   115A      1.015595   116A      1.043380
     117A      1.049136   118A      1.075585   119A      1.096062
     120A      1.122902   121A      1.130870   122A      1.132066
     123A      1.137554   124A      1.140887   125A      1.167692
     126A      1.180462   127A      1.206179   128A      1.216907
     129A      1.224742   130A      1.234736   131A      1.257300
     132A      1.267473   133A      1.283300   134A      1.303778
     135A      1.310757   136A      1.328885   137A      1.335365
     138A      1.359081   139A      1.380530   140A      1.410565
     141A      1.441031   142A      1.479083   143A      1.494789
     144A      1.528706   145A      1.554963   146A      1.569183
     147A      1.579054   148A      1.596659   149A      1.629562
     150A      1.642461   151A      1.661641   152A      1.688239
     153A      1.689830   154A      1.699665   155A      1.708523
     156A      1.734902   157A      1.760291   158A      1.775505
     159A      1.792870   160A      1.800236   161A      1.826180
     162A      1.832347   163A      1.868239   164A      1.869473
     165A      1.882797   166A      1.886456   167A      1.894319
     168A      1.900821   169A      1.910220   170A      1.917042
     171A      1.930256   172A      1.935296   173A      1.947619
     174A      1.952384   175A      1.954747   176A      1.959991
     177A      1.965542   178A      1.971824   179A      1.988691
     180A      2.002203   181A      2.007244   182A      2.039108
     183A      2.052972   184A      2.065660   185A      2.087963
     186A      2.094723   187A      2.105825   188A      2.119223
     189A      2.120506   190A      2.142088   191A      2.143616
     192A      2.144547   193A      2.167862   194A      2.170716
     195A      2.177652   196A      2.228088   197A      2.244684
     198A      2.277421   199A      2.293428   200A      2.304085
     201A      2.314352   202A      2.323207   203A      2.337170
     204A      2.356255   205A      2.389290   206A      2.445915
     207A      2.446952   208A      2.449728   209A      2.461582
     210A      2.465844   211A      2.543671   212A      2.571522
     213A      2.576115   214A      2.589605   215A      2.593547
     216A      2.645660   217A      2.657825   218A      2.681953
     219A      2.729789   220A      2.767882   221A      2.768395
     222A      2.775319   223A      2.789526   224A      2.791143
     225A      2.814251   226A      2.835235   227A      2.844116
     228A      2.849511   229A      2.879456   230A      2.884159
     231A      2.918076   232A      2.955942   233A      2.973213
     234A      2.999383   235A      3.042592   236A      3.058233
     237A      3.079326   238A      3.129879   239A      3.209377
     240A      3.314064   241A      3.380767   242A      3.722348
     243A      3.955038

    Final Occupation by Irrep:
              A
    DOCC [    44 ]

  @RHF Final Energy:  -479.76512501832087

   => Energetics <=

    Nuclear Repulsion Energy =            650.7253392499864049
    One-Electron Energy =               -1939.4355027000467544
    Two-Electron Energy =                 808.9450384317395901
    Total Energy =                       -479.7651250183208731

Computation Completed

Properties will be evaluated at   0.000000,   0.000000,   0.000000 [a0]

Properties computed using the SCF density matrix

  Nuclear Dipole Moment: [e a0]
     X:    -2.0118      Y:    -0.1766      Z:   -13.0984

  Electronic Dipole Moment: [e a0]
     X:     2.6790      Y:     0.4722      Z:    13.4335

  Dipole Moment: [e a0]
     X:     0.6672      Y:     0.2955      Z:     0.3352     Total:     0.8030

  Dipole Moment: [D]
     X:     1.6959      Y:     0.7512      Z:     0.8519     Total:     2.0411

*** tstop() called on ds3 at Mon Apr 27 07:29:50 2020
Module time:
	user time   =     184.14 seconds =       3.07 minutes
	system time =      77.04 seconds =       1.28 minutes
	total time  =        322 seconds =       5.37 minutes
Total time:
	user time   =     184.14 seconds =       3.07 minutes
	system time =      77.04 seconds =       1.28 minutes
	total time  =        322 seconds =       5.37 minutes
                                     G D M A

                                 by Anthony Stone

                           version 2.2.06, 22 June 2011

               Distributed Multipoles from Gaussian wavefunctions

Starting at 7:29:50 on 27 Apr 2020

Using SCF density matrix from file ./SSI/SSI-012LEU-035TRP-1-dimer.test.7199.fchk

                         Distributed Multipole Analysis

Standard DMA

Positions and radii in angstrom
Multipole moments in atomic units, ea_0^k for rank k

C          x = -0.481616  y = -0.378803  z = -3.945867 angstrom
           Maximum rank =  0   Radius =  0.650 angstrom
                   Q00  =  -0.241121

C          x =  0.846384  y = -0.762803  z = -4.619867 angstrom
           Maximum rank =  0   Radius =  0.650 angstrom
                   Q00  =  -0.237606

H          x = -0.391616  y = -0.430803  z = -2.861867 angstrom
           Maximum rank =  0   Radius =  0.325 angstrom
                   Q00  =   0.101459

H          x = -0.742616  y =  0.641197  z = -4.226867 angstrom
           Maximum rank =  0   Radius =  0.325 angstrom
                   Q00  =   0.073468

H          x = -1.291616  y = -1.020803  z = -4.285867 angstrom
           Maximum rank =  0   Radius =  0.325 angstrom
                   Q00  =   0.075425

H          x =  0.677384  y = -0.906803  z = -5.687867 angstrom
           Maximum rank =  0   Radius =  0.325 angstrom
                   Q00  =   0.077629

H          x =  1.216484  y = -1.696008  z = -4.170247 angstrom
           Maximum rank =  0   Radius =  0.325 angstrom
                   Q00  =   0.071168

H          x =  1.615894  y =  0.011060  z = -4.482067 angstrom
           Maximum rank =  0   Radius =  0.325 angstrom
                   Q00  =   0.077478

C          x = -1.232616  y =  2.134197  z =  2.777133 angstrom
           Maximum rank =  0   Radius =  0.650 angstrom
                   Q00  =  -0.209680

C          x =  0.806384  y = -0.099803  z =  0.565133 angstrom
           Maximum rank =  0   Radius =  0.650 angstrom
                   Q00  =   0.298473

C          x = -0.416616  y =  0.281197  z =  1.172133 angstrom
           Maximum rank =  0   Radius =  0.650 angstrom
                   Q00  =  -0.058685

C          x = -0.189616  y =  1.457197  z =  1.938133 angstrom
           Maximum rank =  0   Radius =  0.650 angstrom
                   Q00  =  -0.112443

C          x =  1.133384  y =  1.746197  z =  1.803133 angstrom
           Maximum rank =  0   Radius =  0.650 angstrom
                   Q00  =   0.067046

C          x = -0.228616  y = -1.968803  z = -0.476867 angstrom
           Maximum rank =  0   Radius =  0.650 angstrom
                   Q00  =  -0.078671

C          x =  0.917384  y = -1.212803  z = -0.257867 angstrom
           Maximum rank =  0   Radius =  0.650 angstrom
                   Q00  =  -0.122701

C          x = -1.445616  y = -1.630803  z =  0.134133 angstrom
           Maximum rank =  0   Radius =  0.650 angstrom
                   Q00  =  -0.078008

C          x = -1.550616  y = -0.508803  z =  0.954133 angstrom
           Maximum rank =  0   Radius =  0.650 angstrom
                   Q00  =  -0.104085

N          x =  1.732384  y =  0.822197  z =  0.968133 angstrom
           Maximum rank =  0   Radius =  0.650 angstrom
                   Q00  =  -0.498268

H          x = -0.175616  y = -2.849803  z = -1.097867 angstrom
           Maximum rank =  0   Radius =  0.325 angstrom
                   Q00  =   0.065611

H          x =  1.857384  y = -1.480803  z = -0.711867 angstrom
           Maximum rank =  0   Radius =  0.325 angstrom
                   Q00  =   0.074680

H          x = -2.313616  y = -2.253803  z = -0.028867 angstrom
           Maximum rank =  0   Radius =  0.325 angstrom
                   Q00  =   0.060812

H          x = -2.477616  y = -0.260803  z =  1.442133 angstrom
           Maximum rank =  0   Radius =  0.325 angstrom
                   Q00  =   0.071177

H          x =  2.740384  y =  0.744197  z =  0.875133 angstrom
           Maximum rank =  0   Radius =  0.325 angstrom
                   Q00  =   0.212868

H          x =  1.660384  y =  2.553197  z =  2.291133 angstrom
           Maximum rank =  0   Radius =  0.325 angstrom
                   Q00  =   0.101444

H          x = -1.269616  y =  1.541197  z =  3.673133 angstrom
           Maximum rank =  0   Radius =  0.325 angstrom
                   Q00  =   0.100273

H          x = -2.188616  y =  2.035197  z =  2.262133 angstrom
           Maximum rank =  0   Radius =  0.325 angstrom
                   Q00  =   0.103140

H          x = -1.057626  y =  3.187722  z =  3.040693 angstrom
           Maximum rank =  0   Radius =  0.325 angstrom
                   Q00  =   0.109121

Total multipoles referred to origin at
           x =   0.000000,  y =    0.000000,  z =    0.000000 angstrom
                   Q00  =  -0.000000

Finished at 7:29:50 on 27 Apr 2020

  DMA results are available in the Python driver through the
	  variable('DMA DISTRIBUTED MULTIPOLES')
  and
	  variable('DMA TOTAL MULTIPOLES')
  commands.

    Psi4 stopped on: Monday, 27 April 2020 07:29AM
    Psi4 wall time for execution: 0:05:22.09

*** Psi4 exiting successfully. Buy a developer a beer!
