                               Psi4 1.3.2 release

  ==> Input File <==

--------------------------------------------------------------------------
import numpy as np
set {scf_type pk
basis cc-pvdz
d_convergence 10
gdma_switch   0
gdma_limit    0
gdma_origin   [ 0.0,  0.0,  0.0 ]
}
molecule test {
    units Angstrom
    1 1
    --
    1 1
    C                0.011924610551156     0.099738529211362    -1.884388505703831
    C                0.958924610551156     2.086738529211362    -0.767388505703831
    N                0.433924610551156     1.741738529211362     0.400611494296169
    N                0.804924610551156     1.326738529211362    -1.838388505703831
    N                1.651924610551156     3.198738529211362    -0.874388505703831
    H               -0.010075389448844     0.841738529211362     0.543611494296169
    H                0.490924610551156     2.417738529211362     1.158611494296169
    H                1.314924610551156     1.604738529211362    -2.680388505703830
    H                2.076924610551156     3.449738529211362    -1.769388505703831
    H                1.797924610551156     3.791738529211362    -0.060388505703831
    H                0.185924610551156    -0.511261470788638    -1.000388505703831
    H                0.302924610551156    -0.485261470788638    -2.759388505703831
    H               -1.051015389448844     0.370015529211362    -1.968668505703831
    C               -2.199075389448844    -2.612261470788638     1.835611494296169
    C               -0.930075389448844    -2.056261470788638     1.228611494296169
    O               -0.642075389448844    -0.863261470788638     1.319611494296170
    N               -0.158075389448844    -2.916261470788638     0.583611494296169
    H               -1.944075389448844    -3.391261470788638     2.553611494296170
    H               -2.762075389448844    -3.058261470788638     1.026611494296169
    H                0.728924610551156    -2.598261470788638     0.225611494296169
    H               -0.400075389448844    -3.896261470788638     0.568611494296169
    H               -2.811495389448844    -1.840588470788638     2.324961494296169

}
e, wfn = energy('scf', return_wfn=True)
gdma(wfn)
dmavals = variable('DMA DISTRIBUTED MULTIPOLES')
charges = np.array(dmavals)
print(charges)
np.save('SSI-036ARG-162GLN-1-dimer.npy', np.array(charges))--------------------------------------------------------------------------

*** tstart() called on ds3
*** at Mon Apr 27 07:58:19 2020

   => Loading Basis Set <=

    Name: CC-PVDZ
    Role: ORBITAL
    Keyword: BASIS
    atoms 1-2, 14-15  entry C          line   138 file /theoryfs2/ds/metcalf/miniconda2/envs/tf2gpu/share/psi4/basis/cc-pvdz.gbs
    atoms 3-5, 17     entry N          line   168 file /theoryfs2/ds/metcalf/miniconda2/envs/tf2gpu/share/psi4/basis/cc-pvdz.gbs
    atoms 6-13, 18-22 entry H          line    22 file /theoryfs2/ds/metcalf/miniconda2/envs/tf2gpu/share/psi4/basis/cc-pvdz.gbs
    atoms 16          entry O          line   198 file /theoryfs2/ds/metcalf/miniconda2/envs/tf2gpu/share/psi4/basis/cc-pvdz.gbs

         ---------------------------------------------------------
                                   SCF
               by Justin Turney, Rob Parrish, Andy Simmonett
                          and Daniel G. A. Smith
                              RHF Reference
                        1 Threads,    500 MiB Core
         ---------------------------------------------------------

  ==> Geometry <==

    Molecular point group: c1
    Full point group: C1

    Geometry (in Angstrom), charge = 1, multiplicity = 1:

       Center              X                  Y                   Z               Mass
    ------------   -----------------  -----------------  -----------------  -----------------
         C            0.011924610551     0.099738529211    -1.884388505704    12.000000000000
         C            0.958924610551     2.086738529211    -0.767388505704    12.000000000000
         N            0.433924610551     1.741738529211     0.400611494296    14.003074004430
         N            0.804924610551     1.326738529211    -1.838388505704    14.003074004430
         N            1.651924610551     3.198738529211    -0.874388505704    14.003074004430
         H           -0.010075389449     0.841738529211     0.543611494296     1.007825032230
         H            0.490924610551     2.417738529211     1.158611494296     1.007825032230
         H            1.314924610551     1.604738529211    -2.680388505704     1.007825032230
         H            2.076924610551     3.449738529211    -1.769388505704     1.007825032230
         H            1.797924610551     3.791738529211    -0.060388505704     1.007825032230
         H            0.185924610551    -0.511261470789    -1.000388505704     1.007825032230
         H            0.302924610551    -0.485261470789    -2.759388505704     1.007825032230
         H           -1.051015389449     0.370015529211    -1.968668505704     1.007825032230
         C           -2.199075389449    -2.612261470789     1.835611494296    12.000000000000
         C           -0.930075389449    -2.056261470789     1.228611494296    12.000000000000
         O           -0.642075389449    -0.863261470789     1.319611494296    15.994914619570
         N           -0.158075389449    -2.916261470789     0.583611494296    14.003074004430
         H           -1.944075389449    -3.391261470789     2.553611494296     1.007825032230
         H           -2.762075389449    -3.058261470789     1.026611494296     1.007825032230
         H            0.728924610551    -2.598261470789     0.225611494296     1.007825032230
         H           -0.400075389449    -3.896261470789     0.568611494296     1.007825032230
         H           -2.811495389449    -1.840588470789     2.324961494296     1.007825032230

  Running in c1 symmetry.

  Rotational constants: A =      0.10877  B =      0.01887  C =      0.01715 [cm^-1]
  Rotational constants: A =   3260.91185  B =    565.61638  C =    514.05314 [MHz]
  Nuclear repulsion =  463.006127990326092

  Charge       = 1
  Multiplicity = 1
  Electrons    = 72
  Nalpha       = 36
  Nbeta        = 36

  ==> Algorithm <==

  SCF Algorithm Type is PK.
  DIIS enabled.
  MOM disabled.
  Fractional occupation disabled.
  Guess Type is SAD.
  Energy threshold   = 1.00e-06
  Density threshold  = 1.00e-10
  Integral threshold = 0.00e+00

  ==> Primary Basis <==

  Basis Set: CC-PVDZ
    Blend: CC-PVDZ
    Number of shells: 93
    Number of basis function: 191
    Number of Cartesian functions: 200
    Spherical Harmonics?: true
    Max angular momentum: 2

  ==> Pre-Iterations <==

   -------------------------------------------------------
    Irrep   Nso     Nmo     Nalpha   Nbeta   Ndocc  Nsocc
   -------------------------------------------------------
     A        191     191       0       0       0       0
   -------------------------------------------------------
    Total     191     191      36      36      36       0
   -------------------------------------------------------

  ==> Integral Setup <==

  Using integral reordering PK algorithm.
  Sizing the integral batches needed.
  Building batch lookup table.
   Calculation information:
      Number of atoms:                  22
      Number of AO shells:              93
      Number of primitives:            263
      Number of atomic orbitals:       200
      Number of basis functions:       191

      Integral cutoff                 1.00e-12
      Number of threads:                 1

	Batch   1 pq = [       0,    9405] index = [             0,44231715] size =     44231715
	Batch   2 pq = [    9405,   13301] index = [      44231715,88464951] size =     44233236
	Batch   3 pq = [   13301,   16290] index = [      88464951,132690195] size =     44225244
	Batch   4 pq = [   16290,   18336] index = [     132690195,168113616] size =     35423421
  Task number: 16
  Buffer size: 11059200
  Buffer per thread: 2
  We computed 7692986 shell quartets total.
  Whereas there are 9555006 unique shell quartets.

  ==> DiskJK: Disk-Based J/K Matrices <==

    J tasked:                  Yes
    K tasked:                  Yes
    wK tasked:                  No
    Memory [MiB]:              375
    Schwarz Cutoff:          1E-12

    OpenMP threads:              1

  Minimum eigenvalue in the overlap matrix is 3.8390750053E-03.
  Using Symmetric Orthogonalization.

  SCF Guess: Superposition of Atomic Densities via on-the-fly atomic UHF.

  ==> Iterations <==

                        Total Energy        Delta E     RMS |[F,P]|

   @RHF iter SAD:  -450.74843179711650   -4.50748e+02   0.00000e+00
   @RHF iter   1:  -451.34917760461275   -6.00746e-01   3.61717e-03 DIIS
   @RHF iter   2:  -451.55411624078289   -2.04939e-01   1.77561e-03 DIIS
   @RHF iter   3:  -451.59832052700256   -4.42043e-02   4.39717e-04 DIIS
   @RHF iter   4:  -451.60224350346664   -3.92298e-03   1.64128e-04 DIIS
   @RHF iter   5:  -451.60279124819863   -5.47745e-04   2.79452e-05 DIIS
   @RHF iter   6:  -451.60282356382112   -3.23156e-05   1.17010e-05 DIIS
   @RHF iter   7:  -451.60282777179179   -4.20797e-06   3.53569e-06 DIIS
   @RHF iter   8:  -451.60282843960476   -6.67813e-07   1.12480e-06 DIIS
   @RHF iter   9:  -451.60282850306209   -6.34573e-08   4.18344e-07 DIIS
   @RHF iter  10:  -451.60282851159491   -8.53282e-09   1.60775e-07 DIIS
   @RHF iter  11:  -451.60282851274150   -1.14659e-09   3.35110e-08 DIIS
   @RHF iter  12:  -451.60282851278760   -4.61000e-11   1.14318e-08 DIIS
   @RHF iter  13:  -451.60282851279140   -3.80851e-12   3.18744e-09 DIIS
   @RHF iter  14:  -451.60282851279419   -2.78533e-12   9.08643e-10 DIIS
   @RHF iter  15:  -451.60282851279214    2.04636e-12   3.62865e-10 DIIS
   @RHF iter  16:  -451.60282851279158    5.68434e-13   1.55513e-10 DIIS
   @RHF iter  17:  -451.60282851279209   -5.11591e-13   6.10672e-11 DIIS
  Energy and wave function converged.

  ==> Post-Iterations <==

    Orbital Energies [Eh]
    ---------------------

    Doubly Occupied:

       1A    -20.635246     2A    -15.769148     3A    -15.764620
       4A    -15.751184     5A    -15.706651     6A    -11.562760
       7A    -11.472363     8A    -11.419124     9A    -11.342616
      10A     -1.520220    11A     -1.498146    12A     -1.378855
      13A     -1.359494    14A     -1.338366    15A     -1.120412
      16A     -1.108392    17A     -1.007565    18A     -0.949349
      19A     -0.919160    20A     -0.912467    21A     -0.845446
      22A     -0.833892    23A     -0.830287    24A     -0.799443
      25A     -0.775286    26A     -0.770739    27A     -0.729510
      28A     -0.721604    29A     -0.701144    30A     -0.692713
      31A     -0.661798    32A     -0.635800    33A     -0.588095
      34A     -0.564010    35A     -0.538712    36A     -0.532512

    Virtual:

      37A      0.006677    38A      0.043728    39A      0.048670
      40A      0.053519    41A      0.070525    42A      0.082886
      43A      0.097480    44A      0.113271    45A      0.116177
      46A      0.135930    47A      0.140247    48A      0.164776
      49A      0.174344    50A      0.196303    51A      0.207141
      52A      0.231607    53A      0.282956    54A      0.302645
      55A      0.344971    56A      0.357564    57A      0.396582
      58A      0.430878    59A      0.471758    60A      0.477796
      61A      0.529283    62A      0.533885    63A      0.536960
      64A      0.547770    65A      0.549146    66A      0.558147
      67A      0.572795    68A      0.579094    69A      0.599632
      70A      0.625682    71A      0.629815    72A      0.663929
      73A      0.696723    74A      0.710887    75A      0.728799
      76A      0.742249    77A      0.753415    78A      0.758060
      79A      0.772327    80A      0.782508    81A      0.784625
      82A      0.818071    83A      0.824971    84A      0.837887
      85A      0.842255    86A      0.858986    87A      0.888708
      88A      0.893952    89A      0.917698    90A      0.931130
      91A      0.937954    92A      0.966511    93A      0.974782
      94A      1.019081    95A      1.054931    96A      1.070201
      97A      1.131605    98A      1.147260    99A      1.156569
     100A      1.196342   101A      1.197784   102A      1.213940
     103A      1.237270   104A      1.251123   105A      1.256342
     106A      1.270617   107A      1.297549   108A      1.310423
     109A      1.349373   110A      1.361005   111A      1.411912
     112A      1.454380   113A      1.515276   114A      1.536704
     115A      1.554185   116A      1.556650   117A      1.565078
     118A      1.580561   119A      1.585838   120A      1.599614
     121A      1.635442   122A      1.671946   123A      1.684475
     124A      1.723469   125A      1.726835   126A      1.736946
     127A      1.757789   128A      1.765111   129A      1.770441
     130A      1.786903   131A      1.804314   132A      1.816130
     133A      1.829175   134A      1.835902   135A      1.840961
     136A      1.868293   137A      1.881615   138A      1.904538
     139A      1.926517   140A      1.973669   141A      1.992966
     142A      2.020070   143A      2.037599   144A      2.049827
     145A      2.063897   146A      2.125604   147A      2.149298
     148A      2.159361   149A      2.172230   150A      2.196554
     151A      2.261872   152A      2.283756   153A      2.299363
     154A      2.311778   155A      2.330467   156A      2.347238
     157A      2.359648   158A      2.383776   159A      2.401346
     160A      2.440760   161A      2.462556   162A      2.484490
     163A      2.492311   164A      2.502419   165A      2.583171
     166A      2.600606   167A      2.626024   168A      2.641163
     169A      2.650621   170A      2.663212   171A      2.702108
     172A      2.716345   173A      2.772263   174A      2.794927
     175A      2.808534   176A      2.831924   177A      2.846692
     178A      2.880001   179A      2.904409   180A      2.963222
     181A      3.016074   182A      3.081538   183A      3.106256
     184A      3.167845   185A      3.179897   186A      3.375672
     187A      3.416566   188A      3.585532   189A      3.646093
     190A      3.737443   191A      3.831803

    Final Occupation by Irrep:
              A
    DOCC [    36 ]

  @RHF Final Energy:  -451.60282851279209

   => Energetics <=

    Nuclear Repulsion Energy =            463.0061279903260925
    One-Electron Energy =               -1521.7036543701849496
    Two-Electron Energy =                 607.0946978670666567
    Total Energy =                       -451.6028285127921436

Computation Completed

Properties will be evaluated at   0.000000,   0.000000,   0.000000 [a0]

Properties computed using the SCF density matrix

  Nuclear Dipole Moment: [e a0]
     X:    -1.9613      Y:    -3.1126      Z:    -1.7108

  Electronic Dipole Moment: [e a0]
     X:     3.3071      Y:     4.4001      Z:     0.2469

  Dipole Moment: [e a0]
     X:     1.3459      Y:     1.2875      Z:    -1.4638     Total:     2.3689

  Dipole Moment: [D]
     X:     3.4209      Y:     3.2725      Z:    -3.7206     Total:     6.0212

*** tstop() called on ds3 at Mon Apr 27 08:00:33 2020
Module time:
	user time   =      56.74 seconds =       0.95 minutes
	system time =      24.84 seconds =       0.41 minutes
	total time  =        134 seconds =       2.23 minutes
Total time:
	user time   =      56.74 seconds =       0.95 minutes
	system time =      24.84 seconds =       0.41 minutes
	total time  =        134 seconds =       2.23 minutes
                                     G D M A

                                 by Anthony Stone

                           version 2.2.06, 22 June 2011

               Distributed Multipoles from Gaussian wavefunctions

Starting at 8:0:33 on 27 Apr 2020

Using SCF density matrix from file ./SSI/SSI-036ARG-162GLN-1-dimer.test.406.fchk

                         Distributed Multipole Analysis

Standard DMA

Positions and radii in angstrom
Multipole moments in atomic units, ea_0^k for rank k

C          x =  0.011925  y =  0.099739  z = -1.884389 angstrom
           Maximum rank =  0   Radius =  0.650 angstrom
                   Q00  =  -0.117486

C          x =  0.958925  y =  2.086739  z = -0.767389 angstrom
           Maximum rank =  0   Radius =  0.650 angstrom
                   Q00  =   1.086056

N          x =  0.433925  y =  1.741739  z =  0.400611 angstrom
           Maximum rank =  0   Radius =  0.650 angstrom
                   Q00  =  -0.613783

N          x =  0.804925  y =  1.326739  z = -1.838389 angstrom
           Maximum rank =  0   Radius =  0.650 angstrom
                   Q00  =  -0.494828

N          x =  1.651925  y =  3.198739  z = -0.874389 angstrom
           Maximum rank =  0   Radius =  0.650 angstrom
                   Q00  =  -0.602643

H          x = -0.010075  y =  0.841739  z =  0.543611 angstrom
           Maximum rank =  0   Radius =  0.325 angstrom
                   Q00  =   0.323646

H          x =  0.490925  y =  2.417739  z =  1.158611 angstrom
           Maximum rank =  0   Radius =  0.325 angstrom
                   Q00  =   0.255465

H          x =  1.314925  y =  1.604739  z = -2.680389 angstrom
           Maximum rank =  0   Radius =  0.325 angstrom
                   Q00  =   0.225673

H          x =  2.076925  y =  3.449739  z = -1.769389 angstrom
           Maximum rank =  0   Radius =  0.325 angstrom
                   Q00  =   0.263461

H          x =  1.797925  y =  3.791739  z = -0.060389 angstrom
           Maximum rank =  0   Radius =  0.325 angstrom
                   Q00  =   0.265442

H          x =  0.185925  y = -0.511261  z = -1.000389 angstrom
           Maximum rank =  0   Radius =  0.325 angstrom
                   Q00  =   0.113063

H          x =  0.302925  y = -0.485261  z = -2.759389 angstrom
           Maximum rank =  0   Radius =  0.325 angstrom
                   Q00  =   0.149003

H          x = -1.051015  y =  0.370016  z = -1.968669 angstrom
           Maximum rank =  0   Radius =  0.325 angstrom
                   Q00  =   0.124194

C          x = -2.199075  y = -2.612261  z =  1.835611 angstrom
           Maximum rank =  0   Radius =  0.650 angstrom
                   Q00  =  -0.251880

C          x = -0.930075  y = -2.056261  z =  1.228611 angstrom
           Maximum rank =  0   Radius =  0.650 angstrom
                   Q00  =   0.808950

O          x = -0.642075  y = -0.863261  z =  1.319611 angstrom
           Maximum rank =  0   Radius =  0.650 angstrom
                   Q00  =  -0.831302

N          x = -0.158075  y = -2.916261  z =  0.583611 angstrom
           Maximum rank =  0   Radius =  0.650 angstrom
                   Q00  =  -0.543821

H          x = -1.944075  y = -3.391261  z =  2.553611 angstrom
           Maximum rank =  0   Radius =  0.325 angstrom
                   Q00  =   0.129152

H          x = -2.762075  y = -3.058261  z =  1.026611 angstrom
           Maximum rank =  0   Radius =  0.325 angstrom
                   Q00  =   0.114260

H          x =  0.728925  y = -2.598261  z =  0.225611 angstrom
           Maximum rank =  0   Radius =  0.325 angstrom
                   Q00  =   0.224887

H          x = -0.400075  y = -3.896261  z =  0.568611 angstrom
           Maximum rank =  0   Radius =  0.325 angstrom
                   Q00  =   0.231448

H          x = -2.811495  y = -1.840588  z =  2.324961 angstrom
           Maximum rank =  0   Radius =  0.325 angstrom
                   Q00  =   0.141042

Total multipoles referred to origin at
           x =   0.000000,  y =    0.000000,  z =    0.000000 angstrom
                   Q00  =   1.000000

Finished at 8:0:33 on 27 Apr 2020

  DMA results are available in the Python driver through the
	  variable('DMA DISTRIBUTED MULTIPOLES')
  and
	  variable('DMA TOTAL MULTIPOLES')
  commands.

    Psi4 stopped on: Monday, 27 April 2020 08:00AM
    Psi4 wall time for execution: 0:02:14.32

*** Psi4 exiting successfully. Buy a developer a beer!
