                               Psi4 1.3.2 release

  ==> Input File <==

--------------------------------------------------------------------------
import numpy as np
set {scf_type pk
basis cc-pvdz
d_convergence 10
gdma_switch   0
gdma_limit    0
gdma_origin   [ 0.0,  0.0,  0.0 ]
}
molecule test {
    units Angstrom
    0 1
    --
    0 1
    C               -1.240036077932457    -2.327330493084331     2.056981777411332
    C               -2.742036077932457    -2.350330493084331     1.752981777411332
    H               -0.762036077932457    -3.254330493084331     1.758981777411332
    H               -0.773036077932457    -1.504330493084331     1.521981777411332
    H               -1.082036077932457    -2.180330493084331     3.124981777411333
    H               -3.138036077932457    -1.351330493084331     1.924981777411332
    H               -3.274936077932458    -3.072838493084331     2.388591777411333
    H               -2.910266077932457    -2.615796493084331     0.698831777411332
    C                2.508963922067542     2.682669506915669     0.307981777411332
    C               -0.770036077932457     0.769669506915669    -0.121018222588668
    C               -0.369036077932457    -0.298330493084331    -0.906018222588668
    C                0.177963922067543     1.730669506915669     0.276981777411332
    C                1.518963922067543     1.605669506915669    -0.086018222588668
    C                0.962963922067543    -0.407330493084331    -1.321018222588668
    C                1.901963922067543     0.548669506915669    -0.915018222588668
    O               -1.312036077932457    -1.201330493084331    -1.317018222588668
    H               -1.803036077932457     0.859669506915669     0.178981777411332
    H               -0.137036077932457     2.569669506915669     0.875981777411332
    H                1.266963922067543    -1.225330493084331    -1.958018222588668
    H               -1.001036077932457    -1.710330493084331    -2.095018222588668
    H                3.402963922067543     2.202669506915669     0.703981777411332
    H                2.087963922067543     3.302669506915669     1.099981777411332
    H                2.929963922067542     0.457669506915669    -1.237018222588668
    H                2.802113922067543     3.322009506915669    -0.537778222588668

}
e, wfn = energy('scf', return_wfn=True)
gdma(wfn)
dmavals = variable('DMA DISTRIBUTED MULTIPOLES')
charges = np.array(dmavals)
print(charges)
np.save('SSI-029THR-121TYR-1-dimer.npy', np.array(charges))--------------------------------------------------------------------------

*** tstart() called on ds3
*** at Mon Apr 27 00:12:05 2020

   => Loading Basis Set <=

    Name: CC-PVDZ
    Role: ORBITAL
    Keyword: BASIS
    atoms 1-2, 9-15  entry C          line   138 file /theoryfs2/ds/metcalf/miniconda2/envs/tf2gpu/share/psi4/basis/cc-pvdz.gbs
    atoms 3-8, 17-24 entry H          line    22 file /theoryfs2/ds/metcalf/miniconda2/envs/tf2gpu/share/psi4/basis/cc-pvdz.gbs
    atoms 16         entry O          line   198 file /theoryfs2/ds/metcalf/miniconda2/envs/tf2gpu/share/psi4/basis/cc-pvdz.gbs

         ---------------------------------------------------------
                                   SCF
               by Justin Turney, Rob Parrish, Andy Simmonett
                          and Daniel G. A. Smith
                              RHF Reference
                        1 Threads,    500 MiB Core
         ---------------------------------------------------------

  ==> Geometry <==

    Molecular point group: c1
    Full point group: C1

    Geometry (in Angstrom), charge = 0, multiplicity = 1:

       Center              X                  Y                   Z               Mass
    ------------   -----------------  -----------------  -----------------  -----------------
         C           -1.240036077932    -2.327330493084     2.056981777411    12.000000000000
         C           -2.742036077932    -2.350330493084     1.752981777411    12.000000000000
         H           -0.762036077932    -3.254330493084     1.758981777411     1.007825032230
         H           -0.773036077932    -1.504330493084     1.521981777411     1.007825032230
         H           -1.082036077932    -2.180330493084     3.124981777411     1.007825032230
         H           -3.138036077932    -1.351330493084     1.924981777411     1.007825032230
         H           -3.274936077932    -3.072838493084     2.388591777411     1.007825032230
         H           -2.910266077932    -2.615796493084     0.698831777411     1.007825032230
         C            2.508963922068     2.682669506916     0.307981777411    12.000000000000
         C           -0.770036077932     0.769669506916    -0.121018222589    12.000000000000
         C           -0.369036077932    -0.298330493084    -0.906018222589    12.000000000000
         C            0.177963922068     1.730669506916     0.276981777411    12.000000000000
         C            1.518963922068     1.605669506916    -0.086018222589    12.000000000000
         C            0.962963922068    -0.407330493084    -1.321018222589    12.000000000000
         C            1.901963922068     0.548669506916    -0.915018222589    12.000000000000
         O           -1.312036077932    -1.201330493084    -1.317018222589    15.994914619570
         H           -1.803036077932     0.859669506916     0.178981777411     1.007825032230
         H           -0.137036077932     2.569669506916     0.875981777411     1.007825032230
         H            1.266963922068    -1.225330493084    -1.958018222589     1.007825032230
         H           -1.001036077932    -1.710330493084    -2.095018222589     1.007825032230
         H            3.402963922068     2.202669506916     0.703981777411     1.007825032230
         H            2.087963922068     3.302669506916     1.099981777411     1.007825032230
         H            2.929963922068     0.457669506916    -1.237018222589     1.007825032230
         H            2.802113922068     3.322009506916    -0.537778222589     1.007825032230

  Running in c1 symmetry.

  Rotational constants: A =      0.06924  B =      0.02112  C =      0.01892 [cm^-1]
  Rotational constants: A =   2075.84476  B =    633.19479  C =    567.28956 [MHz]
  Nuclear repulsion =  500.584895142569167

  Charge       = 0
  Multiplicity = 1
  Electrons    = 76
  Nalpha       = 38
  Nbeta        = 38

  ==> Algorithm <==

  SCF Algorithm Type is PK.
  DIIS enabled.
  MOM disabled.
  Fractional occupation disabled.
  Guess Type is SAD.
  Energy threshold   = 1.00e-06
  Density threshold  = 1.00e-10
  Integral threshold = 0.00e+00

  ==> Primary Basis <==

  Basis Set: CC-PVDZ
    Blend: CC-PVDZ
    Number of shells: 102
    Number of basis function: 210
    Number of Cartesian functions: 220
    Spherical Harmonics?: true
    Max angular momentum: 2

  ==> Pre-Iterations <==

   -------------------------------------------------------
    Irrep   Nso     Nmo     Nalpha   Nbeta   Ndocc  Nsocc
   -------------------------------------------------------
     A        210     210       0       0       0       0
   -------------------------------------------------------
    Total     210     210      38      38      38       0
   -------------------------------------------------------

  ==> Integral Setup <==

  Using integral reordering PK algorithm.
  Sizing the integral batches needed.
  Building batch lookup table.
   Calculation information:
      Number of atoms:                  24
      Number of AO shells:             102
      Number of primitives:            290
      Number of atomic orbitals:       220
      Number of basis functions:       210

      Integral cutoff                 1.00e-12
      Number of threads:                 1

	Batch   1 pq = [       0,    9405] index = [             0,44231715] size =     44231715
	Batch   2 pq = [    9405,   13301] index = [      44231715,88464951] size =     44233236
	Batch   3 pq = [   13301,   16290] index = [      88464951,132690195] size =     44225244
	Batch   4 pq = [   16290,   18810] index = [     132690195,176917455] size =     44227260
	Batch   5 pq = [   18810,   21030] index = [     176917455,221140965] size =     44223510
	Batch   6 pq = [   21030,   22155] index = [     221140965,245433090] size =     24292125
  Task number: 23
  Buffer size: 11059200
  Buffer per thread: 2
  We computed 11963578 shell quartets total.
  Whereas there are 13799631 unique shell quartets.

  ==> DiskJK: Disk-Based J/K Matrices <==

    J tasked:                  Yes
    K tasked:                  Yes
    wK tasked:                  No
    Memory [MiB]:              375
    Schwarz Cutoff:          1E-12

    OpenMP threads:              1

  Minimum eigenvalue in the overlap matrix is 3.3300072248E-04.
  Using Symmetric Orthogonalization.

  SCF Guess: Superposition of Atomic Densities via on-the-fly atomic UHF.

  ==> Iterations <==

                        Total Energy        Delta E     RMS |[F,P]|

   @RHF iter SAD:  -422.60280530515860   -4.22603e+02   0.00000e+00
   @RHF iter   1:  -423.60168027497861   -9.98875e-01   2.96809e-03 DIIS
   @RHF iter   2:  -423.81726982368434   -2.15590e-01   1.25529e-03 DIIS
   @RHF iter   3:  -423.85191416678833   -3.46443e-02   2.82651e-04 DIIS
   @RHF iter   4:  -423.85476724167444   -2.85307e-03   1.15087e-04 DIIS
   @RHF iter   5:  -423.85510319155003   -3.35950e-04   2.05844e-05 DIIS
   @RHF iter   6:  -423.85512029347797   -1.71019e-05   6.59696e-06 DIIS
   @RHF iter   7:  -423.85512189753467   -1.60406e-06   2.09343e-06 DIIS
   @RHF iter   8:  -423.85512210614939   -2.08615e-07   7.73501e-07 DIIS
   @RHF iter   9:  -423.85512213379855   -2.76492e-08   2.41708e-07 DIIS
   @RHF iter  10:  -423.85512213713037   -3.33182e-09   8.20133e-08 DIIS
   @RHF iter  11:  -423.85512213768754   -5.57179e-10   3.76706e-08 DIIS
   @RHF iter  12:  -423.85512213783716   -1.49612e-10   2.19392e-08 DIIS
   @RHF iter  13:  -423.85512213789065   -5.34897e-11   7.86688e-09 DIIS
   @RHF iter  14:  -423.85512213789991   -9.26548e-12   2.14120e-09 DIIS
   @RHF iter  15:  -423.85512213789877    1.13687e-12   7.40905e-10 DIIS
   @RHF iter  16:  -423.85512213789946   -6.82121e-13   2.32413e-10 DIIS
   @RHF iter  17:  -423.85512213789980   -3.41061e-13   9.97895e-11 DIIS
  Energy and wave function converged.

  ==> Post-Iterations <==

    Orbital Energies [Eh]
    ---------------------

    Doubly Occupied:

       1A    -20.585892     2A    -11.299692     3A    -11.242250
       4A    -11.240094     5A    -11.237815     6A    -11.236275
       7A    -11.231812     8A    -11.229536     9A    -11.206116
      10A    -11.201562    11A     -1.395208    12A     -1.149297
      13A     -1.037144    14A     -1.016533    15A     -1.003585
      16A     -0.926248    17A     -0.845594    18A     -0.824798
      19A     -0.800088    20A     -0.729325    21A     -0.666235
      22A     -0.642253    23A     -0.612203    24A     -0.594252
      25A     -0.587890    26A     -0.584748    27A     -0.576452
      28A     -0.568476    29A     -0.564130    30A     -0.526334
      31A     -0.498081    32A     -0.487063    33A     -0.486678
      34A     -0.475238    35A     -0.472091    36A     -0.464841
      37A     -0.337457    38A     -0.305036

    Virtual:

      39A      0.125406    40A      0.152944    41A      0.173772
      42A      0.185503    43A      0.198148    44A      0.215569
      45A      0.225062    46A      0.241721    47A      0.257927
      48A      0.264853    49A      0.268879    50A      0.277423
      51A      0.285250    52A      0.299699    53A      0.315337
      54A      0.321537    55A      0.367597    56A      0.371462
      57A      0.407953    58A      0.429275    59A      0.451776
      60A      0.484545    61A      0.490623    62A      0.506827
      63A      0.596794    64A      0.602172    65A      0.611283
      66A      0.619909    67A      0.631643    68A      0.651278
      69A      0.661255    70A      0.667321    71A      0.686723
      72A      0.703667    73A      0.711652    74A      0.727018
      75A      0.733268    76A      0.739597    77A      0.756101
      78A      0.773819    79A      0.780596    80A      0.788330
      81A      0.814583    82A      0.839472    83A      0.852398
      84A      0.855430    85A      0.867913    86A      0.874040
      87A      0.880155    88A      0.891776    89A      0.897999
      90A      0.906791    91A      0.914394    92A      0.923194
      93A      0.929410    94A      0.929929    95A      0.943372
      96A      0.945276    97A      0.973291    98A      0.976124
      99A      1.000510   100A      1.023650   101A      1.040458
     102A      1.068593   103A      1.119122   104A      1.136402
     105A      1.141873   106A      1.144988   107A      1.154968
     108A      1.177960   109A      1.210523   110A      1.235468
     111A      1.243061   112A      1.262601   113A      1.274507
     114A      1.298634   115A      1.303334   116A      1.310628
     117A      1.317683   118A      1.355371   119A      1.374304
     120A      1.391752   121A      1.469063   122A      1.486205
     123A      1.494004   124A      1.508292   125A      1.537844
     126A      1.555174   127A      1.591201   128A      1.622770
     129A      1.623583   130A      1.675125   131A      1.691959
     132A      1.699815   133A      1.709960   134A      1.729516
     135A      1.737609   136A      1.779805   137A      1.811390
     138A      1.816903   139A      1.851672   140A      1.870006
     141A      1.883354   142A      1.886602   143A      1.892598
     144A      1.899264   145A      1.912797   146A      1.919157
     147A      1.935579   148A      1.941645   149A      1.952798
     150A      1.960275   151A      1.967029   152A      1.967808
     153A      1.974691   154A      1.981437   155A      1.994244
     156A      2.001324   157A      2.020322   158A      2.040082
     159A      2.056182   160A      2.069027   161A      2.072630
     162A      2.117222   163A      2.125704   164A      2.134582
     165A      2.161069   166A      2.174279   167A      2.189207
     168A      2.215469   169A      2.249447   170A      2.268411
     171A      2.299934   172A      2.318084   173A      2.331037
     174A      2.344547   175A      2.370886   176A      2.401359
     177A      2.424536   178A      2.463936   179A      2.474718
     180A      2.483122   181A      2.495549   182A      2.530754
     183A      2.555936   184A      2.587636   185A      2.603601
     186A      2.620521   187A      2.637748   188A      2.738902
     189A      2.767951   190A      2.782054   191A      2.785279
     192A      2.805664   193A      2.822038   194A      2.839565
     195A      2.867831   196A      2.878456   197A      2.903099
     198A      2.956556   199A      2.971566   200A      2.981820
     201A      3.009422   202A      3.076230   203A      3.107956
     204A      3.258523   205A      3.273570   206A      3.343130
     207A      3.575475   208A      3.669488   209A      3.947713
     210A      4.156867

    Final Occupation by Irrep:
              A
    DOCC [    38 ]

  @RHF Final Energy:  -423.85512213789980

   => Energetics <=

    Nuclear Repulsion Energy =            500.5848951425691666
    One-Electron Energy =               -1567.1033907757575889
    Two-Electron Energy =                 642.6633734952886243
    Total Energy =                       -423.8551221378997980

Computation Completed

Properties will be evaluated at   0.000000,   0.000000,   0.000000 [a0]

Properties computed using the SCF density matrix

  Nuclear Dipole Moment: [e a0]
     X:    -2.2482      Y:    -3.9434      Z:     7.9148

  Electronic Dipole Moment: [e a0]
     X:     2.7902      Y:     4.0137      Z:    -8.3866

  Dipole Moment: [e a0]
     X:     0.5419      Y:     0.0703      Z:    -0.4718     Total:     0.7219

  Dipole Moment: [D]
     X:     1.3774      Y:     0.1788      Z:    -1.1992     Total:     1.8350

*** tstop() called on ds3 at Mon Apr 27 00:16:44 2020
Module time:
	user time   =      88.08 seconds =       1.47 minutes
	system time =      33.64 seconds =       0.56 minutes
	total time  =        279 seconds =       4.65 minutes
Total time:
	user time   =      88.08 seconds =       1.47 minutes
	system time =      33.64 seconds =       0.56 minutes
	total time  =        279 seconds =       4.65 minutes
                                     G D M A

                                 by Anthony Stone

                           version 2.2.06, 22 June 2011

               Distributed Multipoles from Gaussian wavefunctions

Starting at 0:16:44 on 27 Apr 2020

Using SCF density matrix from file ./SSI/SSI-029THR-121TYR-1-dimer.test.8125.fchk

                         Distributed Multipole Analysis

Standard DMA

Positions and radii in angstrom
Multipole moments in atomic units, ea_0^k for rank k

C          x = -1.240036  y = -2.327330  z =  2.056982 angstrom
           Maximum rank =  0   Radius =  0.650 angstrom
                   Q00  =  -0.230765

C          x = -2.742036  y = -2.350330  z =  1.752982 angstrom
           Maximum rank =  0   Radius =  0.650 angstrom
                   Q00  =  -0.243327

H          x = -0.762036  y = -3.254330  z =  1.758982 angstrom
           Maximum rank =  0   Radius =  0.325 angstrom
                   Q00  =   0.074332

H          x = -0.773036  y = -1.504330  z =  1.521982 angstrom
           Maximum rank =  0   Radius =  0.325 angstrom
                   Q00  =   0.094597

H          x = -1.082036  y = -2.180330  z =  3.124982 angstrom
           Maximum rank =  0   Radius =  0.325 angstrom
                   Q00  =   0.069800

H          x = -3.138036  y = -1.351330  z =  1.924982 angstrom
           Maximum rank =  0   Radius =  0.325 angstrom
                   Q00  =   0.073520

H          x = -3.274936  y = -3.072838  z =  2.388592 angstrom
           Maximum rank =  0   Radius =  0.325 angstrom
                   Q00  =   0.071149

H          x = -2.910266  y = -2.615796  z =  0.698832 angstrom
           Maximum rank =  0   Radius =  0.325 angstrom
                   Q00  =   0.085187

C          x =  2.508964  y =  2.682670  z =  0.307982 angstrom
           Maximum rank =  0   Radius =  0.650 angstrom
                   Q00  =  -0.201805

C          x = -0.770036  y =  0.769670  z = -0.121018 angstrom
           Maximum rank =  0   Radius =  0.650 angstrom
                   Q00  =  -0.114874

C          x = -0.369036  y = -0.298330  z = -0.906018 angstrom
           Maximum rank =  0   Radius =  0.650 angstrom
                   Q00  =   0.307289

C          x =  0.177964  y =  1.730670  z =  0.276982 angstrom
           Maximum rank =  0   Radius =  0.650 angstrom
                   Q00  =   0.041198

C          x =  1.518964  y =  1.605670  z = -0.086018 angstrom
           Maximum rank =  0   Radius =  0.650 angstrom
                   Q00  =  -0.124648

C          x =  0.962964  y = -0.407330  z = -1.321018 angstrom
           Maximum rank =  0   Radius =  0.650 angstrom
                   Q00  =  -0.167137

C          x =  1.901964  y =  0.548670  z = -0.915018 angstrom
           Maximum rank =  0   Radius =  0.650 angstrom
                   Q00  =  -0.064442

O          x = -1.312036  y = -1.201330  z = -1.317018 angstrom
           Maximum rank =  0   Radius =  0.650 angstrom
                   Q00  =  -0.669886

H          x = -1.803036  y =  0.859670  z =  0.178982 angstrom
           Maximum rank =  0   Radius =  0.325 angstrom
                   Q00  =   0.084750

H          x = -0.137036  y =  2.569670  z =  0.875982 angstrom
           Maximum rank =  0   Radius =  0.325 angstrom
                   Q00  =   0.066352

H          x =  1.266964  y = -1.225330  z = -1.958018 angstrom
           Maximum rank =  0   Radius =  0.325 angstrom
                   Q00  =   0.074363

H          x = -1.001036  y = -1.710330  z = -2.095018 angstrom
           Maximum rank =  0   Radius =  0.325 angstrom
                   Q00  =   0.411110

H          x =  3.402964  y =  2.202670  z =  0.703982 angstrom
           Maximum rank =  0   Radius =  0.325 angstrom
                   Q00  =   0.096591

H          x =  2.087964  y =  3.302670  z =  1.099982 angstrom
           Maximum rank =  0   Radius =  0.325 angstrom
                   Q00  =   0.097812

H          x =  2.929964  y =  0.457670  z = -1.237018 angstrom
           Maximum rank =  0   Radius =  0.325 angstrom
                   Q00  =   0.069561

H          x =  2.802114  y =  3.322010  z = -0.537778 angstrom
           Maximum rank =  0   Radius =  0.325 angstrom
                   Q00  =   0.099273

Total multipoles referred to origin at
           x =   0.000000,  y =    0.000000,  z =    0.000000 angstrom
                   Q00  =  -0.000000

Finished at 0:16:44 on 27 Apr 2020

  DMA results are available in the Python driver through the
	  variable('DMA DISTRIBUTED MULTIPOLES')
  and
	  variable('DMA TOTAL MULTIPOLES')
  commands.

    Psi4 stopped on: Monday, 27 April 2020 12:16AM
    Psi4 wall time for execution: 0:04:39.46

*** Psi4 exiting successfully. Buy a developer a beer!
