                               Psi4 1.3.2 release

  ==> Input File <==

--------------------------------------------------------------------------
import numpy as np
set {scf_type pk
basis cc-pvdz
d_convergence 10
gdma_switch   0
gdma_limit    0
gdma_origin   [ 0.0,  0.0,  0.0 ]
}
molecule test {
    units Angstrom
    1 1
    --
    1 1
    C                2.568703370141880    -1.046636171089872     2.033668457908601
    O                1.889703370141880     0.013363828910128     1.380668457908601
    H                1.896703370141880     0.758363828910128     2.015668457908601
    H                2.430703370141880    -1.970636171089872     1.471668457908601
    H                2.140703370141880    -1.181636171089872     3.027668457908602
    H                3.643033370141880    -0.830906171089872     2.130028457908602
    C                0.240703370141880     0.089363828910128    -2.323331542091399
    C               -1.248296629858120     0.240363828910128    -0.352331542091399
    N               -0.037296629858120     0.226363828910128    -0.887331542091399
    N               -2.316296629858120     0.113363828910128    -1.115331542091399
    N               -1.394296629858120     0.374363828910128     0.950668457908601
    H                0.757703370141880     0.300363828910128    -0.260331542091399
    H                1.174703370141880     0.606363828910128    -2.550331542091399
    H               -0.533296629858120     0.577363828910128    -2.918331542091399
    H               -2.209296629858120     0.018363828910128    -2.111331542091399
    H               -3.239296629858120     0.185363828910128    -0.718331542091399
    H               -0.584296629858120     0.486363828910128     1.539668457908601
    H               -2.315296629858120     0.413363828910128     1.360668457908601
    H                0.333593370141880    -0.960556171089872    -2.638021542091399

}
e, wfn = energy('scf', return_wfn=True)
gdma(wfn)
dmavals = variable('DMA DISTRIBUTED MULTIPOLES')
charges = np.array(dmavals)
print(charges)
np.save('SSI-044SER-093ARG-1-dimer.npy', np.array(charges))--------------------------------------------------------------------------

*** tstart() called on ds3
*** at Mon Apr 27 12:38:47 2020

   => Loading Basis Set <=

    Name: CC-PVDZ
    Role: ORBITAL
    Keyword: BASIS
    atoms 1, 7-8     entry C          line   138 file /theoryfs2/ds/metcalf/miniconda2/envs/tf2gpu/share/psi4/basis/cc-pvdz.gbs
    atoms 2          entry O          line   198 file /theoryfs2/ds/metcalf/miniconda2/envs/tf2gpu/share/psi4/basis/cc-pvdz.gbs
    atoms 3-6, 12-19 entry H          line    22 file /theoryfs2/ds/metcalf/miniconda2/envs/tf2gpu/share/psi4/basis/cc-pvdz.gbs
    atoms 9-11       entry N          line   168 file /theoryfs2/ds/metcalf/miniconda2/envs/tf2gpu/share/psi4/basis/cc-pvdz.gbs

         ---------------------------------------------------------
                                   SCF
               by Justin Turney, Rob Parrish, Andy Simmonett
                          and Daniel G. A. Smith
                              RHF Reference
                        1 Threads,    500 MiB Core
         ---------------------------------------------------------

  ==> Geometry <==

    Molecular point group: c1
    Full point group: C1

    Geometry (in Angstrom), charge = 1, multiplicity = 1:

       Center              X                  Y                   Z               Mass
    ------------   -----------------  -----------------  -----------------  -----------------
         C            2.568703370142    -1.046636171090     2.033668457909    12.000000000000
         O            1.889703370142     0.013363828910     1.380668457909    15.994914619570
         H            1.896703370142     0.758363828910     2.015668457909     1.007825032230
         H            2.430703370142    -1.970636171090     1.471668457909     1.007825032230
         H            2.140703370142    -1.181636171090     3.027668457909     1.007825032230
         H            3.643033370142    -0.830906171090     2.130028457909     1.007825032230
         C            0.240703370142     0.089363828910    -2.323331542091    12.000000000000
         C           -1.248296629858     0.240363828910    -0.352331542091    12.000000000000
         N           -0.037296629858     0.226363828910    -0.887331542091    14.003074004430
         N           -2.316296629858     0.113363828910    -1.115331542091    14.003074004430
         N           -1.394296629858     0.374363828910     0.950668457909    14.003074004430
         H            0.757703370142     0.300363828910    -0.260331542091     1.007825032230
         H            1.174703370142     0.606363828910    -2.550331542091     1.007825032230
         H           -0.533296629858     0.577363828910    -2.918331542091     1.007825032230
         H           -2.209296629858     0.018363828910    -2.111331542091     1.007825032230
         H           -3.239296629858     0.185363828910    -0.718331542091     1.007825032230
         H           -0.584296629858     0.486363828910     1.539668457909     1.007825032230
         H           -2.315296629858     0.413363828910     1.360668457909     1.007825032230
         H            0.333593370142    -0.960556171090    -2.638021542091     1.007825032230

  Running in c1 symmetry.

  Rotational constants: A =      0.11921  B =      0.03773  C =      0.03012 [cm^-1]
  Rotational constants: A =   3573.86561  B =   1131.26090  C =    903.11176 [MHz]
  Nuclear repulsion =  327.314225813439180

  Charge       = 1
  Multiplicity = 1
  Electrons    = 58
  Nalpha       = 29
  Nbeta        = 29

  ==> Algorithm <==

  SCF Algorithm Type is PK.
  DIIS enabled.
  MOM disabled.
  Fractional occupation disabled.
  Guess Type is SAD.
  Energy threshold   = 1.00e-06
  Density threshold  = 1.00e-10
  Integral threshold = 0.00e+00

  ==> Primary Basis <==

  Basis Set: CC-PVDZ
    Blend: CC-PVDZ
    Number of shells: 78
    Number of basis function: 158
    Number of Cartesian functions: 165
    Spherical Harmonics?: true
    Max angular momentum: 2

  ==> Pre-Iterations <==

   -------------------------------------------------------
    Irrep   Nso     Nmo     Nalpha   Nbeta   Ndocc  Nsocc
   -------------------------------------------------------
     A        158     158       0       0       0       0
   -------------------------------------------------------
    Total     158     158      29      29      29       0
   -------------------------------------------------------

  ==> Integral Setup <==

  Using integral reordering PK algorithm.
  Sizing the integral batches needed.
  Building batch lookup table.
   Calculation information:
      Number of atoms:                  19
      Number of AO shells:              78
      Number of primitives:            214
      Number of atomic orbitals:       165
      Number of basis functions:       158

      Integral cutoff                 1.00e-12
      Number of threads:                 1

	Batch   1 pq = [       0,    9405] index = [             0,44231715] size =     44231715
	Batch   2 pq = [    9405,   12561] index = [      44231715,78895641] size =     34663926
  Task number: 8
  Buffer size: 11059200
  Buffer per thread: 2
  We computed 4283396 shell quartets total.
  Whereas there are 4747821 unique shell quartets.

  ==> DiskJK: Disk-Based J/K Matrices <==

    J tasked:                  Yes
    K tasked:                  Yes
    wK tasked:                  No
    Memory [MiB]:              375
    Schwarz Cutoff:          1E-12

    OpenMP threads:              1

  Minimum eigenvalue in the overlap matrix is 3.9496485964E-03.
  Using Symmetric Orthogonalization.

  SCF Guess: Superposition of Atomic Densities via on-the-fly atomic UHF.

  ==> Iterations <==

                        Total Energy        Delta E     RMS |[F,P]|

   @RHF iter SAD:  -357.89668535256408   -3.57897e+02   0.00000e+00
   @RHF iter   1:  -358.47853910774830   -5.81854e-01   3.55954e-03 DIIS
   @RHF iter   2:  -358.62765301251665   -1.49114e-01   1.49562e-03 DIIS
   @RHF iter   3:  -358.65085113104550   -2.31981e-02   3.78619e-04 DIIS
   @RHF iter   4:  -358.65315839529609   -2.30726e-03   9.61244e-05 DIIS
   @RHF iter   5:  -358.65328591134113   -1.27516e-04   2.48216e-05 DIIS
   @RHF iter   6:  -358.65329907177187   -1.31604e-05   7.01096e-06 DIIS
   @RHF iter   7:  -358.65330023476736   -1.16300e-06   1.89618e-06 DIIS
   @RHF iter   8:  -358.65330033295481   -9.81875e-08   5.82279e-07 DIIS
   @RHF iter   9:  -358.65330034011549   -7.16068e-09   9.24829e-08 DIIS
   @RHF iter  10:  -358.65330034036515   -2.49656e-10   3.28486e-08 DIIS
   @RHF iter  11:  -358.65330034039164   -2.64890e-11   1.01944e-08 DIIS
   @RHF iter  12:  -358.65330034039323   -1.59162e-12   3.37601e-09 DIIS
   @RHF iter  13:  -358.65330034039403   -7.95808e-13   1.37015e-09 DIIS
   @RHF iter  14:  -358.65330034039488   -8.52651e-13   3.46274e-10 DIIS
   @RHF iter  15:  -358.65330034039334    1.53477e-12   1.10978e-10 DIIS
   @RHF iter  16:  -358.65330034039249    8.52651e-13   3.91173e-11 DIIS
  Energy and wave function converged.

  ==> Post-Iterations <==

    Orbital Energies [Eh]
    ---------------------

    Doubly Occupied:

       1A    -20.709201     2A    -15.774184     3A    -15.770837
       4A    -15.760541     5A    -11.571706     6A    -11.427607
       7A    -11.400703     8A     -1.528878     9A     -1.502567
      10A     -1.381797    11A     -1.377339    12A     -1.125139
      13A     -1.050121    14A     -1.021186    15A     -0.963023
      16A     -0.925772    17A     -0.845333    18A     -0.843550
      19A     -0.823828    20A     -0.807424    21A     -0.777469
      22A     -0.750639    23A     -0.732343    24A     -0.729226
      25A     -0.704317    26A     -0.635522    27A     -0.604327
      28A     -0.585952    29A     -0.565548

    Virtual:

      30A      0.006437    31A      0.035596    32A      0.043415
      33A      0.044827    34A      0.083032    35A      0.091434
      36A      0.097654    37A      0.129181    38A      0.132797
      39A      0.138452    40A      0.154693    41A      0.164592
      42A      0.178152    43A      0.221538    44A      0.254801
      45A      0.295937    46A      0.344127    47A      0.354219
      48A      0.452123    49A      0.468407    50A      0.502886
      51A      0.514639    52A      0.536936    53A      0.539116
      54A      0.546996    55A      0.558714    56A      0.569501
      57A      0.582784    58A      0.595644    59A      0.683320
      60A      0.692588    61A      0.698323    62A      0.714754
      63A      0.722519    64A      0.742635    65A      0.766804
      66A      0.772214    67A      0.780067    68A      0.787063
      69A      0.810379    70A      0.823614    71A      0.843492
      72A      0.899679    73A      0.908947    74A      0.938912
      75A      0.949477    76A      1.000423    77A      1.017497
      78A      1.033077    79A      1.054326    80A      1.069067
      81A      1.127790    82A      1.149506    83A      1.156942
      84A      1.197192    85A      1.208331    86A      1.219733
      87A      1.238723    88A      1.264818    89A      1.300987
      90A      1.397034    91A      1.426918    92A      1.440886
      93A      1.478650    94A      1.500853    95A      1.522568
      96A      1.549295    97A      1.555133    98A      1.566175
      99A      1.589232   100A      1.663065   101A      1.679154
     102A      1.715073   103A      1.732740   104A      1.740924
     105A      1.747076   106A      1.760030   107A      1.764585
     108A      1.786404   109A      1.806772   110A      1.814369
     111A      1.828970   112A      1.834983   113A      1.841134
     114A      1.874230   115A      1.905009   116A      1.913179
     117A      2.000791   118A      2.028451   119A      2.036250
     120A      2.073787   121A      2.152979   122A      2.165407
     123A      2.176698   124A      2.198239   125A      2.233660
     126A      2.248596   127A      2.268806   128A      2.272728
     129A      2.310958   130A      2.349089   131A      2.353970
     132A      2.370378   133A      2.421105   134A      2.452606
     135A      2.476085   136A      2.554011   137A      2.600576
     138A      2.610792   139A      2.632740   140A      2.641495
     141A      2.649090   142A      2.658297   143A      2.755983
     144A      2.766642   145A      2.800214   146A      2.829615
     147A      2.847811   148A      2.919671   149A      3.077453
     150A      3.109942   151A      3.148411   152A      3.153745
     153A      3.222189   154A      3.321973   155A      3.420924
     156A      3.599329   157A      3.667221   158A      3.922703

    Final Occupation by Irrep:
              A
    DOCC [    29 ]

  @RHF Final Energy:  -358.65330034039249

   => Energetics <=

    Nuclear Repulsion Energy =            327.3142258134391795
    One-Electron Energy =               -1126.5428957610174621
    Two-Electron Energy =                 440.5753696071857917
    Total Energy =                       -358.6533003403924909

Computation Completed

Properties will be evaluated at   0.000000,   0.000000,   0.000000 [a0]

Properties computed using the SCF density matrix

  Nuclear Dipole Moment: [e a0]
     X:     3.2970      Y:    -1.4999      Z:     0.3366

  Electronic Dipole Moment: [e a0]
     X:    -4.6846      Y:     1.8635      Z:    -0.2909

  Dipole Moment: [e a0]
     X:    -1.3876      Y:     0.3636      Z:     0.0456     Total:     1.4352

  Dipole Moment: [D]
     X:    -3.5269      Y:     0.9241      Z:     0.1160     Total:     3.6478

*** tstop() called on ds3 at Mon Apr 27 12:39:28 2020
Module time:
	user time   =      29.80 seconds =       0.50 minutes
	system time =      12.16 seconds =       0.20 minutes
	total time  =         41 seconds =       0.68 minutes
Total time:
	user time   =      29.80 seconds =       0.50 minutes
	system time =      12.16 seconds =       0.20 minutes
	total time  =         41 seconds =       0.68 minutes
                                     G D M A

                                 by Anthony Stone

                           version 2.2.06, 22 June 2011

               Distributed Multipoles from Gaussian wavefunctions

Starting at 12:39:28 on 27 Apr 2020

Using SCF density matrix from file ./SSI/SSI-044SER-093ARG-1-dimer.test.3605.fchk

                         Distributed Multipole Analysis

Standard DMA

Positions and radii in angstrom
Multipole moments in atomic units, ea_0^k for rank k

C          x =  2.568703  y = -1.046636  z =  2.033668 angstrom
           Maximum rank =  0   Radius =  0.650 angstrom
                   Q00  =  -0.072198

O          x =  1.889703  y =  0.013364  z =  1.380668 angstrom
           Maximum rank =  0   Radius =  0.650 angstrom
                   Q00  =  -0.631832

H          x =  1.896703  y =  0.758364  z =  2.015668 angstrom
           Maximum rank =  0   Radius =  0.325 angstrom
                   Q00  =   0.404024

H          x =  2.430703  y = -1.970636  z =  1.471668 angstrom
           Maximum rank =  0   Radius =  0.325 angstrom
                   Q00  =   0.129518

H          x =  2.140703  y = -1.181636  z =  3.027668 angstrom
           Maximum rank =  0   Radius =  0.325 angstrom
                   Q00  =   0.091620

H          x =  3.643033  y = -0.830906  z =  2.130028 angstrom
           Maximum rank =  0   Radius =  0.325 angstrom
                   Q00  =   0.107494

C          x =  0.240703  y =  0.089364  z = -2.323332 angstrom
           Maximum rank =  0   Radius =  0.650 angstrom
                   Q00  =  -0.122818

C          x = -1.248297  y =  0.240364  z = -0.352332 angstrom
           Maximum rank =  0   Radius =  0.650 angstrom
                   Q00  =   1.077729

N          x = -0.037297  y =  0.226364  z = -0.887332 angstrom
           Maximum rank =  0   Radius =  0.650 angstrom
                   Q00  =  -0.512461

N          x = -2.316297  y =  0.113364  z = -1.115332 angstrom
           Maximum rank =  0   Radius =  0.650 angstrom
                   Q00  =  -0.585982

N          x = -1.394297  y =  0.374364  z =  0.950668 angstrom
           Maximum rank =  0   Radius =  0.650 angstrom
                   Q00  =  -0.581424

H          x =  0.757703  y =  0.300364  z = -0.260332 angstrom
           Maximum rank =  0   Radius =  0.325 angstrom
                   Q00  =   0.265693

H          x =  1.174703  y =  0.606364  z = -2.550332 angstrom
           Maximum rank =  0   Radius =  0.325 angstrom
                   Q00  =   0.155743

H          x = -0.533297  y =  0.577364  z = -2.918332 angstrom
           Maximum rank =  0   Radius =  0.325 angstrom
                   Q00  =   0.103072

H          x = -2.209297  y =  0.018364  z = -2.111332 angstrom
           Maximum rank =  0   Radius =  0.325 angstrom
                   Q00  =   0.267092

H          x = -3.239297  y =  0.185364  z = -0.718332 angstrom
           Maximum rank =  0   Radius =  0.325 angstrom
                   Q00  =   0.261744

H          x = -0.584297  y =  0.486364  z =  1.539668 angstrom
           Maximum rank =  0   Radius =  0.325 angstrom
                   Q00  =   0.258894

H          x = -2.315297  y =  0.413364  z =  1.360668 angstrom
           Maximum rank =  0   Radius =  0.325 angstrom
                   Q00  =   0.258157

H          x =  0.333593  y = -0.960556  z = -2.638022 angstrom
           Maximum rank =  0   Radius =  0.325 angstrom
                   Q00  =   0.125933

Total multipoles referred to origin at
           x =   0.000000,  y =    0.000000,  z =    0.000000 angstrom
                   Q00  =   1.000000

Finished at 12:39:28 on 27 Apr 2020

  DMA results are available in the Python driver through the
	  variable('DMA DISTRIBUTED MULTIPOLES')
  and
	  variable('DMA TOTAL MULTIPOLES')
  commands.

    Psi4 stopped on: Monday, 27 April 2020 12:39PM
    Psi4 wall time for execution: 0:00:41.20

*** Psi4 exiting successfully. Buy a developer a beer!
