                               Psi4 1.3.2 release

  ==> Input File <==

--------------------------------------------------------------------------
import numpy as np
set {scf_type pk
basis cc-pvdz
d_convergence 10
gdma_switch   0
gdma_limit    0
gdma_origin   [ 0.0,  0.0,  0.0 ]
}
molecule test {
    units Angstrom
    -1 1
    --
    -1 1
    C               -0.708540119583934     1.967188268792824    -0.943112660949212
    C               -0.050540119583934     2.301188268792825     0.379887339050788
    C               -2.121540119583935     1.467188268792825    -0.802112660949212
    H               -0.707540119583934     2.854188268792825    -1.580112660949212
    H               -0.122540119583934     1.190188268792824    -1.439112660949212
    H               -0.276540119583934     1.512188268792824     1.096887339050788
    H               -0.459540119583934     3.231188268792824     0.769887339050788
    H               -2.103540119583934     0.562188268792824    -0.182112660949212
    H               -2.713540119583934     2.218188268792824    -0.268112660949212
    H                1.043699880416066     2.380328268792824     0.300031339050788
    H               -2.582042119583934     1.249708268792824    -1.777120660949213
    C                1.790459880416066    -1.676811731207176     1.287887339050787
    C                0.655459880416066    -1.409811731207176     0.282887339050788
    O               -0.519540119583934    -1.295811731207176     0.686887339050788
    O                0.948459880416066    -1.318811731207175    -0.934112660949212
    H                2.555459880416066    -0.908811731207176     1.162887339050788
    H                2.249459880416066    -2.637811731207175     1.049887339050787
    H                1.485300880416066    -1.696061731207176     2.344536339050788

}
e, wfn = energy('scf', return_wfn=True)
gdma(wfn)
dmavals = variable('DMA DISTRIBUTED MULTIPOLES')
charges = np.array(dmavals)
print(charges)
np.save('SSI-049LYS-158ASP-1-dimer.npy', np.array(charges))--------------------------------------------------------------------------

*** tstart() called on ds3
*** at Mon Apr 27 22:14:35 2020

   => Loading Basis Set <=

    Name: CC-PVDZ
    Role: ORBITAL
    Keyword: BASIS
    atoms 1-3, 12-13  entry C          line   138 file /theoryfs2/ds/metcalf/miniconda2/envs/tf2gpu/share/psi4/basis/cc-pvdz.gbs
    atoms 4-11, 16-18 entry H          line    22 file /theoryfs2/ds/metcalf/miniconda2/envs/tf2gpu/share/psi4/basis/cc-pvdz.gbs
    atoms 14-15       entry O          line   198 file /theoryfs2/ds/metcalf/miniconda2/envs/tf2gpu/share/psi4/basis/cc-pvdz.gbs

         ---------------------------------------------------------
                                   SCF
               by Justin Turney, Rob Parrish, Andy Simmonett
                          and Daniel G. A. Smith
                              RHF Reference
                        1 Threads,    500 MiB Core
         ---------------------------------------------------------

  ==> Geometry <==

    Molecular point group: c1
    Full point group: C1

    Geometry (in Angstrom), charge = -1, multiplicity = 1:

       Center              X                  Y                   Z               Mass
    ------------   -----------------  -----------------  -----------------  -----------------
         C           -0.708540119584     1.967188268793    -0.943112660949    12.000000000000
         C           -0.050540119584     2.301188268793     0.379887339051    12.000000000000
         C           -2.121540119584     1.467188268793    -0.802112660949    12.000000000000
         H           -0.707540119584     2.854188268793    -1.580112660949     1.007825032230
         H           -0.122540119584     1.190188268793    -1.439112660949     1.007825032230
         H           -0.276540119584     1.512188268793     1.096887339051     1.007825032230
         H           -0.459540119584     3.231188268793     0.769887339051     1.007825032230
         H           -2.103540119584     0.562188268793    -0.182112660949     1.007825032230
         H           -2.713540119584     2.218188268793    -0.268112660949     1.007825032230
         H            1.043699880416     2.380328268793     0.300031339051     1.007825032230
         H           -2.582042119584     1.249708268793    -1.777120660949     1.007825032230
         C            1.790459880416    -1.676811731207     1.287887339051    12.000000000000
         C            0.655459880416    -1.409811731207     0.282887339051    12.000000000000
         O           -0.519540119584    -1.295811731207     0.686887339051    15.994914619570
         O            0.948459880416    -1.318811731207    -0.934112660949    15.994914619570
         H            2.555459880416    -0.908811731207     1.162887339051     1.007825032230
         H            2.249459880416    -2.637811731207     1.049887339051     1.007825032230
         H            1.485300880416    -1.696061731207     2.344536339051     1.007825032230

  Running in c1 symmetry.

  Rotational constants: A =      0.12660  B =      0.03747  C =      0.03520 [cm^-1]
  Rotational constants: A =   3795.38662  B =   1123.26048  C =   1055.41030 [MHz]
  Nuclear repulsion =  299.308729565836984

  Charge       = -1
  Multiplicity = 1
  Electrons    = 58
  Nalpha       = 29
  Nbeta        = 29

  ==> Algorithm <==

  SCF Algorithm Type is PK.
  DIIS enabled.
  MOM disabled.
  Fractional occupation disabled.
  Guess Type is SAD.
  Energy threshold   = 1.00e-06
  Density threshold  = 1.00e-10
  Integral threshold = 0.00e+00

  ==> Primary Basis <==

  Basis Set: CC-PVDZ
    Blend: CC-PVDZ
    Number of shells: 75
    Number of basis function: 153
    Number of Cartesian functions: 160
    Spherical Harmonics?: true
    Max angular momentum: 2

  ==> Pre-Iterations <==

   -------------------------------------------------------
    Irrep   Nso     Nmo     Nalpha   Nbeta   Ndocc  Nsocc
   -------------------------------------------------------
     A        153     153       0       0       0       0
   -------------------------------------------------------
    Total     153     153      29      29      29       0
   -------------------------------------------------------

  ==> Integral Setup <==

  Using integral reordering PK algorithm.
  Sizing the integral batches needed.
  Building batch lookup table.
   Calculation information:
      Number of atoms:                  18
      Number of AO shells:              75
      Number of primitives:            209
      Number of atomic orbitals:       160
      Number of basis functions:       153

      Integral cutoff                 1.00e-12
      Number of threads:                 1

	Batch   1 pq = [       0,    9405] index = [             0,44231715] size =     44231715
	Batch   2 pq = [    9405,   11781] index = [      44231715,69401871] size =     25170156
  Task number: 7
  Buffer size: 11059200
  Buffer per thread: 2
  We computed 3741741 shell quartets total.
  Whereas there are 4062675 unique shell quartets.

  ==> DiskJK: Disk-Based J/K Matrices <==

    J tasked:                  Yes
    K tasked:                  Yes
    wK tasked:                  No
    Memory [MiB]:              375
    Schwarz Cutoff:          1E-12

    OpenMP threads:              1

  Minimum eigenvalue in the overlap matrix is 5.2355029400E-03.
  Using Symmetric Orthogonalization.

  SCF Guess: Superposition of Atomic Densities via on-the-fly atomic UHF.

  ==> Iterations <==

                        Total Energy        Delta E     RMS |[F,P]|

   @RHF iter SAD:  -343.88877057097193   -3.43889e+02   0.00000e+00
   @RHF iter   1:  -345.21413605362693   -1.32537e+00   5.01007e-03 DIIS
   @RHF iter   2:  -345.44435330122116   -2.30217e-01   2.81464e-03 DIIS
   @RHF iter   3:  -345.51462883272245   -7.02755e-02   4.25763e-04 DIIS
   @RHF iter   4:  -345.51758497358293   -2.95614e-03   1.62368e-04 DIIS
   @RHF iter   5:  -345.51800409643124   -4.19123e-04   2.42514e-05 DIIS
   @RHF iter   6:  -345.51801587716386   -1.17807e-05   6.45854e-06 DIIS
   @RHF iter   7:  -345.51801666120008   -7.84036e-07   1.56645e-06 DIIS
   @RHF iter   8:  -345.51801671182255   -5.06225e-08   4.63372e-07 DIIS
   @RHF iter   9:  -345.51801671563288   -3.81033e-09   2.09429e-07 DIIS
   @RHF iter  10:  -345.51801671638719   -7.54312e-10   6.60893e-08 DIIS
   @RHF iter  11:  -345.51801671652322   -1.36026e-10   2.01543e-08 DIIS
   @RHF iter  12:  -345.51801671654061   -1.73941e-11   7.30988e-09 DIIS
   @RHF iter  13:  -345.51801671654385   -3.24007e-12   2.49421e-09 DIIS
   @RHF iter  14:  -345.51801671654539   -1.53477e-12   8.27086e-10 DIIS
   @RHF iter  15:  -345.51801671654516    2.27374e-13   2.87810e-10 DIIS
   @RHF iter  16:  -345.51801671654545   -2.84217e-13   1.05063e-10 DIIS
   @RHF iter  17:  -345.51801671654482    6.25278e-13   4.57815e-11 DIIS
  Energy and wave function converged.

  ==> Post-Iterations <==

    Orbital Energies [Eh]
    ---------------------

    Doubly Occupied:

       1A    -20.267502     2A    -20.261527     3A    -11.123061
       4A    -11.079938     5A    -11.074737     6A    -11.073934
       7A    -11.057242     8A     -1.154275     9A     -1.038246
      10A     -0.918953    11A     -0.798719    12A     -0.787421
      13A     -0.655383    14A     -0.506090    15A     -0.486521
      16A     -0.462501    17A     -0.413354    18A     -0.411703
      19A     -0.410773    20A     -0.406629    21A     -0.388781
      22A     -0.347583    23A     -0.341707    24A     -0.329049
      25A     -0.320340    26A     -0.307370    27A     -0.188585
      28A     -0.175004    29A     -0.164403

    Virtual:

      30A      0.311714    31A      0.339498    32A      0.361707
      33A      0.368531    34A      0.376416    35A      0.396659
      36A      0.406946    37A      0.417637    38A      0.431181
      39A      0.446245    40A      0.470642    41A      0.485869
      42A      0.515521    43A      0.566303    44A      0.575812
      45A      0.681226    46A      0.708353    47A      0.721241
      48A      0.741404    49A      0.757085    50A      0.766795
      51A      0.797081    52A      0.820933    53A      0.882147
      54A      0.918162    55A      0.938539    56A      0.965067
      57A      0.975115    58A      1.001091    59A      1.012991
      60A      1.017956    61A      1.022043    62A      1.033886
      63A      1.040570    64A      1.048500    65A      1.051202
      66A      1.060173    67A      1.069439    68A      1.094301
      69A      1.106551    70A      1.125623    71A      1.134010
      72A      1.146536    73A      1.231627    74A      1.257877
      75A      1.272011    76A      1.328344    77A      1.350219
      78A      1.365057    79A      1.435484    80A      1.506949
      81A      1.550315    82A      1.563684    83A      1.581426
      84A      1.598891    85A      1.620843    86A      1.646815
      87A      1.672822    88A      1.695919    89A      1.717153
      90A      1.728907    91A      1.762504    92A      1.810935
      93A      1.828499    94A      1.840841    95A      1.843341
      96A      1.868327    97A      1.988844    98A      2.013176
      99A      2.020323   100A      2.029286   101A      2.062691
     102A      2.073557   103A      2.079231   104A      2.095168
     105A      2.105011   106A      2.108572   107A      2.123199
     108A      2.126400   109A      2.141203   110A      2.145287
     111A      2.173583   112A      2.192287   113A      2.227629
     114A      2.263975   115A      2.276139   116A      2.298155
     117A      2.329200   118A      2.423229   119A      2.429446
     120A      2.446375   121A      2.458241   122A      2.469872
     123A      2.493218   124A      2.591707   125A      2.632481
     126A      2.639789   127A      2.679265   128A      2.718816
     129A      2.727985   130A      2.755395   131A      2.783948
     132A      2.790892   133A      2.889139   134A      2.907402
     135A      2.921015   136A      2.933344   137A      2.956725
     138A      2.967728   139A      2.988456   140A      3.070583
     141A      3.106299   142A      3.118175   143A      3.211624
     144A      3.243867   145A      3.275960   146A      3.293583
     147A      3.357665   148A      3.638747   149A      3.772038
     150A      3.816188   151A      4.067760   152A      4.077476
     153A      4.197175

    Final Occupation by Irrep:
              A
    DOCC [    29 ]

  @RHF Final Energy:  -345.51801671654482

   => Energetics <=

    Nuclear Repulsion Energy =            299.3087295658369840
    One-Electron Energy =               -1075.7508287047483009
    Two-Electron Energy =                 430.9240824223664958
    Total Energy =                       -345.5180167165448211

Computation Completed

Properties will be evaluated at   0.000000,   0.000000,   0.000000 [a0]

Properties computed using the SCF density matrix

  Nuclear Dipole Moment: [e a0]
     X:    -1.5273      Y:     9.3204      Z:     1.3840

  Electronic Dipole Moment: [e a0]
     X:     1.5593      Y:    -7.6034      Z:    -0.9033

  Dipole Moment: [e a0]
     X:     0.0320      Y:     1.7170      Z:     0.4807     Total:     1.7833

  Dipole Moment: [D]
     X:     0.0814      Y:     4.3642      Z:     1.2219     Total:     4.5328

*** tstop() called on ds3 at Mon Apr 27 22:15:10 2020
Module time:
	user time   =      25.73 seconds =       0.43 minutes
	system time =      10.55 seconds =       0.18 minutes
	total time  =         35 seconds =       0.58 minutes
Total time:
	user time   =      25.73 seconds =       0.43 minutes
	system time =      10.55 seconds =       0.18 minutes
	total time  =         35 seconds =       0.58 minutes
                                     G D M A

                                 by Anthony Stone

                           version 2.2.06, 22 June 2011

               Distributed Multipoles from Gaussian wavefunctions

Starting at 22:15:11 on 27 Apr 2020

Using SCF density matrix from file ./SSI/SSI-049LYS-158ASP-1-dimer.test.3701.fchk

                         Distributed Multipole Analysis

Standard DMA

Positions and radii in angstrom
Multipole moments in atomic units, ea_0^k for rank k

C          x = -0.708540  y =  1.967188  z = -0.943113 angstrom
           Maximum rank =  0   Radius =  0.650 angstrom
                   Q00  =  -0.065642

C          x = -0.050540  y =  2.301188  z =  0.379887 angstrom
           Maximum rank =  0   Radius =  0.650 angstrom
                   Q00  =  -0.204694

C          x = -2.121540  y =  1.467188  z = -0.802113 angstrom
           Maximum rank =  0   Radius =  0.650 angstrom
                   Q00  =  -0.205040

H          x = -0.707540  y =  2.854188  z = -1.580113 angstrom
           Maximum rank =  0   Radius =  0.325 angstrom
                   Q00  =  -0.021691

H          x = -0.122540  y =  1.190188  z = -1.439113 angstrom
           Maximum rank =  0   Radius =  0.325 angstrom
                   Q00  =   0.089389

H          x = -0.276540  y =  1.512188  z =  1.096887 angstrom
           Maximum rank =  0   Radius =  0.325 angstrom
                   Q00  =   0.094542

H          x = -0.459540  y =  3.231188  z =  0.769887 angstrom
           Maximum rank =  0   Radius =  0.325 angstrom
                   Q00  =   0.024860

H          x = -2.103540  y =  0.562188  z = -0.182113 angstrom
           Maximum rank =  0   Radius =  0.325 angstrom
                   Q00  =   0.123552

H          x = -2.713540  y =  2.218188  z = -0.268113 angstrom
           Maximum rank =  0   Radius =  0.325 angstrom
                   Q00  =   0.017001

H          x =  1.043700  y =  2.380328  z =  0.300031 angstrom
           Maximum rank =  0   Radius =  0.325 angstrom
                   Q00  =   0.069367

H          x = -2.582042  y =  1.249708  z = -1.777121 angstrom
           Maximum rank =  0   Radius =  0.325 angstrom
                   Q00  =   0.058566

C          x =  1.790460  y = -1.676812  z =  1.287887 angstrom
           Maximum rank =  0   Radius =  0.650 angstrom
                   Q00  =  -0.280033

C          x =  0.655460  y = -1.409812  z =  0.282887 angstrom
           Maximum rank =  0   Radius =  0.650 angstrom
                   Q00  =   0.954270

O          x = -0.519540  y = -1.295812  z =  0.686887 angstrom
           Maximum rank =  0   Radius =  0.650 angstrom
                   Q00  =  -0.915532

O          x =  0.948460  y = -1.318812  z = -0.934113 angstrom
           Maximum rank =  0   Radius =  0.650 angstrom
                   Q00  =  -0.930482

H          x =  2.555460  y = -0.908812  z =  1.162887 angstrom
           Maximum rank =  0   Radius =  0.325 angstrom
                   Q00  =   0.068174

H          x =  2.249460  y = -2.637812  z =  1.049887 angstrom
           Maximum rank =  0   Radius =  0.325 angstrom
                   Q00  =   0.072812

H          x =  1.485301  y = -1.696062  z =  2.344536 angstrom
           Maximum rank =  0   Radius =  0.325 angstrom
                   Q00  =   0.050580

Total multipoles referred to origin at
           x =   0.000000,  y =    0.000000,  z =    0.000000 angstrom
                   Q00  =  -1.000000

Finished at 22:15:11 on 27 Apr 2020

  DMA results are available in the Python driver through the
	  variable('DMA DISTRIBUTED MULTIPOLES')
  and
	  variable('DMA TOTAL MULTIPOLES')
  commands.

    Psi4 stopped on: Monday, 27 April 2020 10:15PM
    Psi4 wall time for execution: 0:00:35.71

*** Psi4 exiting successfully. Buy a developer a beer!
