                               Psi4 1.3.2 release

  ==> Input File <==

--------------------------------------------------------------------------
import numpy as np
set {scf_type pk
basis cc-pvdz
d_convergence 10
gdma_switch   0
gdma_limit    0
gdma_origin   [ 0.0,  0.0,  0.0 ]
}
molecule test {
    units Angstrom
    0 1
    --
    0 1
    C               -1.650161224829806     2.216949097611513    -1.862954718890660
    C               -1.200161224829806    -1.236050902388487    -0.314954718890660
    C               -1.004161224829806    -0.920050902388487     1.024045281109339
    C               -1.407161224829806    -0.220050902388487    -1.243954718890661
    C               -1.414161224829806     1.117949097611513    -0.847954718890660
    C               -1.015161224829806     0.411949097611513     1.431045281109339
    C               -1.231161224829806     1.420949097611513     0.501045281109340
    H               -1.195161224829806    -2.269050902388487    -0.635954718890660
    H               -0.840161224829806    -1.706050902388487     1.749045281109340
    H               -1.552161224829806    -0.475050902388487    -2.284954718890660
    H               -0.868161224829806     0.658949097611513     2.474045281109340
    H               -2.628161224829806     2.646949097611513    -1.675954718890660
    H               -1.678161224829806     1.779949097611513    -2.862954718890660
    H               -1.269161224829806     2.444949097611512     0.831045281109340
    H               -0.890901224829806     3.012809097611513    -1.851472718890661
    C                2.574838775170194    -0.667050902388487    -0.074954718890660
    C                2.835838775170194     0.166949097611513     1.196045281109340
    C                2.643838775170194    -2.177050902388487     0.202045281109340
    H                1.553838775170194    -0.438050902388487    -0.379954718890660
    H                3.179838775170194    -0.404050902388487    -0.929954718890661
    H                2.030838775170194    -0.064050902388487     1.898045281109340
    H                3.664838775170194    -2.481050902388487     0.438045281109340
    H                2.015838775170194    -2.386050902388487     1.071045281109340
    H                2.783238775170194     1.245209097611513     0.984901281109339
    H                3.760448775170194    -0.151070902388487     1.699987781109340
    H                2.263658775170194    -2.777560902388487    -0.637512718890660

}
e, wfn = energy('scf', return_wfn=True)
gdma(wfn)
dmavals = variable('DMA DISTRIBUTED MULTIPOLES')
charges = np.array(dmavals)
print(charges)
np.save('SSI-095PHE-099LYS-2-dimer.npy', np.array(charges))--------------------------------------------------------------------------

*** tstart() called on ds3
*** at Mon Apr 27 18:09:34 2020

   => Loading Basis Set <=

    Name: CC-PVDZ
    Role: ORBITAL
    Keyword: BASIS
    atoms 1-7, 16-18  entry C          line   138 file /theoryfs2/ds/metcalf/miniconda2/envs/tf2gpu/share/psi4/basis/cc-pvdz.gbs
    atoms 8-15, 19-26 entry H          line    22 file /theoryfs2/ds/metcalf/miniconda2/envs/tf2gpu/share/psi4/basis/cc-pvdz.gbs

         ---------------------------------------------------------
                                   SCF
               by Justin Turney, Rob Parrish, Andy Simmonett
                          and Daniel G. A. Smith
                              RHF Reference
                        1 Threads,    500 MiB Core
         ---------------------------------------------------------

  ==> Geometry <==

    Molecular point group: c1
    Full point group: C1

    Geometry (in Angstrom), charge = 0, multiplicity = 1:

       Center              X                  Y                   Z               Mass
    ------------   -----------------  -----------------  -----------------  -----------------
         C           -1.650161224830     2.216949097612    -1.862954718891    12.000000000000
         C           -1.200161224830    -1.236050902388    -0.314954718891    12.000000000000
         C           -1.004161224830    -0.920050902388     1.024045281109    12.000000000000
         C           -1.407161224830    -0.220050902388    -1.243954718891    12.000000000000
         C           -1.414161224830     1.117949097612    -0.847954718891    12.000000000000
         C           -1.015161224830     0.411949097612     1.431045281109    12.000000000000
         C           -1.231161224830     1.420949097612     0.501045281109    12.000000000000
         H           -1.195161224830    -2.269050902388    -0.635954718891     1.007825032230
         H           -0.840161224830    -1.706050902388     1.749045281109     1.007825032230
         H           -1.552161224830    -0.475050902388    -2.284954718891     1.007825032230
         H           -0.868161224830     0.658949097612     2.474045281109     1.007825032230
         H           -2.628161224830     2.646949097612    -1.675954718891     1.007825032230
         H           -1.678161224830     1.779949097612    -2.862954718891     1.007825032230
         H           -1.269161224830     2.444949097612     0.831045281109     1.007825032230
         H           -0.890901224830     3.012809097612    -1.851472718891     1.007825032230
         C            2.574838775170    -0.667050902388    -0.074954718891    12.000000000000
         C            2.835838775170     0.166949097612     1.196045281109    12.000000000000
         C            2.643838775170    -2.177050902388     0.202045281109    12.000000000000
         H            1.553838775170    -0.438050902388    -0.379954718891     1.007825032230
         H            3.179838775170    -0.404050902388    -0.929954718891     1.007825032230
         H            2.030838775170    -0.064050902388     1.898045281109     1.007825032230
         H            3.664838775170    -2.481050902388     0.438045281109     1.007825032230
         H            2.015838775170    -2.386050902388     1.071045281109     1.007825032230
         H            2.783238775170     1.245209097612     0.984901281109     1.007825032230
         H            3.760448775170    -0.151070902388     1.699987781109     1.007825032230
         H            2.263658775170    -2.777560902388    -0.637512718891     1.007825032230

  Running in c1 symmetry.

  Rotational constants: A =      0.05814  B =      0.02286  C =      0.02207 [cm^-1]
  Rotational constants: A =   1743.07893  B =    685.20074  C =    661.67144 [MHz]
  Nuclear repulsion =  501.610934731768282

  Charge       = 0
  Multiplicity = 1
  Electrons    = 76
  Nalpha       = 38
  Nbeta        = 38

  ==> Algorithm <==

  SCF Algorithm Type is PK.
  DIIS enabled.
  MOM disabled.
  Fractional occupation disabled.
  Guess Type is SAD.
  Energy threshold   = 1.00e-06
  Density threshold  = 1.00e-10
  Integral threshold = 0.00e+00

  ==> Primary Basis <==

  Basis Set: CC-PVDZ
    Blend: CC-PVDZ
    Number of shells: 108
    Number of basis function: 220
    Number of Cartesian functions: 230
    Spherical Harmonics?: true
    Max angular momentum: 2

  ==> Pre-Iterations <==

   -------------------------------------------------------
    Irrep   Nso     Nmo     Nalpha   Nbeta   Ndocc  Nsocc
   -------------------------------------------------------
     A        220     220       0       0       0       0
   -------------------------------------------------------
    Total     220     220      38      38      38       0
   -------------------------------------------------------

  ==> Integral Setup <==

  Using integral reordering PK algorithm.
  Sizing the integral batches needed.
  Building batch lookup table.
   Calculation information:
      Number of atoms:                  26
      Number of AO shells:             108
      Number of primitives:            300
      Number of atomic orbitals:       230
      Number of basis functions:       220

      Integral cutoff                 1.00e-12
      Number of threads:                 1

	Batch   1 pq = [       0,    9405] index = [             0,44231715] size =     44231715
	Batch   2 pq = [    9405,   13301] index = [      44231715,88464951] size =     44233236
	Batch   3 pq = [   13301,   16290] index = [      88464951,132690195] size =     44225244
	Batch   4 pq = [   16290,   18810] index = [     132690195,176917455] size =     44227260
	Batch   5 pq = [   18810,   21030] index = [     176917455,221140965] size =     44223510
	Batch   6 pq = [   21030,   23037] index = [     221140965,265363203] size =     44222238
	Batch   7 pq = [   23037,   24310] index = [     265363203,295500205] size =     30137002
  Task number: 27
  Buffer size: 11059200
  Buffer per thread: 2
  We computed 17240969 shell quartets total.
  Whereas there are 17325441 unique shell quartets.

  ==> DiskJK: Disk-Based J/K Matrices <==

    J tasked:                  Yes
    K tasked:                  Yes
    wK tasked:                  No
    Memory [MiB]:              375
    Schwarz Cutoff:          1E-12

    OpenMP threads:              1

  Minimum eigenvalue in the overlap matrix is 3.0941012133E-04.
  Using Symmetric Orthogonalization.

  SCF Guess: Superposition of Atomic Densities via on-the-fly atomic UHF.

  ==> Iterations <==

                        Total Energy        Delta E     RMS |[F,P]|

   @RHF iter SAD:  -386.84465329207177   -3.86845e+02   0.00000e+00
   @RHF iter   1:  -387.77287489788370   -9.28222e-01   2.73799e-03 DIIS
   @RHF iter   2:  -387.98939641018421   -2.16522e-01   1.15675e-03 DIIS
   @RHF iter   3:  -388.02452390818542   -3.51275e-02   2.49036e-04 DIIS
   @RHF iter   4:  -388.02738708108240   -2.86317e-03   4.83209e-05 DIIS
   @RHF iter   5:  -388.02746743055951   -8.03495e-05   1.36583e-05 DIIS
   @RHF iter   6:  -388.02747383602730   -6.40547e-06   3.68849e-06 DIIS
   @RHF iter   7:  -388.02747432400332   -4.87976e-07   1.29301e-06 DIIS
   @RHF iter   8:  -388.02747439220104   -6.81977e-08   3.20787e-07 DIIS
   @RHF iter   9:  -388.02747440339232   -1.11913e-08   1.46980e-07 DIIS
   @RHF iter  10:  -388.02747440634101   -2.94870e-09   7.08181e-08 DIIS
   @RHF iter  11:  -388.02747440724164   -9.00627e-10   2.39808e-08 DIIS
   @RHF iter  12:  -388.02747440733401   -9.23706e-11   8.09378e-09 DIIS
   @RHF iter  13:  -388.02747440734191   -7.90124e-12   3.26707e-09 DIIS
   @RHF iter  14:  -388.02747440734197   -5.68434e-14   8.75729e-10 DIIS
   @RHF iter  15:  -388.02747440733879    3.18323e-12   3.04586e-10 DIIS
   @RHF iter  16:  -388.02747440734083   -2.04636e-12   9.64535e-11 DIIS
  Energy and wave function converged.

  ==> Post-Iterations <==

    Orbital Energies [Eh]
    ---------------------

    Doubly Occupied:

       1A    -11.243797     2A    -11.237272     3A    -11.236721
       4A    -11.232622     5A    -11.232379     6A    -11.231581
       7A    -11.231246     8A    -11.211095     9A    -11.210488
      10A    -11.208332    11A     -1.154466    12A     -1.045011
      13A     -1.040465    14A     -1.013872    15A     -0.932987
      16A     -0.913797    17A     -0.825979    18A     -0.797811
      19A     -0.791839    20A     -0.692821    21A     -0.632677
      22A     -0.630689    23A     -0.611864    24A     -0.589033
      25A     -0.584483    26A     -0.578242    27A     -0.563908
      28A     -0.540546    29A     -0.536258    30A     -0.517939
      31A     -0.490825    32A     -0.485865    33A     -0.482821
      34A     -0.467280    35A     -0.464343    36A     -0.450045
      37A     -0.334196    38A     -0.323620

    Virtual:

      39A      0.132687    40A      0.139632    41A      0.172080
      42A      0.193248    43A      0.206504    44A      0.209676
      45A      0.229690    46A      0.239471    47A      0.249480
      48A      0.257539    49A      0.260572    50A      0.270093
      51A      0.270778    52A      0.286586    53A      0.297651
      54A      0.303766    55A      0.315697    56A      0.327871
      57A      0.369038    58A      0.375079    59A      0.380372
      60A      0.428627    61A      0.452481    62A      0.463072
      63A      0.472380    64A      0.499770    65A      0.564224
      66A      0.579677    67A      0.589268    68A      0.595150
      69A      0.612816    70A      0.623253    71A      0.625065
      72A      0.643529    73A      0.678277    74A      0.693942
      75A      0.704794    76A      0.735624    77A      0.738304
      78A      0.747022    79A      0.754332    80A      0.760915
      81A      0.777813    82A      0.792416    83A      0.806356
      84A      0.814075    85A      0.840815    86A      0.849240
      87A      0.855014    88A      0.859466    89A      0.861557
      90A      0.874903    91A      0.881371    92A      0.883509
      93A      0.894609    94A      0.897417    95A      0.905874
      96A      0.911684    97A      0.922551    98A      0.923044
      99A      0.932054   100A      0.941302   101A      0.949498
     102A      0.951856   103A      0.984497   104A      0.997741
     105A      0.998421   106A      1.004560   107A      1.048992
     108A      1.107894   109A      1.121576   110A      1.132572
     111A      1.136494   112A      1.147113   113A      1.156450
     114A      1.165381   115A      1.202109   116A      1.218907
     117A      1.234008   118A      1.248758   119A      1.255173
     120A      1.291331   121A      1.295196   122A      1.311481
     123A      1.317659   124A      1.326367   125A      1.366442
     126A      1.415717   127A      1.466310   128A      1.481155
     129A      1.511027   130A      1.523427   131A      1.551801
     132A      1.558261   133A      1.601235   134A      1.637618
     135A      1.670723   136A      1.678020   137A      1.685432
     138A      1.691255   139A      1.719880   140A      1.737242
     141A      1.748769   142A      1.781190   143A      1.796659
     144A      1.829060   145A      1.848542   146A      1.856398
     147A      1.865227   148A      1.880731   149A      1.893562
     150A      1.895872   151A      1.904804   152A      1.917206
     153A      1.924829   154A      1.942272   155A      1.943714
     156A      1.953606   157A      1.954743   158A      1.959499
     159A      1.968532   160A      1.974369   161A      1.977009
     162A      1.990770   163A      2.000072   164A      2.003016
     165A      2.014155   166A      2.027555   167A      2.041118
     168A      2.059475   169A      2.080224   170A      2.094042
     171A      2.112621   172A      2.127290   173A      2.134071
     174A      2.155652   175A      2.168223   176A      2.172884
     177A      2.180095   178A      2.196074   179A      2.253104
     180A      2.260366   181A      2.286316   182A      2.292859
     183A      2.298424   184A      2.312336   185A      2.330628
     186A      2.342117   187A      2.348569   188A      2.354384
     189A      2.439978   190A      2.472267   191A      2.498508
     192A      2.510397   193A      2.534785   194A      2.539929
     195A      2.597707   196A      2.620578   197A      2.632054
     198A      2.633867   199A      2.731016   200A      2.749973
     201A      2.755203   202A      2.769468   203A      2.783692
     204A      2.793444   205A      2.803466   206A      2.808919
     207A      2.828585   208A      2.849950   209A      2.864542
     210A      2.947151   211A      2.966481   212A      2.979755
     213A      2.983676   214A      3.014533   215A      3.034367
     216A      3.102261   217A      3.159240   218A      3.198828
     219A      3.300312   220A      3.965925

    Final Occupation by Irrep:
              A
    DOCC [    38 ]

  @RHF Final Energy:  -388.02747440734083

   => Energetics <=

    Nuclear Repulsion Energy =            501.6109347317682818
    One-Electron Energy =               -1517.7383887966075235
    Two-Electron Energy =                 628.0999796574983520
    Total Energy =                       -388.0274744073408328

Computation Completed

Properties will be evaluated at   0.000000,   0.000000,   0.000000 [a0]

Properties computed using the SCF density matrix

  Nuclear Dipole Moment: [e a0]
     X:     9.6845      Y:    -1.2780      Z:    -0.1055

  Electronic Dipole Moment: [e a0]
     X:    -9.8773      Y:     1.4331      Z:    -0.0186

  Dipole Moment: [e a0]
     X:    -0.1928      Y:     0.1551      Z:    -0.1241     Total:     0.2768

  Dipole Moment: [D]
     X:    -0.4900      Y:     0.3943      Z:    -0.3155     Total:     0.7037

*** tstop() called on ds3 at Mon Apr 27 18:12:57 2020
Module time:
	user time   =     120.66 seconds =       2.01 minutes
	system time =      40.39 seconds =       0.67 minutes
	total time  =        203 seconds =       3.38 minutes
Total time:
	user time   =     120.66 seconds =       2.01 minutes
	system time =      40.39 seconds =       0.67 minutes
	total time  =        203 seconds =       3.38 minutes
                                     G D M A

                                 by Anthony Stone

                           version 2.2.06, 22 June 2011

               Distributed Multipoles from Gaussian wavefunctions

Starting at 18:12:57 on 27 Apr 2020

Using SCF density matrix from file ./SSI/SSI-095PHE-099LYS-2-dimer.test.18918.fchk

                         Distributed Multipole Analysis

Standard DMA

Positions and radii in angstrom
Multipole moments in atomic units, ea_0^k for rank k

C          x = -1.650161  y =  2.216949  z = -1.862955 angstrom
           Maximum rank =  0   Radius =  0.650 angstrom
                   Q00  =  -0.208787

C          x = -1.200161  y = -1.236051  z = -0.314955 angstrom
           Maximum rank =  0   Radius =  0.650 angstrom
                   Q00  =  -0.068020

C          x = -1.004161  y = -0.920051  z =  1.024045 angstrom
           Maximum rank =  0   Radius =  0.650 angstrom
                   Q00  =  -0.090761

C          x = -1.407161  y = -0.220051  z = -1.243955 angstrom
           Maximum rank =  0   Radius =  0.650 angstrom
                   Q00  =  -0.014385

C          x = -1.414161  y =  1.117949  z = -0.847955 angstrom
           Maximum rank =  0   Radius =  0.650 angstrom
                   Q00  =  -0.097743

C          x = -1.015161  y =  0.411949  z =  1.431045 angstrom
           Maximum rank =  0   Radius =  0.650 angstrom
                   Q00  =  -0.075796

C          x = -1.231161  y =  1.420949  z =  0.501045 angstrom
           Maximum rank =  0   Radius =  0.650 angstrom
                   Q00  =  -0.055754

H          x = -1.195161  y = -2.269051  z = -0.635955 angstrom
           Maximum rank =  0   Radius =  0.325 angstrom
                   Q00  =   0.066698

H          x = -0.840161  y = -1.706051  z =  1.749045 angstrom
           Maximum rank =  0   Radius =  0.325 angstrom
                   Q00  =   0.062484

H          x = -1.552161  y = -0.475051  z = -2.284955 angstrom
           Maximum rank =  0   Radius =  0.325 angstrom
                   Q00  =   0.059001

H          x = -0.868161  y =  0.658949  z =  2.474045 angstrom
           Maximum rank =  0   Radius =  0.325 angstrom
                   Q00  =   0.065611

H          x = -2.628161  y =  2.646949  z = -1.675955 angstrom
           Maximum rank =  0   Radius =  0.325 angstrom
                   Q00  =   0.104959

H          x = -1.678161  y =  1.779949  z = -2.862955 angstrom
           Maximum rank =  0   Radius =  0.325 angstrom
                   Q00  =   0.097270

H          x = -1.269161  y =  2.444949  z =  0.831045 angstrom
           Maximum rank =  0   Radius =  0.325 angstrom
                   Q00  =   0.055682

H          x = -0.890901  y =  3.012809  z = -1.851473 angstrom
           Maximum rank =  0   Radius =  0.325 angstrom
                   Q00  =   0.103769

C          x =  2.574839  y = -0.667051  z = -0.074955 angstrom
           Maximum rank =  0   Radius =  0.650 angstrom
                   Q00  =  -0.103470

C          x =  2.835839  y =  0.166949  z =  1.196045 angstrom
           Maximum rank =  0   Radius =  0.650 angstrom
                   Q00  =  -0.211363

C          x =  2.643839  y = -2.177051  z =  0.202045 angstrom
           Maximum rank =  0   Radius =  0.650 angstrom
                   Q00  =  -0.234070

H          x =  1.553839  y = -0.438051  z = -0.379955 angstrom
           Maximum rank =  0   Radius =  0.325 angstrom
                   Q00  =   0.060119

H          x =  3.179839  y = -0.404051  z = -0.929955 angstrom
           Maximum rank =  0   Radius =  0.325 angstrom
                   Q00  =   0.050229

H          x =  2.030839  y = -0.064051  z =  1.898045 angstrom
           Maximum rank =  0   Radius =  0.325 angstrom
                   Q00  =   0.075823

H          x =  3.664839  y = -2.481051  z =  0.438045 angstrom
           Maximum rank =  0   Radius =  0.325 angstrom
                   Q00  =   0.074371

H          x =  2.015839  y = -2.386051  z =  1.071045 angstrom
           Maximum rank =  0   Radius =  0.325 angstrom
                   Q00  =   0.070381

H          x =  2.783239  y =  1.245209  z =  0.984901 angstrom
           Maximum rank =  0   Radius =  0.325 angstrom
                   Q00  =   0.074524

H          x =  3.760449  y = -0.151071  z =  1.699988 angstrom
           Maximum rank =  0   Radius =  0.325 angstrom
                   Q00  =   0.057383

H          x =  2.263659  y = -2.777561  z = -0.637513 angstrom
           Maximum rank =  0   Radius =  0.325 angstrom
                   Q00  =   0.081845

Total multipoles referred to origin at
           x =   0.000000,  y =    0.000000,  z =    0.000000 angstrom
                   Q00  =  -0.000000

Finished at 18:12:57 on 27 Apr 2020

  DMA results are available in the Python driver through the
	  variable('DMA DISTRIBUTED MULTIPOLES')
  and
	  variable('DMA TOTAL MULTIPOLES')
  commands.

    Psi4 stopped on: Monday, 27 April 2020 06:12PM
    Psi4 wall time for execution: 0:03:22.66

*** Psi4 exiting successfully. Buy a developer a beer!
