                               Psi4 1.3.2 release

  ==> Input File <==

--------------------------------------------------------------------------
import numpy as np
set {scf_type pk
basis cc-pvdz
d_convergence 10
gdma_switch   0
gdma_limit    0
gdma_origin   [ 0.0,  0.0,  0.0 ]
}
molecule test {
    units Angstrom
    0 1
    --
    0 1
    C                0.791290679906794    -2.402139309293553    -0.137445020426030
    C                0.018290679906794    -1.269139309293553     0.453554979573970
    C               -1.369709320093206    -1.172139309293553     0.338554979573970
    C                0.743290679906794    -0.299139309293553     1.152554979573970
    C               -2.060709320093205    -0.088139309293553     0.938554979573970
    C                0.101290679906794     0.775860690706447     1.749554979573970
    C               -1.284709320093206     0.897860690706447     1.620554979573970
    H                1.632290679906794    -2.619139309293553     0.522554979573970
    H                1.186290679906794    -2.076139309293553    -1.100445020426030
    H               -1.944709320093206    -1.914139309293553    -0.193445020426030
    H                1.811290679906794    -0.387139309293553     1.258554979573970
    H               -3.136709320093206    -0.003139309293553     0.881554979573970
    H                0.667290679906794     1.515860690706447     2.299554979573970
    H               -1.782709320093205     1.733860690706447     2.087554979573969
    H                0.222430679906794    -3.332689309293553    -0.280551020426030
    C                1.315290679906794     1.162860690706447    -2.066445020426031
    C                1.218290679906794     2.159860690706447    -3.191445020426031
    H                0.379290679906794     0.609860690706447    -1.979445020426030
    H                2.120290679906794     0.454860690706447    -2.261445020426030
    H                1.511290679906794     1.671860690706447    -1.120445020426030
    H                1.047290679906794     1.629860690706447    -4.125445020426030
    H                0.375780679906794     2.831870690706447    -2.971010020426030
    H                2.190060679906794     2.673570690706447    -3.233541020426030

}
e, wfn = energy('scf', return_wfn=True)
gdma(wfn)
dmavals = variable('DMA DISTRIBUTED MULTIPOLES')
charges = np.array(dmavals)
print(charges)
np.save('SSI-198PHE-287LEU-1-dimer.npy', np.array(charges))--------------------------------------------------------------------------

*** tstart() called on ds3
*** at Mon Apr 27 21:57:24 2020

   => Loading Basis Set <=

    Name: CC-PVDZ
    Role: ORBITAL
    Keyword: BASIS
    atoms 1-7, 16-17  entry C          line   138 file /theoryfs2/ds/metcalf/miniconda2/envs/tf2gpu/share/psi4/basis/cc-pvdz.gbs
    atoms 8-15, 18-23 entry H          line    22 file /theoryfs2/ds/metcalf/miniconda2/envs/tf2gpu/share/psi4/basis/cc-pvdz.gbs

         ---------------------------------------------------------
                                   SCF
               by Justin Turney, Rob Parrish, Andy Simmonett
                          and Daniel G. A. Smith
                              RHF Reference
                        1 Threads,    500 MiB Core
         ---------------------------------------------------------

  ==> Geometry <==

    Molecular point group: c1
    Full point group: C1

    Geometry (in Angstrom), charge = 0, multiplicity = 1:

       Center              X                  Y                   Z               Mass
    ------------   -----------------  -----------------  -----------------  -----------------
         C            0.791290679907    -2.402139309294    -0.137445020426    12.000000000000
         C            0.018290679907    -1.269139309294     0.453554979574    12.000000000000
         C           -1.369709320093    -1.172139309294     0.338554979574    12.000000000000
         C            0.743290679907    -0.299139309294     1.152554979574    12.000000000000
         C           -2.060709320093    -0.088139309294     0.938554979574    12.000000000000
         C            0.101290679907     0.775860690706     1.749554979574    12.000000000000
         C           -1.284709320093     0.897860690706     1.620554979574    12.000000000000
         H            1.632290679907    -2.619139309294     0.522554979574     1.007825032230
         H            1.186290679907    -2.076139309294    -1.100445020426     1.007825032230
         H           -1.944709320093    -1.914139309294    -0.193445020426     1.007825032230
         H            1.811290679907    -0.387139309294     1.258554979574     1.007825032230
         H           -3.136709320093    -0.003139309294     0.881554979574     1.007825032230
         H            0.667290679907     1.515860690706     2.299554979574     1.007825032230
         H           -1.782709320093     1.733860690706     2.087554979574     1.007825032230
         H            0.222430679907    -3.332689309294    -0.280551020426     1.007825032230
         C            1.315290679907     1.162860690706    -2.066445020426    12.000000000000
         C            1.218290679907     2.159860690706    -3.191445020426    12.000000000000
         H            0.379290679907     0.609860690706    -1.979445020426     1.007825032230
         H            2.120290679907     0.454860690706    -2.261445020426     1.007825032230
         H            1.511290679907     1.671860690706    -1.120445020426     1.007825032230
         H            1.047290679907     1.629860690706    -4.125445020426     1.007825032230
         H            0.375780679907     2.831870690706    -2.971010020426     1.007825032230
         H            2.190060679907     2.673570690706    -3.233541020426     1.007825032230

  Running in c1 symmetry.

  Rotational constants: A =      0.05867  B =      0.02963  C =      0.02500 [cm^-1]
  Rotational constants: A =   1758.78616  B =    888.41253  C =    749.34891 [MHz]
  Nuclear repulsion =  412.799591569080860

  Charge       = 0
  Multiplicity = 1
  Electrons    = 68
  Nalpha       = 34
  Nbeta        = 34

  ==> Algorithm <==

  SCF Algorithm Type is PK.
  DIIS enabled.
  MOM disabled.
  Fractional occupation disabled.
  Guess Type is SAD.
  Energy threshold   = 1.00e-06
  Density threshold  = 1.00e-10
  Integral threshold = 0.00e+00

  ==> Primary Basis <==

  Basis Set: CC-PVDZ
    Blend: CC-PVDZ
    Number of shells: 96
    Number of basis function: 196
    Number of Cartesian functions: 205
    Spherical Harmonics?: true
    Max angular momentum: 2

  ==> Pre-Iterations <==

   -------------------------------------------------------
    Irrep   Nso     Nmo     Nalpha   Nbeta   Ndocc  Nsocc
   -------------------------------------------------------
     A        196     196       0       0       0       0
   -------------------------------------------------------
    Total     196     196      34      34      34       0
   -------------------------------------------------------

  ==> Integral Setup <==

  Using integral reordering PK algorithm.
  Sizing the integral batches needed.
  Building batch lookup table.
   Calculation information:
      Number of atoms:                  23
      Number of AO shells:              96
      Number of primitives:            268
      Number of atomic orbitals:       205
      Number of basis functions:       196

      Integral cutoff                 1.00e-12
      Number of threads:                 1

	Batch   1 pq = [       0,    9405] index = [             0,44231715] size =     44231715
	Batch   2 pq = [    9405,   13301] index = [      44231715,88464951] size =     44233236
	Batch   3 pq = [   13301,   16290] index = [      88464951,132690195] size =     44225244
	Batch   4 pq = [   16290,   18810] index = [     132690195,176917455] size =     44227260
	Batch   5 pq = [   18810,   19306] index = [     176917455,186370471] size =      9453016
  Task number: 17
  Buffer size: 11059200
  Buffer per thread: 2
  We computed 10064038 shell quartets total.
  Whereas there are 10841496 unique shell quartets.

  ==> DiskJK: Disk-Based J/K Matrices <==

    J tasked:                  Yes
    K tasked:                  Yes
    wK tasked:                  No
    Memory [MiB]:              375
    Schwarz Cutoff:          1E-12

    OpenMP threads:              1

  Minimum eigenvalue in the overlap matrix is 3.3928673935E-04.
  Using Symmetric Orthogonalization.

  SCF Guess: Superposition of Atomic Densities via on-the-fly atomic UHF.

  ==> Iterations <==

                        Total Energy        Delta E     RMS |[F,P]|

   @RHF iter SAD:  -347.81311965458025   -3.47813e+02   0.00000e+00
   @RHF iter   1:  -348.76137197809493   -9.48252e-01   2.89482e-03 DIIS
   @RHF iter   2:  -348.95373707939603   -1.92365e-01   1.20075e-03 DIIS
   @RHF iter   3:  -348.98395052701352   -3.02134e-02   2.62705e-04 DIIS
   @RHF iter   4:  -348.98643356636904   -2.48304e-03   6.82276e-05 DIIS
   @RHF iter   5:  -348.98654556759277   -1.12001e-04   2.11700e-05 DIIS
   @RHF iter   6:  -348.98655689472963   -1.13271e-05   5.07191e-06 DIIS
   @RHF iter   7:  -348.98655766579907   -7.71069e-07   1.23716e-06 DIIS
   @RHF iter   8:  -348.98655772603195   -6.02329e-08   3.79923e-07 DIIS
   @RHF iter   9:  -348.98655773637074   -1.03388e-08   1.97061e-07 DIIS
   @RHF iter  10:  -348.98655773936440   -2.99366e-09   9.12641e-08 DIIS
   @RHF iter  11:  -348.98655774044630   -1.08190e-09   3.73271e-08 DIIS
   @RHF iter  12:  -348.98655774057909   -1.32786e-10   1.71321e-08 DIIS
   @RHF iter  13:  -348.98655774059716   -1.80762e-11   4.99160e-09 DIIS
   @RHF iter  14:  -348.98655774060040   -3.24007e-12   1.53470e-09 DIIS
   @RHF iter  15:  -348.98655774059762    2.78533e-12   5.55386e-10 DIIS
   @RHF iter  16:  -348.98655774059864   -1.02318e-12   2.26992e-10 DIIS
   @RHF iter  17:  -348.98655774059978   -1.13687e-12   9.01935e-11 DIIS
  Energy and wave function converged.

  ==> Post-Iterations <==

    Orbital Energies [Eh]
    ---------------------

    Doubly Occupied:

       1A    -11.243663     2A    -11.240747     3A    -11.236103
       4A    -11.235039     5A    -11.234822     6A    -11.229196
       7A    -11.227044     8A    -11.211929     9A    -11.205737
      10A     -1.146980    11A     -1.041347    12A     -1.018586
      13A     -1.009664    14A     -0.927129    15A     -0.825433
      16A     -0.823161    17A     -0.793891    18A     -0.687002
      19A     -0.635043    20A     -0.626960    21A     -0.598742
      22A     -0.595199    23A     -0.585674    24A     -0.577262
      25A     -0.558206    26A     -0.531579    27A     -0.495509
      28A     -0.489171    29A     -0.483947    30A     -0.478847
      31A     -0.474862    32A     -0.473339    33A     -0.331252
      34A     -0.316352

    Virtual:

      35A      0.131374    36A      0.140194    37A      0.176811
      38A      0.197039    39A      0.201991    40A      0.214164
      41A      0.237077    42A      0.247228    43A      0.252379
      44A      0.259887    45A      0.265766    46A      0.276335
      47A      0.284174    48A      0.291843    49A      0.303334
      50A      0.316997    51A      0.365264    52A      0.377526
      53A      0.405181    54A      0.449074    55A      0.453606
      56A      0.474618    57A      0.490288    58A      0.562052
      59A      0.576786    60A      0.604613    61A      0.610609
      62A      0.615595    63A      0.633248    64A      0.661812
      65A      0.669349    66A      0.685502    67A      0.697957
      68A      0.708289    69A      0.734703    70A      0.742262
      71A      0.744330    72A      0.754714    73A      0.757403
      74A      0.772419    75A      0.790608    76A      0.819732
      77A      0.838050    78A      0.851493    79A      0.860347
      80A      0.860850    81A      0.884756    82A      0.894646
      83A      0.897116    84A      0.899526    85A      0.903850
      86A      0.915792    87A      0.925011    88A      0.927405
      89A      0.932582    90A      0.944478    91A      0.967341
      92A      0.981842    93A      0.992740    94A      1.009594
      95A      1.025792    96A      1.045298    97A      1.105397
      98A      1.127463    99A      1.135692   100A      1.145741
     101A      1.151662   102A      1.154788   103A      1.191853
     104A      1.223034   105A      1.236491   106A      1.248976
     107A      1.255540   108A      1.275208   109A      1.286517
     110A      1.307052   111A      1.318446   112A      1.324988
     113A      1.414077   114A      1.489771   115A      1.497773
     116A      1.501710   117A      1.530032   118A      1.573433
     119A      1.585055   120A      1.596375   121A      1.670548
     122A      1.680210   123A      1.699758   124A      1.709838
     125A      1.728730   126A      1.747212   127A      1.759937
     128A      1.784168   129A      1.804110   130A      1.841401
     131A      1.855102   132A      1.873106   133A      1.876178
     134A      1.887294   135A      1.899400   136A      1.920135
     137A      1.923263   138A      1.934481   139A      1.946945
     140A      1.955508   141A      1.958643   142A      1.960460
     143A      1.969488   144A      1.975650   145A      1.984399
     146A      1.994961   147A      2.006635   148A      2.020895
     149A      2.030389   150A      2.056400   151A      2.072604
     152A      2.112142   153A      2.120883   154A      2.129957
     155A      2.146265   156A      2.149946   157A      2.162732
     158A      2.170029   159A      2.176822   160A      2.254421
     161A      2.265923   162A      2.282180   163A      2.296565
     164A      2.303662   165A      2.315962   166A      2.334311
     167A      2.361592   168A      2.457794   169A      2.464494
     170A      2.466920   171A      2.476193   172A      2.488023
     173A      2.538796   174A      2.578215   175A      2.592170
     176A      2.633558   177A      2.731527   178A      2.739635
     179A      2.766531   180A      2.777168   181A      2.779827
     182A      2.795545   183A      2.805370   184A      2.838723
     185A      2.850055   186A      2.853014   187A      2.855660
     188A      2.949625   189A      2.962046   190A      2.978029
     191A      3.013267   192A      3.018642   193A      3.151285
     194A      3.187856   195A      3.285366   196A      3.928912

    Final Occupation by Irrep:
              A
    DOCC [    34 ]

  @RHF Final Energy:  -348.98655774059978

   => Energetics <=

    Nuclear Repulsion Energy =            412.7995915690808602
    One-Electron Energy =               -1288.3934654784784470
    Two-Electron Energy =                 526.6073161687978654
    Total Energy =                       -348.9865577405997783

Computation Completed

Properties will be evaluated at   0.000000,   0.000000,   0.000000 [a0]

Properties computed using the SCF density matrix

  Nuclear Dipole Moment: [e a0]
     X:     5.8868      Y:     2.6148      Z:    -9.5772

  Electronic Dipole Moment: [e a0]
     X:    -5.8418      Y:    -2.7380      Z:     9.5863

  Dipole Moment: [e a0]
     X:     0.0450      Y:    -0.1232      Z:     0.0091     Total:     0.1315

  Dipole Moment: [D]
     X:     0.1144      Y:    -0.3132      Z:     0.0231     Total:     0.3342

*** tstop() called on ds3 at Mon Apr 27 21:58:58 2020
Module time:
	user time   =      68.41 seconds =       1.14 minutes
	system time =      27.87 seconds =       0.46 minutes
	total time  =         94 seconds =       1.57 minutes
Total time:
	user time   =      68.41 seconds =       1.14 minutes
	system time =      27.87 seconds =       0.46 minutes
	total time  =         94 seconds =       1.57 minutes
                                     G D M A

                                 by Anthony Stone

                           version 2.2.06, 22 June 2011

               Distributed Multipoles from Gaussian wavefunctions

Starting at 21:58:58 on 27 Apr 2020

Using SCF density matrix from file ./SSI/SSI-198PHE-287LEU-1-dimer.test.27605.fchk

                         Distributed Multipole Analysis

Standard DMA

Positions and radii in angstrom
Multipole moments in atomic units, ea_0^k for rank k

C          x =  0.791291  y = -2.402139  z = -0.137445 angstrom
           Maximum rank =  0   Radius =  0.650 angstrom
                   Q00  =  -0.201803

C          x =  0.018291  y = -1.269139  z =  0.453555 angstrom
           Maximum rank =  0   Radius =  0.650 angstrom
                   Q00  =  -0.069747

C          x = -1.369709  y = -1.172139  z =  0.338555 angstrom
           Maximum rank =  0   Radius =  0.650 angstrom
                   Q00  =  -0.106197

C          x =  0.743291  y = -0.299139  z =  1.152555 angstrom
           Maximum rank =  0   Radius =  0.650 angstrom
                   Q00  =  -0.011381

C          x = -2.060709  y = -0.088139  z =  0.938555 angstrom
           Maximum rank =  0   Radius =  0.650 angstrom
                   Q00  =  -0.084631

C          x =  0.101291  y =  0.775861  z =  1.749555 angstrom
           Maximum rank =  0   Radius =  0.650 angstrom
                   Q00  =  -0.073074

C          x = -1.284709  y =  0.897861  z =  1.620555 angstrom
           Maximum rank =  0   Radius =  0.650 angstrom
                   Q00  =  -0.065245

H          x =  1.632291  y = -2.619139  z =  0.522555 angstrom
           Maximum rank =  0   Radius =  0.325 angstrom
                   Q00  =   0.094756

H          x =  1.186291  y = -2.076139  z = -1.100445 angstrom
           Maximum rank =  0   Radius =  0.325 angstrom
                   Q00  =   0.101732

H          x = -1.944709  y = -1.914139  z = -0.193445 angstrom
           Maximum rank =  0   Radius =  0.325 angstrom
                   Q00  =   0.061183

H          x =  1.811291  y = -0.387139  z =  1.258555 angstrom
           Maximum rank =  0   Radius =  0.325 angstrom
                   Q00  =   0.055961

H          x = -3.136709  y = -0.003139  z =  0.881555 angstrom
           Maximum rank =  0   Radius =  0.325 angstrom
                   Q00  =   0.074238

H          x =  0.667291  y =  1.515861  z =  2.299555 angstrom
           Maximum rank =  0   Radius =  0.325 angstrom
                   Q00  =   0.066144

H          x = -1.782709  y =  1.733861  z =  2.087555 angstrom
           Maximum rank =  0   Radius =  0.325 angstrom
                   Q00  =   0.062678

H          x =  0.222431  y = -3.332689  z = -0.280551 angstrom
           Maximum rank =  0   Radius =  0.325 angstrom
                   Q00  =   0.098393

C          x =  1.315291  y =  1.162861  z = -2.066445 angstrom
           Maximum rank =  0   Radius =  0.650 angstrom
                   Q00  =  -0.232602

C          x =  1.218291  y =  2.159861  z = -3.191445 angstrom
           Maximum rank =  0   Radius =  0.650 angstrom
                   Q00  =  -0.220630

H          x =  0.379291  y =  0.609861  z = -1.979445 angstrom
           Maximum rank =  0   Radius =  0.325 angstrom
                   Q00  =   0.080257

H          x =  2.120291  y =  0.454861  z = -2.261445 angstrom
           Maximum rank =  0   Radius =  0.325 angstrom
                   Q00  =   0.065832

H          x =  1.511291  y =  1.671861  z = -1.120445 angstrom
           Maximum rank =  0   Radius =  0.325 angstrom
                   Q00  =   0.079006

H          x =  1.047291  y =  1.629861  z = -4.125445 angstrom
           Maximum rank =  0   Radius =  0.325 angstrom
                   Q00  =   0.076255

H          x =  0.375781  y =  2.831871  z = -2.971010 angstrom
           Maximum rank =  0   Radius =  0.325 angstrom
                   Q00  =   0.077690

H          x =  2.190061  y =  2.673571  z = -3.233541 angstrom
           Maximum rank =  0   Radius =  0.325 angstrom
                   Q00  =   0.071185

Total multipoles referred to origin at
           x =   0.000000,  y =    0.000000,  z =    0.000000 angstrom
                   Q00  =  -0.000000

Finished at 21:58:58 on 27 Apr 2020

  DMA results are available in the Python driver through the
	  variable('DMA DISTRIBUTED MULTIPOLES')
  and
	  variable('DMA TOTAL MULTIPOLES')
  commands.

    Psi4 stopped on: Monday, 27 April 2020 09:58PM
    Psi4 wall time for execution: 0:01:33.48

*** Psi4 exiting successfully. Buy a developer a beer!
