                               Psi4 1.3.2 release

  ==> Input File <==

--------------------------------------------------------------------------
import numpy as np
set {scf_type pk
basis cc-pvdz
d_convergence 10
gdma_switch   0
gdma_limit    0
gdma_origin   [ 0.0,  0.0,  0.0 ]
}
molecule test {
    units Angstrom
    0 1
    --
    0 1
    C                0.214879193083403    -3.128839037009258    -0.478583995555796
    C               -1.214120806916597     0.876160962990742     0.146416004444204
    C               -1.021120806916597     0.015160962990742     1.228416004444204
    C               -0.970120806916597     0.414160962990742    -1.147583995555796
    C               -0.566120806916597    -1.273839037009258     1.024416004444204
    C               -0.488120806916597    -0.872839037009258    -1.334583995555796
    C               -0.285120806916597    -1.731839037009258    -0.256583995555796
    O               -1.701120806916597     2.136160962990742     0.379416004444204
    H               -1.212120806916597     0.353160962990742     2.235416004444204
    H               -1.788120806916597     2.319160962990742     1.314416004444204
    H               -1.117120806916597     1.079160962990742    -1.985583995555796
    H               -0.409120806916597    -1.925839037009258     1.872416004444204
    H               -0.270120806916597    -1.212839037009258    -2.339583995555796
    H                1.098879193083403    -3.274839037009258     0.143416004444204
    H                0.518879193083403    -3.249839037009258    -1.519583995555796
    H               -0.529000806916597    -3.897229037009258    -0.221252995555796
    C                2.449879193083403     0.869160962990742     0.485416004444204
    C                3.064879193083403     2.074160962990742    -0.194583995555796
    H                1.380879193083403     0.979160962990742     0.595416004444204
    H                2.619879193083403     0.002160962990742    -0.147583995555796
    H                2.905879193083403     0.713160962990742     1.463416004444204
    H                2.652879193083402     2.148160962990742    -1.202583995555796
    H                4.134879193083402     1.883160962990742    -0.283583995555796
    H                2.902919193083403     3.026470962990742     0.331600004444204

}
e, wfn = energy('scf', return_wfn=True)
gdma(wfn)
dmavals = variable('DMA DISTRIBUTED MULTIPOLES')
charges = np.array(dmavals)
print(charges)
np.save('SSI-165TYR-208ILE-2-dimer.npy', np.array(charges))--------------------------------------------------------------------------

*** tstart() called on ds3
*** at Mon Apr 27 06:58:20 2020

   => Loading Basis Set <=

    Name: CC-PVDZ
    Role: ORBITAL
    Keyword: BASIS
    atoms 1-7, 17-18  entry C          line   138 file /theoryfs2/ds/metcalf/miniconda2/envs/tf2gpu/share/psi4/basis/cc-pvdz.gbs
    atoms 8           entry O          line   198 file /theoryfs2/ds/metcalf/miniconda2/envs/tf2gpu/share/psi4/basis/cc-pvdz.gbs
    atoms 9-16, 19-24 entry H          line    22 file /theoryfs2/ds/metcalf/miniconda2/envs/tf2gpu/share/psi4/basis/cc-pvdz.gbs

         ---------------------------------------------------------
                                   SCF
               by Justin Turney, Rob Parrish, Andy Simmonett
                          and Daniel G. A. Smith
                              RHF Reference
                        1 Threads,    500 MiB Core
         ---------------------------------------------------------

  ==> Geometry <==

    Molecular point group: c1
    Full point group: C1

    Geometry (in Angstrom), charge = 0, multiplicity = 1:

       Center              X                  Y                   Z               Mass
    ------------   -----------------  -----------------  -----------------  -----------------
         C            0.214879193083    -3.128839037009    -0.478583995556    12.000000000000
         C           -1.214120806917     0.876160962991     0.146416004444    12.000000000000
         C           -1.021120806917     0.015160962991     1.228416004444    12.000000000000
         C           -0.970120806917     0.414160962991    -1.147583995556    12.000000000000
         C           -0.566120806917    -1.273839037009     1.024416004444    12.000000000000
         C           -0.488120806917    -0.872839037009    -1.334583995556    12.000000000000
         C           -0.285120806917    -1.731839037009    -0.256583995556    12.000000000000
         O           -1.701120806917     2.136160962991     0.379416004444    15.994914619570
         H           -1.212120806917     0.353160962991     2.235416004444     1.007825032230
         H           -1.788120806917     2.319160962991     1.314416004444     1.007825032230
         H           -1.117120806917     1.079160962991    -1.985583995556     1.007825032230
         H           -0.409120806917    -1.925839037009     1.872416004444     1.007825032230
         H           -0.270120806917    -1.212839037009    -2.339583995556     1.007825032230
         H            1.098879193083    -3.274839037009     0.143416004444     1.007825032230
         H            0.518879193083    -3.249839037009    -1.519583995556     1.007825032230
         H           -0.529000806917    -3.897229037009    -0.221252995556     1.007825032230
         C            2.449879193083     0.869160962991     0.485416004444    12.000000000000
         C            3.064879193083     2.074160962991    -0.194583995556    12.000000000000
         H            1.380879193083     0.979160962991     0.595416004444     1.007825032230
         H            2.619879193083     0.002160962991    -0.147583995556     1.007825032230
         H            2.905879193083     0.713160962991     1.463416004444     1.007825032230
         H            2.652879193083     2.148160962991    -1.202583995556     1.007825032230
         H            4.134879193083     1.883160962991    -0.283583995556     1.007825032230
         H            2.902919193083     3.026470962991     0.331600004444     1.007825032230

  Running in c1 symmetry.

  Rotational constants: A =      0.04151  B =      0.03186  C =      0.02281 [cm^-1]
  Rotational constants: A =   1244.47351  B =    955.05622  C =    683.71899 [MHz]
  Nuclear repulsion =  510.596610252803089

  Charge       = 0
  Multiplicity = 1
  Electrons    = 76
  Nalpha       = 38
  Nbeta        = 38

  ==> Algorithm <==

  SCF Algorithm Type is PK.
  DIIS enabled.
  MOM disabled.
  Fractional occupation disabled.
  Guess Type is SAD.
  Energy threshold   = 1.00e-06
  Density threshold  = 1.00e-10
  Integral threshold = 0.00e+00

  ==> Primary Basis <==

  Basis Set: CC-PVDZ
    Blend: CC-PVDZ
    Number of shells: 102
    Number of basis function: 210
    Number of Cartesian functions: 220
    Spherical Harmonics?: true
    Max angular momentum: 2

  ==> Pre-Iterations <==

   -------------------------------------------------------
    Irrep   Nso     Nmo     Nalpha   Nbeta   Ndocc  Nsocc
   -------------------------------------------------------
     A        210     210       0       0       0       0
   -------------------------------------------------------
    Total     210     210      38      38      38       0
   -------------------------------------------------------

  ==> Integral Setup <==

  Using integral reordering PK algorithm.
  Sizing the integral batches needed.
  Building batch lookup table.
   Calculation information:
      Number of atoms:                  24
      Number of AO shells:             102
      Number of primitives:            290
      Number of atomic orbitals:       220
      Number of basis functions:       210

      Integral cutoff                 1.00e-12
      Number of threads:                 1

	Batch   1 pq = [       0,    9405] index = [             0,44231715] size =     44231715
	Batch   2 pq = [    9405,   13301] index = [      44231715,88464951] size =     44233236
	Batch   3 pq = [   13301,   16290] index = [      88464951,132690195] size =     44225244
	Batch   4 pq = [   16290,   18810] index = [     132690195,176917455] size =     44227260
	Batch   5 pq = [   18810,   21030] index = [     176917455,221140965] size =     44223510
	Batch   6 pq = [   21030,   22155] index = [     221140965,245433090] size =     24292125
  Task number: 23
  Buffer size: 11059200
  Buffer per thread: 2
  We computed 13381870 shell quartets total.
  Whereas there are 13799631 unique shell quartets.

  ==> DiskJK: Disk-Based J/K Matrices <==

    J tasked:                  Yes
    K tasked:                  Yes
    wK tasked:                  No
    Memory [MiB]:              375
    Schwarz Cutoff:          1E-12

    OpenMP threads:              1

  Minimum eigenvalue in the overlap matrix is 3.1959992419E-04.
  Using Symmetric Orthogonalization.

  SCF Guess: Superposition of Atomic Densities via on-the-fly atomic UHF.

  ==> Iterations <==

                        Total Energy        Delta E     RMS |[F,P]|

   @RHF iter SAD:  -422.77026647970774   -4.22770e+02   0.00000e+00
   @RHF iter   1:  -423.59470765786176   -8.24441e-01   3.01377e-03 DIIS
   @RHF iter   2:  -423.81367822439586   -2.18971e-01   1.28385e-03 DIIS
   @RHF iter   3:  -423.84988859418672   -3.62104e-02   2.90082e-04 DIIS
   @RHF iter   4:  -423.85279123448925   -2.90264e-03   1.24805e-04 DIIS
   @RHF iter   5:  -423.85319200463380   -4.00770e-04   2.05513e-05 DIIS
   @RHF iter   6:  -423.85320943033815   -1.74257e-05   6.34824e-06 DIIS
   @RHF iter   7:  -423.85321102127477   -1.59094e-06   2.02944e-06 DIIS
   @RHF iter   8:  -423.85321122835433   -2.07080e-07   7.61654e-07 DIIS
   @RHF iter   9:  -423.85321125990248   -3.15482e-08   2.79729e-07 DIIS
   @RHF iter  10:  -423.85321126527623   -5.37375e-09   1.11829e-07 DIIS
   @RHF iter  11:  -423.85321126667918   -1.40295e-09   5.04659e-08 DIIS
   @RHF iter  12:  -423.85321126699807   -3.18892e-10   2.72174e-08 DIIS
   @RHF iter  13:  -423.85321126707311   -7.50333e-11   7.88415e-09 DIIS
   @RHF iter  14:  -423.85321126708089   -7.78755e-12   2.14456e-09 DIIS
   @RHF iter  15:  -423.85321126707936    1.53477e-12   7.54028e-10 DIIS
   @RHF iter  16:  -423.85321126708186   -2.50111e-12   2.80062e-10 DIIS
   @RHF iter  17:  -423.85321126707868    3.18323e-12   1.34008e-10 DIIS
   @RHF iter  18:  -423.85321126708402   -5.34328e-12   6.58106e-11 DIIS
  Energy and wave function converged.

  ==> Post-Iterations <==

    Orbital Energies [Eh]
    ---------------------

    Doubly Occupied:

       1A    -20.582906     2A    -11.301431     3A    -11.238681
       4A    -11.237712     5A    -11.233428     6A    -11.233232
       7A    -11.232242     8A    -11.228464     9A    -11.208023
      10A    -11.200669    11A     -1.398059    12A     -1.154717
      13A     -1.039772    14A     -1.021305    15A     -1.012055
      16A     -0.927416    17A     -0.844132    18A     -0.826333
      19A     -0.804641    20A     -0.733335    21A     -0.669906
      22A     -0.642753    23A     -0.609314    24A     -0.596987
      25A     -0.590088    26A     -0.589035    27A     -0.580941
      28A     -0.571316    29A     -0.566309    30A     -0.528057
      31A     -0.500685    32A     -0.495315    33A     -0.484556
      34A     -0.479741    35A     -0.474995    36A     -0.459087
      37A     -0.342103    38A     -0.302049

    Virtual:

      39A      0.129849    40A      0.153676    41A      0.175481
      42A      0.181359    43A      0.200202    44A      0.210680
      45A      0.221645    46A      0.248817    47A      0.251292
      48A      0.266256    49A      0.270185    50A      0.275190
      51A      0.281673    52A      0.291004    53A      0.307136
      54A      0.323172    55A      0.370082    56A      0.373077
      57A      0.406131    58A      0.436273    59A      0.452472
      60A      0.484732    61A      0.497702    62A      0.515073
      63A      0.577761    64A      0.590568    65A      0.608566
      66A      0.612888    67A      0.635484    68A      0.645007
      69A      0.654864    70A      0.666440    71A      0.681833
      72A      0.691407    73A      0.709495    74A      0.728363
      75A      0.737406    76A      0.769050    77A      0.769665
      78A      0.771923    79A      0.789932    80A      0.811182
      81A      0.824704    82A      0.841165    83A      0.843799
      84A      0.871565    85A      0.879380    86A      0.889375
      87A      0.894466    88A      0.897343    89A      0.901314
      90A      0.907234    91A      0.915110    92A      0.924309
      93A      0.932822    94A      0.939895    95A      0.940854
      96A      0.949058    97A      0.951611    98A      0.985413
      99A      0.993405   100A      1.020608   101A      1.056999
     102A      1.092117   103A      1.121622   104A      1.136940
     105A      1.148559   106A      1.149588   107A      1.160312
     108A      1.179862   109A      1.211366   110A      1.240227
     111A      1.251217   112A      1.271002   113A      1.285892
     114A      1.291570   115A      1.308955   116A      1.311126
     117A      1.335527   118A      1.354978   119A      1.362103
     120A      1.405309   121A      1.473860   122A      1.497510
     123A      1.504485   124A      1.510216   125A      1.529946
     126A      1.557056   127A      1.605592   128A      1.624041
     129A      1.636208   130A      1.680684   131A      1.685722
     132A      1.692622   133A      1.706590   134A      1.741612
     135A      1.746261   136A      1.779541   137A      1.799070
     138A      1.818672   139A      1.865325   140A      1.874417
     141A      1.882343   142A      1.888820   143A      1.897379
     144A      1.906775   145A      1.914345   146A      1.919894
     147A      1.935233   148A      1.948064   149A      1.953476
     150A      1.963005   151A      1.970767   152A      1.978514
     153A      1.982958   154A      1.986130   155A      2.007518
     156A      2.018727   157A      2.042346   158A      2.046712
     159A      2.071477   160A      2.082597   161A      2.092404
     162A      2.113978   163A      2.121470   164A      2.133393
     165A      2.161141   166A      2.198841   167A      2.204287
     168A      2.217604   169A      2.259875   170A      2.272229
     171A      2.299577   172A      2.322618   173A      2.337800
     174A      2.362653   175A      2.385950   176A      2.401820
     177A      2.459225   178A      2.474478   179A      2.484063
     180A      2.491772   181A      2.513335   182A      2.529863
     183A      2.571535   184A      2.579564   185A      2.600280
     186A      2.614737   187A      2.658265   188A      2.744491
     189A      2.770478   190A      2.779334   191A      2.796089
     192A      2.807431   193A      2.833007   194A      2.845245
     195A      2.875033   196A      2.883139   197A      2.898366
     198A      2.965546   199A      2.983242   200A      3.004075
     201A      3.040735   202A      3.090768   203A      3.131585
     204A      3.252506   205A      3.289188   206A      3.347370
     207A      3.576444   208A      3.666253   209A      3.984875
     210A      4.191499

    Final Occupation by Irrep:
              A
    DOCC [    38 ]

  @RHF Final Energy:  -423.85321126708402

   => Energetics <=

    Nuclear Repulsion Energy =            510.5966102528030888
    One-Electron Energy =               -1587.0160642420237309
    Two-Electron Energy =                 652.5662427221365078
    Total Energy =                       -423.8532112670840206

Computation Completed

Properties will be evaluated at   0.000000,   0.000000,   0.000000 [a0]

Properties computed using the SCF density matrix

  Nuclear Dipole Moment: [e a0]
     X:    12.0753      Y:    -0.9805      Z:     0.2421

  Electronic Dipole Moment: [e a0]
     X:   -12.0578      Y:     0.6372      Z:     0.2513

  Dipole Moment: [e a0]
     X:     0.0175      Y:    -0.3432      Z:     0.4934     Total:     0.6013

  Dipole Moment: [D]
     X:     0.0445      Y:    -0.8724      Z:     1.2542     Total:     1.5284

*** tstop() called on ds3 at Mon Apr 27 07:01:27 2020
Module time:
	user time   =     101.45 seconds =       1.69 minutes
	system time =      35.17 seconds =       0.59 minutes
	total time  =        187 seconds =       3.12 minutes
Total time:
	user time   =     101.45 seconds =       1.69 minutes
	system time =      35.17 seconds =       0.59 minutes
	total time  =        187 seconds =       3.12 minutes
                                     G D M A

                                 by Anthony Stone

                           version 2.2.06, 22 June 2011

               Distributed Multipoles from Gaussian wavefunctions

Starting at 7:1:27 on 27 Apr 2020

Using SCF density matrix from file ./SSI/SSI-165TYR-208ILE-2-dimer.test.15316.fchk

                         Distributed Multipole Analysis

Standard DMA

Positions and radii in angstrom
Multipole moments in atomic units, ea_0^k for rank k

C          x =  0.214879  y = -3.128839  z = -0.478584 angstrom
           Maximum rank =  0   Radius =  0.650 angstrom
                   Q00  =  -0.191302

C          x = -1.214121  y =  0.876161  z =  0.146416 angstrom
           Maximum rank =  0   Radius =  0.650 angstrom
                   Q00  =   0.273040

C          x = -1.021121  y =  0.015161  z =  1.228416 angstrom
           Maximum rank =  0   Radius =  0.650 angstrom
                   Q00  =  -0.164746

C          x = -0.970121  y =  0.414161  z = -1.147584 angstrom
           Maximum rank =  0   Radius =  0.650 angstrom
                   Q00  =  -0.116251

C          x = -0.566121  y = -1.273839  z =  1.024416 angstrom
           Maximum rank =  0   Radius =  0.650 angstrom
                   Q00  =  -0.050460

C          x = -0.488121  y = -0.872839  z = -1.334584 angstrom
           Maximum rank =  0   Radius =  0.650 angstrom
                   Q00  =   0.066443

C          x = -0.285121  y = -1.731839  z = -0.256584 angstrom
           Maximum rank =  0   Radius =  0.650 angstrom
                   Q00  =  -0.139814

O          x = -1.701121  y =  2.136161  z =  0.379416 angstrom
           Maximum rank =  0   Radius =  0.650 angstrom
                   Q00  =  -0.647059

H          x = -1.212121  y =  0.353161  z =  2.235416 angstrom
           Maximum rank =  0   Radius =  0.325 angstrom
                   Q00  =   0.069698

H          x = -1.788121  y =  2.319161  z =  1.314416 angstrom
           Maximum rank =  0   Radius =  0.325 angstrom
                   Q00  =   0.405923

H          x = -1.117121  y =  1.079161  z = -1.985584 angstrom
           Maximum rank =  0   Radius =  0.325 angstrom
                   Q00  =   0.081151

H          x = -0.409121  y = -1.925839  z =  1.872416 angstrom
           Maximum rank =  0   Radius =  0.325 angstrom
                   Q00  =   0.066673

H          x = -0.270121  y = -1.212839  z = -2.339584 angstrom
           Maximum rank =  0   Radius =  0.325 angstrom
                   Q00  =   0.063798

H          x =  1.098879  y = -3.274839  z =  0.143416 angstrom
           Maximum rank =  0   Radius =  0.325 angstrom
                   Q00  =   0.095086

H          x =  0.518879  y = -3.249839  z = -1.519584 angstrom
           Maximum rank =  0   Radius =  0.325 angstrom
                   Q00  =   0.096614

H          x = -0.529001  y = -3.897229  z = -0.221253 angstrom
           Maximum rank =  0   Radius =  0.325 angstrom
                   Q00  =   0.099226

C          x =  2.449879  y =  0.869161  z =  0.485416 angstrom
           Maximum rank =  0   Radius =  0.650 angstrom
                   Q00  =  -0.234751

C          x =  3.064879  y =  2.074161  z = -0.194584 angstrom
           Maximum rank =  0   Radius =  0.650 angstrom
                   Q00  =  -0.230517

H          x =  1.380879  y =  0.979161  z =  0.595416 angstrom
           Maximum rank =  0   Radius =  0.325 angstrom
                   Q00  =   0.095027

H          x =  2.619879  y =  0.002161  z = -0.147584 angstrom
           Maximum rank =  0   Radius =  0.325 angstrom
                   Q00  =   0.075392

H          x =  2.905879  y =  0.713161  z =  1.463416 angstrom
           Maximum rank =  0   Radius =  0.325 angstrom
                   Q00  =   0.065714

H          x =  2.652879  y =  2.148161  z = -1.202584 angstrom
           Maximum rank =  0   Radius =  0.325 angstrom
                   Q00  =   0.074548

H          x =  4.134879  y =  1.883161  z = -0.283584 angstrom
           Maximum rank =  0   Radius =  0.325 angstrom
                   Q00  =   0.070335

H          x =  2.902919  y =  3.026471  z =  0.331600 angstrom
           Maximum rank =  0   Radius =  0.325 angstrom
                   Q00  =   0.076233

Total multipoles referred to origin at
           x =   0.000000,  y =    0.000000,  z =    0.000000 angstrom
                   Q00  =  -0.000000

Finished at 7:1:27 on 27 Apr 2020

  DMA results are available in the Python driver through the
	  variable('DMA DISTRIBUTED MULTIPOLES')
  and
	  variable('DMA TOTAL MULTIPOLES')
  commands.

    Psi4 stopped on: Monday, 27 April 2020 07:01AM
    Psi4 wall time for execution: 0:03:06.50

*** Psi4 exiting successfully. Buy a developer a beer!
