                               Psi4 1.3.2 release

  ==> Input File <==

--------------------------------------------------------------------------
import numpy as np
set {scf_type pk
basis cc-pvdz
d_convergence 10
gdma_switch   0
gdma_limit    0
gdma_origin   [ 0.0,  0.0,  0.0 ]
}
molecule test {
    units Angstrom
    0 1
    --
    0 1
    C                0.615024114646368    -0.131916578727000     1.161806672384936
    C                2.071024114646368    -0.292916578727000     1.542806672384936
    C               -0.180975885353632    -1.384916578727000     1.448806672384936
    O                0.292024114646368    -2.517916578727001     1.299806672384936
    N               -1.432975885353632    -1.195916578727001     1.819806672384936
    H                0.195024114646368     0.704083421272999     1.724806672384936
    H                0.534024114646368     0.087083421273000     0.104806672384936
    H                2.095024114646368    -0.608916578727000     2.588806672384936
    H               -1.993975885353632    -2.006916578727000     2.032806672384936
    H               -1.800975885353632    -0.263916578727001     1.942806672384936
    H                2.631374114646368     0.644523421273000     1.411580672384936
    H                2.581364114646368    -1.068556578727000     0.952946672384936
    C               -0.162975885353632     1.555083421273000    -2.048193327615064
    C                0.440024114646368     1.844083421272999    -3.411193327615064
    C               -1.548975885353632     2.111083421272999    -1.806193327615064
    H               -0.215975885353632     0.475083421273000    -1.917193327615064
    H                0.459024114646368     1.973083421272999    -1.259193327615064
    H                0.380024114646368     2.921083421272999    -3.581193327615064
    H               -2.267975885353632     1.647083421272999    -2.481193327615064
    H               -1.848975885353632     1.899083421272999    -0.779193327615064
    H               -1.548975885353632     3.191083421272999    -1.960193327615064
    H                1.502274114646368     1.558483421272999    -3.403319327615064
    H               -0.108485885353632     1.364053421273000    -4.235032327615065

}
e, wfn = energy('scf', return_wfn=True)
gdma(wfn)
dmavals = variable('DMA DISTRIBUTED MULTIPOLES')
charges = np.array(dmavals)
print(charges)
np.save('SSI-024ASN-029ILE-1-dimer.npy', np.array(charges))--------------------------------------------------------------------------

*** tstart() called on ds3
*** at Tue Apr 28 00:10:52 2020

   => Loading Basis Set <=

    Name: CC-PVDZ
    Role: ORBITAL
    Keyword: BASIS
    atoms 1-3, 13-15  entry C          line   138 file /theoryfs2/ds/metcalf/miniconda2/envs/tf2gpu/share/psi4/basis/cc-pvdz.gbs
    atoms 4           entry O          line   198 file /theoryfs2/ds/metcalf/miniconda2/envs/tf2gpu/share/psi4/basis/cc-pvdz.gbs
    atoms 5           entry N          line   168 file /theoryfs2/ds/metcalf/miniconda2/envs/tf2gpu/share/psi4/basis/cc-pvdz.gbs
    atoms 6-12, 16-23 entry H          line    22 file /theoryfs2/ds/metcalf/miniconda2/envs/tf2gpu/share/psi4/basis/cc-pvdz.gbs

         ---------------------------------------------------------
                                   SCF
               by Justin Turney, Rob Parrish, Andy Simmonett
                          and Daniel G. A. Smith
                              RHF Reference
                        1 Threads,    500 MiB Core
         ---------------------------------------------------------

  ==> Geometry <==

    Molecular point group: c1
    Full point group: C1

    Geometry (in Angstrom), charge = 0, multiplicity = 1:

       Center              X                  Y                   Z               Mass
    ------------   -----------------  -----------------  -----------------  -----------------
         C            0.615024114646    -0.131916578727     1.161806672385    12.000000000000
         C            2.071024114646    -0.292916578727     1.542806672385    12.000000000000
         C           -0.180975885354    -1.384916578727     1.448806672385    12.000000000000
         O            0.292024114646    -2.517916578727     1.299806672385    15.994914619570
         N           -1.432975885354    -1.195916578727     1.819806672385    14.003074004430
         H            0.195024114646     0.704083421273     1.724806672385     1.007825032230
         H            0.534024114646     0.087083421273     0.104806672385     1.007825032230
         H            2.095024114646    -0.608916578727     2.588806672385     1.007825032230
         H           -1.993975885354    -2.006916578727     2.032806672385     1.007825032230
         H           -1.800975885354    -0.263916578727     1.942806672385     1.007825032230
         H            2.631374114646     0.644523421273     1.411580672385     1.007825032230
         H            2.581364114646    -1.068556578727     0.952946672385     1.007825032230
         C           -0.162975885354     1.555083421273    -2.048193327615    12.000000000000
         C            0.440024114646     1.844083421273    -3.411193327615    12.000000000000
         C           -1.548975885354     2.111083421273    -1.806193327615    12.000000000000
         H           -0.215975885354     0.475083421273    -1.917193327615     1.007825032230
         H            0.459024114646     1.973083421273    -1.259193327615     1.007825032230
         H            0.380024114646     2.921083421273    -3.581193327615     1.007825032230
         H           -2.267975885354     1.647083421273    -2.481193327615     1.007825032230
         H           -1.848975885354     1.899083421273    -0.779193327615     1.007825032230
         H           -1.548975885354     3.191083421273    -1.960193327615     1.007825032230
         H            1.502274114646     1.558483421273    -3.403319327615     1.007825032230
         H           -0.108485885354     1.364053421273    -4.235032327615     1.007825032230

  Running in c1 symmetry.

  Rotational constants: A =      0.08052  B =      0.02201  C =      0.01956 [cm^-1]
  Rotational constants: A =   2413.84752  B =    659.82557  C =    586.50934 [MHz]
  Nuclear repulsion =  370.824325707567596

  Charge       = 0
  Multiplicity = 1
  Electrons    = 66
  Nalpha       = 33
  Nbeta        = 33

  ==> Algorithm <==

  SCF Algorithm Type is PK.
  DIIS enabled.
  MOM disabled.
  Fractional occupation disabled.
  Guess Type is SAD.
  Energy threshold   = 1.00e-06
  Density threshold  = 1.00e-10
  Integral threshold = 0.00e+00

  ==> Primary Basis <==

  Basis Set: CC-PVDZ
    Blend: CC-PVDZ
    Number of shells: 93
    Number of basis function: 187
    Number of Cartesian functions: 195
    Spherical Harmonics?: true
    Max angular momentum: 2

  ==> Pre-Iterations <==

   -------------------------------------------------------
    Irrep   Nso     Nmo     Nalpha   Nbeta   Ndocc  Nsocc
   -------------------------------------------------------
     A        187     187       0       0       0       0
   -------------------------------------------------------
    Total     187     187      33      33      33       0
   -------------------------------------------------------

  ==> Integral Setup <==

  Using integral reordering PK algorithm.
  Sizing the integral batches needed.
  Building batch lookup table.
   Calculation information:
      Number of atoms:                  23
      Number of AO shells:              93
      Number of primitives:            251
      Number of atomic orbitals:       195
      Number of basis functions:       187

      Integral cutoff                 1.00e-12
      Number of threads:                 1

	Batch   1 pq = [       0,    9405] index = [             0,44231715] size =     44231715
	Batch   2 pq = [    9405,   13301] index = [      44231715,88464951] size =     44233236
	Batch   3 pq = [   13301,   16290] index = [      88464951,132690195] size =     44225244
	Batch   4 pq = [   16290,   17578] index = [     132690195,154501831] size =     21811636
  Task number: 14
  Buffer size: 11059200
  Buffer per thread: 2
  We computed 7784452 shell quartets total.
  Whereas there are 9555006 unique shell quartets.

  ==> DiskJK: Disk-Based J/K Matrices <==

    J tasked:                  Yes
    K tasked:                  Yes
    wK tasked:                  No
    Memory [MiB]:              375
    Schwarz Cutoff:          1E-12

    OpenMP threads:              1

  Minimum eigenvalue in the overlap matrix is 3.2750954355E-03.
  Using Symmetric Orthogonalization.

  SCF Guess: Superposition of Atomic Densities via on-the-fly atomic UHF.

  ==> Iterations <==

                        Total Energy        Delta E     RMS |[F,P]|

   @RHF iter SAD:  -364.04528498591799   -3.64045e+02   0.00000e+00
   @RHF iter   1:  -365.00530792533198   -9.60023e-01   3.79191e-03 DIIS
   @RHF iter   2:  -365.23166821081850   -2.26360e-01   2.06544e-03 DIIS
   @RHF iter   3:  -365.29211401940375   -6.04458e-02   4.55803e-04 DIIS
   @RHF iter   4:  -365.29641796492854   -4.30395e-03   1.91014e-04 DIIS
   @RHF iter   5:  -365.29717619839272   -7.58233e-04   2.69155e-05 DIIS
   @RHF iter   6:  -365.29720909261368   -3.28942e-05   1.06485e-05 DIIS
   @RHF iter   7:  -365.29721354464982   -4.45204e-06   4.38991e-06 DIIS
   @RHF iter   8:  -365.29721450762753   -9.62978e-07   1.67710e-06 DIIS
   @RHF iter   9:  -365.29721465791738   -1.50290e-07   4.20276e-07 DIIS
   @RHF iter  10:  -365.29721466521119   -7.29381e-09   1.42521e-07 DIIS
   @RHF iter  11:  -365.29721466600648   -7.95296e-10   3.81505e-08 DIIS
   @RHF iter  12:  -365.29721466606526   -5.87761e-11   9.76706e-09 DIIS
   @RHF iter  13:  -365.29721466607083   -5.57066e-12   2.86191e-09 DIIS
   @RHF iter  14:  -365.29721466606964    1.19371e-12   1.16643e-09 DIIS
   @RHF iter  15:  -365.29721466607282   -3.18323e-12   5.43123e-10 DIIS
   @RHF iter  16:  -365.29721466607043    2.38742e-12   2.01328e-10 DIIS
   @RHF iter  17:  -365.29721466607134   -9.09495e-13   7.64847e-11 DIIS
  Energy and wave function converged.

  ==> Post-Iterations <==

    Orbital Energies [Eh]
    ---------------------

    Doubly Occupied:

       1A    -20.501078     2A    -15.588395     3A    -11.342155
       4A    -11.236834     5A    -11.224549     6A    -11.222599
       7A    -11.222530     8A    -11.222222     9A     -1.362210
      10A     -1.216990    11A     -1.065225    12A     -1.050655
      13A     -0.934537    14A     -0.887170    15A     -0.803036
      16A     -0.785079    17A     -0.723870    18A     -0.664057
      19A     -0.636430    20A     -0.633244    21A     -0.602848
      22A     -0.582235    23A     -0.561601    24A     -0.552247
      25A     -0.537657    26A     -0.521352    27A     -0.507291
      28A     -0.491161    29A     -0.482990    30A     -0.473633
      31A     -0.467457    32A     -0.406436    33A     -0.401223

    Virtual:

      34A      0.149599    35A      0.180846    36A      0.189714
      37A      0.212502    38A      0.219150    39A      0.222230
      40A      0.234450    41A      0.239492    42A      0.253769
      43A      0.265382    44A      0.271419    45A      0.290118
      46A      0.294209    47A      0.297448    48A      0.301467
      49A      0.336258    50A      0.380804    51A      0.397080
      52A      0.422956    53A      0.430185    54A      0.467988
      55A      0.552871    56A      0.567266    57A      0.584418
      58A      0.600090    59A      0.612161    60A      0.622820
      61A      0.640119    62A      0.661627    63A      0.697601
      64A      0.704587    65A      0.742630    66A      0.761079
      67A      0.782667    68A      0.798990    69A      0.807963
      70A      0.830558    71A      0.851146    72A      0.859713
      73A      0.873091    74A      0.882932    75A      0.886568
      76A      0.890653    77A      0.893549    78A      0.896378
      79A      0.902683    80A      0.908820    81A      0.918900
      82A      0.926432    83A      0.936804    84A      0.943006
      85A      0.955065    86A      0.971180    87A      0.973824
      88A      0.991342    89A      1.022783    90A      1.048252
      91A      1.073587    92A      1.114714    93A      1.120670
      94A      1.126908    95A      1.198961    96A      1.239147
      97A      1.310783    98A      1.314385    99A      1.355618
     100A      1.373431   101A      1.390773   102A      1.415155
     103A      1.434248   104A      1.460372   105A      1.475257
     106A      1.487582   107A      1.496115   108A      1.527234
     109A      1.584564   110A      1.637349   111A      1.671521
     112A      1.679811   113A      1.682274   114A      1.690056
     115A      1.693096   116A      1.708487   117A      1.767026
     118A      1.820705   119A      1.849764   120A      1.864745
     121A      1.866765   122A      1.876698   123A      1.891552
     124A      1.893172   125A      1.901393   126A      1.914302
     127A      1.926604   128A      1.932828   129A      1.937626
     130A      1.955188   131A      1.967628   132A      1.976250
     133A      1.983092   134A      1.986492   135A      1.993636
     136A      2.008861   137A      2.012484   138A      2.033850
     139A      2.040966   140A      2.053957   141A      2.095522
     142A      2.100125   143A      2.136633   144A      2.161407
     145A      2.200912   146A      2.219813   147A      2.268766
     148A      2.283168   149A      2.303010   150A      2.320927
     151A      2.331182   152A      2.356102   153A      2.388577
     154A      2.428682   155A      2.473371   156A      2.496588
     157A      2.531795   158A      2.543719   159A      2.554107
     160A      2.568233   161A      2.589642   162A      2.601366
     163A      2.608371   164A      2.633239   165A      2.648661
     166A      2.743346   167A      2.755012   168A      2.762885
     169A      2.772728   170A      2.777915   171A      2.812949
     172A      2.840466   173A      2.898262   174A      2.906805
     175A      2.930009   176A      2.953310   177A      2.979062
     178A      2.986586   179A      3.018185   180A      3.062046
     181A      3.103522   182A      3.153080   183A      3.299073
     184A      3.499313   185A      3.537629   186A      3.864006
     187A      3.905012

    Final Occupation by Irrep:
              A
    DOCC [    33 ]

  @RHF Final Energy:  -365.29721466607134

   => Energetics <=

    Nuclear Repulsion Energy =            370.8243257075675956
    One-Electron Energy =               -1230.4210927893275311
    Two-Electron Energy =                 494.2995524156885949
    Total Energy =                       -365.2972146660713406

Computation Completed

Properties will be evaluated at   0.000000,   0.000000,   0.000000 [a0]

Properties computed using the SCF density matrix

  Nuclear Dipole Moment: [e a0]
     X:     0.5613      Y:    11.7251      Z:    -8.3031

  Electronic Dipole Moment: [e a0]
     X:    -1.4432      Y:   -10.3514      Z:     8.5294

  Dipole Moment: [e a0]
     X:    -0.8819      Y:     1.3737      Z:     0.2263     Total:     1.6481

  Dipole Moment: [D]
     X:    -2.2416      Y:     3.4917      Z:     0.5753     Total:     4.1890

*** tstop() called on ds3 at Tue Apr 28 00:12:54 2020
Module time:
	user time   =      47.89 seconds =       0.80 minutes
	system time =      20.69 seconds =       0.34 minutes
	total time  =        122 seconds =       2.03 minutes
Total time:
	user time   =      47.89 seconds =       0.80 minutes
	system time =      20.69 seconds =       0.34 minutes
	total time  =        122 seconds =       2.03 minutes
                                     G D M A

                                 by Anthony Stone

                           version 2.2.06, 22 June 2011

               Distributed Multipoles from Gaussian wavefunctions

Starting at 0:12:54 on 28 Apr 2020

Using SCF density matrix from file ./SSI/SSI-024ASN-029ILE-1-dimer.test.4917.fchk

                         Distributed Multipole Analysis

Standard DMA

Positions and radii in angstrom
Multipole moments in atomic units, ea_0^k for rank k

C          x =  0.615024  y = -0.131917  z =  1.161807 angstrom
           Maximum rank =  0   Radius =  0.650 angstrom
                   Q00  =  -0.155737

C          x =  2.071024  y = -0.292917  z =  1.542807 angstrom
           Maximum rank =  0   Radius =  0.650 angstrom
                   Q00  =  -0.207658

C          x = -0.180976  y = -1.384917  z =  1.448807 angstrom
           Maximum rank =  0   Radius =  0.650 angstrom
                   Q00  =   0.853781

O          x =  0.292024  y = -2.517917  z =  1.299807 angstrom
           Maximum rank =  0   Radius =  0.650 angstrom
                   Q00  =  -0.824587

N          x = -1.432976  y = -1.195917  z =  1.819807 angstrom
           Maximum rank =  0   Radius =  0.650 angstrom
                   Q00  =  -0.534508

H          x =  0.195024  y =  0.704083  z =  1.724807 angstrom
           Maximum rank =  0   Radius =  0.325 angstrom
                   Q00  =   0.046195

H          x =  0.534024  y =  0.087083  z =  0.104807 angstrom
           Maximum rank =  0   Radius =  0.325 angstrom
                   Q00  =   0.124542

H          x =  2.095024  y = -0.608917  z =  2.588807 angstrom
           Maximum rank =  0   Radius =  0.325 angstrom
                   Q00  =   0.084126

H          x = -1.993976  y = -2.006917  z =  2.032807 angstrom
           Maximum rank =  0   Radius =  0.325 angstrom
                   Q00  =   0.217455

H          x = -1.800976  y = -0.263917  z =  1.942807 angstrom
           Maximum rank =  0   Radius =  0.325 angstrom
                   Q00  =   0.206890

H          x =  2.631374  y =  0.644523  z =  1.411581 angstrom
           Maximum rank =  0   Radius =  0.325 angstrom
                   Q00  =   0.077711

H          x =  2.581364  y = -1.068557  z =  0.952947 angstrom
           Maximum rank =  0   Radius =  0.325 angstrom
                   Q00  =   0.111532

C          x = -0.162976  y =  1.555083  z = -2.048193 angstrom
           Maximum rank =  0   Radius =  0.650 angstrom
                   Q00  =  -0.069789

C          x =  0.440024  y =  1.844083  z = -3.411193 angstrom
           Maximum rank =  0   Radius =  0.650 angstrom
                   Q00  =  -0.235878

C          x = -1.548976  y =  2.111083  z = -1.806193 angstrom
           Maximum rank =  0   Radius =  0.650 angstrom
                   Q00  =  -0.242574

H          x = -0.215976  y =  0.475083  z = -1.917193 angstrom
           Maximum rank =  0   Radius =  0.325 angstrom
                   Q00  =   0.040912

H          x =  0.459024  y =  1.973083  z = -1.259193 angstrom
           Maximum rank =  0   Radius =  0.325 angstrom
                   Q00  =   0.036888

H          x =  0.380024  y =  2.921083  z = -3.581193 angstrom
           Maximum rank =  0   Radius =  0.325 angstrom
                   Q00  =   0.071866

H          x = -2.267976  y =  1.647083  z = -2.481193 angstrom
           Maximum rank =  0   Radius =  0.325 angstrom
                   Q00  =   0.078580

H          x = -1.848976  y =  1.899083  z = -0.779193 angstrom
           Maximum rank =  0   Radius =  0.325 angstrom
                   Q00  =   0.072225

H          x = -1.548976  y =  3.191083  z = -1.960193 angstrom
           Maximum rank =  0   Radius =  0.325 angstrom
                   Q00  =   0.076348

H          x =  1.502274  y =  1.558483  z = -3.403319 angstrom
           Maximum rank =  0   Radius =  0.325 angstrom
                   Q00  =   0.087881

H          x = -0.108486  y =  1.364053  z = -4.235032 angstrom
           Maximum rank =  0   Radius =  0.325 angstrom
                   Q00  =   0.083799

Total multipoles referred to origin at
           x =   0.000000,  y =    0.000000,  z =    0.000000 angstrom
                   Q00  =  -0.000000

Finished at 0:12:54 on 28 Apr 2020

  DMA results are available in the Python driver through the
	  variable('DMA DISTRIBUTED MULTIPOLES')
  and
	  variable('DMA TOTAL MULTIPOLES')
  commands.

    Psi4 stopped on: Tuesday, 28 April 2020 12:12AM
    Psi4 wall time for execution: 0:02:01.68

*** Psi4 exiting successfully. Buy a developer a beer!
