                               Psi4 1.3.2 release

  ==> Input File <==

--------------------------------------------------------------------------
import numpy as np
set {scf_type pk
basis cc-pvdz
d_convergence 10
gdma_switch   0
gdma_limit    0
gdma_origin   [ 0.0,  0.0,  0.0 ]
}
molecule test {
    units Angstrom
    0 1
    --
    0 1
    C               -0.825429248523709    -1.451618061050942    -0.279521139823882
    C               -1.259429248523710    -1.398618061050942     1.191478860176117
    C               -1.934429248523710    -1.114618061050942    -1.264521139823882
    H               -0.000429248523710    -0.771618061050942    -0.457521139823883
    H               -0.462429248523710    -2.440618061050942    -0.529521139823882
    H               -2.117429248523709    -2.057618061050941     1.325478860176117
    H               -2.168429248523709    -0.052618061050942    -1.220521139823882
    H               -1.596429248523710    -1.345618061050942    -2.275521139823882
    H               -2.825429248523709    -1.705618061050942    -1.046521139823883
    H               -0.431299248523710    -1.739148061050942     1.830420660176117
    H               -1.558239248523710    -0.378918061050942     1.475961760176117
    C                1.409570751476291     1.510381938949058    -0.108521139823883
    C                2.552570751476290     2.360381938949058     0.450478860176117
    H                1.340570751476290     0.599381938949058     0.483478860176118
    H                0.464570751476290     2.051381938949059    -0.057521139823883
    H                1.566570751476291     1.254381938949058    -1.156521139823883
    H                2.631570751476290     3.262381938949058    -0.152521139823883
    H                3.499540751476291     1.801781938949058     0.415432860176117
    H                2.337720751476291     2.642781938949058     1.491676360176117

}
e, wfn = energy('scf', return_wfn=True)
gdma(wfn)
dmavals = variable('DMA DISTRIBUTED MULTIPOLES')
charges = np.array(dmavals)
print(charges)
np.save('SSI-011ILE-024ILE-2-dimer.npy', np.array(charges))--------------------------------------------------------------------------

*** tstart() called on ds3
*** at Tue Apr 28 13:40:40 2020

   => Loading Basis Set <=

    Name: CC-PVDZ
    Role: ORBITAL
    Keyword: BASIS
    atoms 1-3, 12-13  entry C          line   138 file /theoryfs2/ds/metcalf/miniconda2/envs/tf2gpu/share/psi4/basis/cc-pvdz.gbs
    atoms 4-11, 14-19 entry H          line    22 file /theoryfs2/ds/metcalf/miniconda2/envs/tf2gpu/share/psi4/basis/cc-pvdz.gbs

         ---------------------------------------------------------
                                   SCF
               by Justin Turney, Rob Parrish, Andy Simmonett
                          and Daniel G. A. Smith
                              RHF Reference
                        1 Threads,    500 MiB Core
         ---------------------------------------------------------

  ==> Geometry <==

    Molecular point group: c1
    Full point group: C1

    Geometry (in Angstrom), charge = 0, multiplicity = 1:

       Center              X                  Y                   Z               Mass
    ------------   -----------------  -----------------  -----------------  -----------------
         C           -0.825429248524    -1.451618061051    -0.279521139824    12.000000000000
         C           -1.259429248524    -1.398618061051     1.191478860176    12.000000000000
         C           -1.934429248524    -1.114618061051    -1.264521139824    12.000000000000
         H           -0.000429248524    -0.771618061051    -0.457521139824     1.007825032230
         H           -0.462429248524    -2.440618061051    -0.529521139824     1.007825032230
         H           -2.117429248524    -2.057618061051     1.325478860176     1.007825032230
         H           -2.168429248524    -0.052618061051    -1.220521139824     1.007825032230
         H           -1.596429248524    -1.345618061051    -2.275521139824     1.007825032230
         H           -2.825429248524    -1.705618061051    -1.046521139824     1.007825032230
         H           -0.431299248524    -1.739148061051     1.830420660176     1.007825032230
         H           -1.558239248524    -0.378918061051     1.475961760176     1.007825032230
         C            1.409570751476     1.510381938949    -0.108521139824    12.000000000000
         C            2.552570751476     2.360381938949     0.450478860176    12.000000000000
         H            1.340570751476     0.599381938949     0.483478860176     1.007825032230
         H            0.464570751476     2.051381938949    -0.057521139824     1.007825032230
         H            1.566570751476     1.254381938949    -1.156521139824     1.007825032230
         H            2.631570751476     3.262381938949    -0.152521139824     1.007825032230
         H            3.499540751476     1.801781938949     0.415432860176     1.007825032230
         H            2.337720751476     2.642781938949     1.491676360176     1.007825032230

  Running in c1 symmetry.

  Rotational constants: A =      0.23230  B =      0.03916  C =      0.03541 [cm^-1]
  Rotational constants: A =   6964.26644  B =   1173.91374  C =   1061.57056 [MHz]
  Nuclear repulsion =  177.790017216489986

  Charge       = 0
  Multiplicity = 1
  Electrons    = 44
  Nalpha       = 22
  Nbeta        = 22

  ==> Algorithm <==

  SCF Algorithm Type is PK.
  DIIS enabled.
  MOM disabled.
  Fractional occupation disabled.
  Guess Type is SAD.
  Energy threshold   = 1.00e-06
  Density threshold  = 1.00e-10
  Integral threshold = 0.00e+00

  ==> Primary Basis <==

  Basis Set: CC-PVDZ
    Blend: CC-PVDZ
    Number of shells: 72
    Number of basis function: 140
    Number of Cartesian functions: 145
    Spherical Harmonics?: true
    Max angular momentum: 2

  ==> Pre-Iterations <==

   -------------------------------------------------------
    Irrep   Nso     Nmo     Nalpha   Nbeta   Ndocc  Nsocc
   -------------------------------------------------------
     A        140     140       0       0       0       0
   -------------------------------------------------------
    Total     140     140      22      22      22       0
   -------------------------------------------------------

  ==> Integral Setup <==

  Using integral reordering PK algorithm.
  Sizing the integral batches needed.
  Building batch lookup table.
   Calculation information:
      Number of atoms:                  19
      Number of AO shells:              72
      Number of primitives:            180
      Number of atomic orbitals:       145
      Number of basis functions:       140

      Integral cutoff                 1.00e-12
      Number of threads:                 1

	Batch   1 pq = [       0,    9405] index = [             0,44231715] size =     44231715
	Batch   2 pq = [    9405,    9870] index = [      44231715,48713385] size =      4481670
  Task number: 5
  Buffer size: 11059200
  Buffer per thread: 2
  We computed 2824882 shell quartets total.
  Whereas there are 3454506 unique shell quartets.

  ==> DiskJK: Disk-Based J/K Matrices <==

    J tasked:                  Yes
    K tasked:                  Yes
    wK tasked:                  No
    Memory [MiB]:              375
    Schwarz Cutoff:          1E-12

    OpenMP threads:              1

  Minimum eigenvalue in the overlap matrix is 5.5401752781E-03.
  Using Symmetric Orthogonalization.

  SCF Guess: Superposition of Atomic Densities via on-the-fly atomic UHF.

  ==> Iterations <==

                        Total Energy        Delta E     RMS |[F,P]|

   @RHF iter SAD:  -196.38123697177122   -1.96381e+02   0.00000e+00
   @RHF iter   1:  -197.31163808966878   -9.30401e-01   3.80111e-03 DIIS
   @RHF iter   2:  -197.47174973432419   -1.60112e-01   1.63106e-03 DIIS
   @RHF iter   3:  -197.49987037840754   -2.81206e-02   3.25578e-04 DIIS
   @RHF iter   4:  -197.50209689620743   -2.22652e-03   4.78411e-05 DIIS
   @RHF iter   5:  -197.50213541950643   -3.85233e-05   1.47070e-05 DIIS
   @RHF iter   6:  -197.50213874551889   -3.32601e-06   2.46797e-06 DIIS
   @RHF iter   7:  -197.50213885470131   -1.09182e-07   4.67494e-07 DIIS
   @RHF iter   8:  -197.50213885917941   -4.47810e-09   1.17772e-07 DIIS
   @RHF iter   9:  -197.50213885945197   -2.72564e-10   3.74842e-08 DIIS
   @RHF iter  10:  -197.50213885948330   -3.13207e-11   8.13089e-09 DIIS
   @RHF iter  11:  -197.50213885948455   -1.25056e-12   1.56473e-09 DIIS
   @RHF iter  12:  -197.50213885948466   -1.13687e-13   2.91668e-10 DIIS
   @RHF iter  13:  -197.50213885948460    5.68434e-14   5.14716e-11 DIIS
  Energy and wave function converged.

  ==> Post-Iterations <==

    Orbital Energies [Eh]
    ---------------------

    Doubly Occupied:

       1A    -11.220180     2A    -11.217687     3A    -11.217523
       4A    -11.214227     5A    -11.212534     6A     -1.052244
       7A     -1.019052     8A     -0.924105     9A     -0.838983
      10A     -0.795939    11A     -0.625326    12A     -0.602188
      13A     -0.595435    14A     -0.593471    15A     -0.548975
      16A     -0.532038    17A     -0.504243    18A     -0.490674
      19A     -0.485010    20A     -0.468792    21A     -0.468250
      22A     -0.462047

    Virtual:

      23A      0.170221    24A      0.194527    25A      0.214920
      26A      0.224332    27A      0.233276    28A      0.253766
      29A      0.262339    30A      0.267946    31A      0.276186
      32A      0.280396    33A      0.299920    34A      0.303069
      35A      0.310265    36A      0.335549    37A      0.369484
      38A      0.417277    39A      0.426705    40A      0.574712
      41A      0.580605    42A      0.601568    43A      0.607086
      44A      0.618939    45A      0.622798    46A      0.633686
      47A      0.674529    48A      0.708875    49A      0.734959
      50A      0.790050    51A      0.798765    52A      0.851042
      53A      0.872671    54A      0.881760    55A      0.890862
      56A      0.891139    57A      0.895063    58A      0.896916
      59A      0.903022    60A      0.906299    61A      0.913147
      62A      0.918258    63A      0.937222    64A      0.940118
      65A      0.946764    66A      0.971050    67A      1.005174
      68A      1.017209    69A      1.118681    70A      1.127673
      71A      1.131450    72A      1.149512    73A      1.225738
      74A      1.280375    75A      1.380326    76A      1.462587
      77A      1.469168    78A      1.484944    79A      1.503478
      80A      1.518815    81A      1.578774    82A      1.645573
      83A      1.675160    84A      1.679147    85A      1.687011
      86A      1.693271    87A      1.700148    88A      1.844082
      89A      1.856623    90A      1.871447    91A      1.876504
      92A      1.889965    93A      1.910618    94A      1.920742
      95A      1.931959    96A      1.936669    97A      1.944189
      98A      1.950772    99A      1.955983   100A      1.965634
     101A      1.973367   102A      1.983645   103A      1.999970
     104A      2.004565   105A      2.014970   106A      2.044018
     107A      2.059172   108A      2.087289   109A      2.118891
     110A      2.130645   111A      2.160999   112A      2.287908
     113A      2.299973   114A      2.306322   115A      2.329463
     116A      2.342760   117A      2.355749   118A      2.456723
     119A      2.466744   120A      2.498014   121A      2.539680
     122A      2.548437   123A      2.576014   124A      2.592030
     125A      2.624515   126A      2.629216   127A      2.756056
     128A      2.762513   129A      2.770151   130A      2.789829
     131A      2.795881   132A      2.818606   133A      2.846005
     134A      2.861378   135A      2.936827   136A      2.950298
     137A      2.962398   138A      2.969554   139A      2.979252
     140A      3.088488

    Final Occupation by Irrep:
              A
    DOCC [    22 ]

  @RHF Final Energy:  -197.50213885948460

   => Energetics <=

    Nuclear Repulsion Energy =            177.7900172164899857
    One-Electron Energy =                -616.4064647640904013
    Two-Electron Energy =                 241.1143086881157842
    Total Energy =                       -197.5021388594846030

Computation Completed

Properties will be evaluated at   0.000000,   0.000000,   0.000000 [a0]

Properties computed using the SCF density matrix

  Nuclear Dipole Moment: [e a0]
     X:     0.6379      Y:     1.0503      Z:     0.1184

  Electronic Dipole Moment: [e a0]
     X:    -0.5877      Y:    -1.0411      Z:    -0.1377

  Dipole Moment: [e a0]
     X:     0.0501      Y:     0.0092      Z:    -0.0194     Total:     0.0545

  Dipole Moment: [D]
     X:     0.1275      Y:     0.0233      Z:    -0.0492     Total:     0.1386

*** tstop() called on ds3 at Tue Apr 28 13:41:11 2020
Module time:
	user time   =      14.90 seconds =       0.25 minutes
	system time =       5.94 seconds =       0.10 minutes
	total time  =         31 seconds =       0.52 minutes
Total time:
	user time   =      14.90 seconds =       0.25 minutes
	system time =       5.94 seconds =       0.10 minutes
	total time  =         31 seconds =       0.52 minutes
                                     G D M A

                                 by Anthony Stone

                           version 2.2.06, 22 June 2011

               Distributed Multipoles from Gaussian wavefunctions

Starting at 13:41:11 on 28 Apr 2020

Using SCF density matrix from file ./SSI/SSI-011ILE-024ILE-2-dimer.test.21582.fchk

                         Distributed Multipole Analysis

Standard DMA

Positions and radii in angstrom
Multipole moments in atomic units, ea_0^k for rank k

C          x = -0.825429  y = -1.451618  z = -0.279521 angstrom
           Maximum rank =  0   Radius =  0.650 angstrom
                   Q00  =  -0.086350

C          x = -1.259429  y = -1.398618  z =  1.191479 angstrom
           Maximum rank =  0   Radius =  0.650 angstrom
                   Q00  =  -0.246431

C          x = -1.934429  y = -1.114618  z = -1.264521 angstrom
           Maximum rank =  0   Radius =  0.650 angstrom
                   Q00  =  -0.242896

H          x = -0.000429  y = -0.771618  z = -0.457521 angstrom
           Maximum rank =  0   Radius =  0.325 angstrom
                   Q00  =   0.057691

H          x = -0.462429  y = -2.440618  z = -0.529521 angstrom
           Maximum rank =  0   Radius =  0.325 angstrom
                   Q00  =   0.043596

H          x = -2.117429  y = -2.057618  z =  1.325479 angstrom
           Maximum rank =  0   Radius =  0.325 angstrom
                   Q00  =   0.078568

H          x = -2.168429  y = -0.052618  z = -1.220521 angstrom
           Maximum rank =  0   Radius =  0.325 angstrom
                   Q00  =   0.076169

H          x = -1.596429  y = -1.345618  z = -2.275521 angstrom
           Maximum rank =  0   Radius =  0.325 angstrom
                   Q00  =   0.081251

H          x = -2.825429  y = -1.705618  z = -1.046521 angstrom
           Maximum rank =  0   Radius =  0.325 angstrom
                   Q00  =   0.074917

H          x = -0.431299  y = -1.739148  z =  1.830421 angstrom
           Maximum rank =  0   Radius =  0.325 angstrom
                   Q00  =   0.083375

H          x = -1.558239  y = -0.378918  z =  1.475962 angstrom
           Maximum rank =  0   Radius =  0.325 angstrom
                   Q00  =   0.077051

C          x =  1.409571  y =  1.510382  z = -0.108521 angstrom
           Maximum rank =  0   Radius =  0.650 angstrom
                   Q00  =  -0.254626

C          x =  2.552571  y =  2.360382  z =  0.450479 angstrom
           Maximum rank =  0   Radius =  0.650 angstrom
                   Q00  =  -0.220497

H          x =  1.340571  y =  0.599382  z =  0.483479 angstrom
           Maximum rank =  0   Radius =  0.325 angstrom
                   Q00  =   0.077805

H          x =  0.464571  y =  2.051382  z = -0.057521 angstrom
           Maximum rank =  0   Radius =  0.325 angstrom
                   Q00  =   0.080591

H          x =  1.566571  y =  1.254382  z = -1.156521 angstrom
           Maximum rank =  0   Radius =  0.325 angstrom
                   Q00  =   0.078550

H          x =  2.631571  y =  3.262382  z = -0.152521 angstrom
           Maximum rank =  0   Radius =  0.325 angstrom
                   Q00  =   0.080015

H          x =  3.499541  y =  1.801782  z =  0.415433 angstrom
           Maximum rank =  0   Radius =  0.325 angstrom
                   Q00  =   0.080337

H          x =  2.337721  y =  2.642782  z =  1.491676 angstrom
           Maximum rank =  0   Radius =  0.325 angstrom
                   Q00  =   0.080882

Total multipoles referred to origin at
           x =   0.000000,  y =    0.000000,  z =    0.000000 angstrom
                   Q00  =  -0.000000

Finished at 13:41:11 on 28 Apr 2020

  DMA results are available in the Python driver through the
	  variable('DMA DISTRIBUTED MULTIPOLES')
  and
	  variable('DMA TOTAL MULTIPOLES')
  commands.

    Psi4 stopped on: Tuesday, 28 April 2020 01:41PM
    Psi4 wall time for execution: 0:00:31.20

*** Psi4 exiting successfully. Buy a developer a beer!
