                               Psi4 1.3.2 release

  ==> Input File <==

--------------------------------------------------------------------------
import numpy as np
set {scf_type pk
basis cc-pvdz
d_convergence 10
gdma_switch   0
gdma_limit    0
gdma_origin   [ 0.0,  0.0,  0.0 ]
}
molecule test {
    units Angstrom
    0 1
    --
    0 1
    C               -0.779785893306142    -5.001162673239101    -1.760959598221993
    C                0.927214106693858    -1.774162673239100    -0.723959598221993
    C                0.764214106693858    -0.987162673239100    -1.849959598221993
    C                0.426214106693858    -3.069162673239100    -0.695959598221993
    C               -0.241785893306142    -3.593162673239100    -1.790959598221993
    C                0.115214106693858    -1.504162673239100    -2.956959598221993
    C               -0.384785893306142    -2.802162673239101    -2.928959598221993
    H                1.444214106693857    -1.377162673239100     0.137040401778007
    H                1.129214106693857     0.026837326760900    -1.858959598221993
    H                0.582214106693858    -3.675162673239100     0.185040401778007
    H               -0.014785893306142    -0.898162673239100    -3.839959598221993
    H               -0.349785893306142    -5.520162673239101    -0.906959598221993
    H               -0.454785893306142    -5.525162673239100    -2.657959598221993
    H               -0.857785893306143    -3.197162673239100    -3.815959598221993
    H               -1.873387893306143    -5.066377673239100    -1.662059598221993
    C               -0.821785893306142     5.053837326760900     1.629040401778007
    C                0.431214106693858     0.950837326760900     1.955040401778007
    C               -0.416785893306142     1.499837326760900     2.907040401778007
    C                0.890214106693858     1.736837326760900     0.904040401778007
    C               -0.826785893306142     2.813837326760900     2.790040401778007
    C                0.492214106693857     3.062837326760900     0.803040401778007
    C               -0.388785893306142     3.606837326760900     1.733040401778007
    H                0.723214106693858    -0.085162673239100     2.024040401778007
    H               -0.777785893306142     0.896837326760900     3.726040401778007
    H                1.552214106693858     1.313837326760900     0.165040401778007
    H               -1.466785893306143     3.228837326760900     3.555040401778007
    H                0.866214106693858     3.668837326760900    -0.008959598221993
    H               -0.186785893306142     5.553837326760900     0.904040401778007
    H               -0.666785893306142     5.540837326760899     2.591040401778007
    H               -1.863249893306142     5.189399326760900     1.301970401778007

}
e, wfn = energy('scf', return_wfn=True)
gdma(wfn)
dmavals = variable('DMA DISTRIBUTED MULTIPOLES')
charges = np.array(dmavals)
print(charges)
np.save('SSI-080PHE-166PHE-1-dimer.npy', np.array(charges))--------------------------------------------------------------------------

*** tstart() called on ds3
*** at Tue Apr 28 14:02:36 2020

   => Loading Basis Set <=

    Name: CC-PVDZ
    Role: ORBITAL
    Keyword: BASIS
    atoms 1-7, 16-22  entry C          line   138 file /theoryfs2/ds/metcalf/miniconda2/envs/tf2gpu/share/psi4/basis/cc-pvdz.gbs
    atoms 8-15, 23-30 entry H          line    22 file /theoryfs2/ds/metcalf/miniconda2/envs/tf2gpu/share/psi4/basis/cc-pvdz.gbs

         ---------------------------------------------------------
                                   SCF
               by Justin Turney, Rob Parrish, Andy Simmonett
                          and Daniel G. A. Smith
                              RHF Reference
                        1 Threads,    500 MiB Core
         ---------------------------------------------------------

  ==> Geometry <==

    Molecular point group: c1
    Full point group: C1

    Geometry (in Angstrom), charge = 0, multiplicity = 1:

       Center              X                  Y                   Z               Mass
    ------------   -----------------  -----------------  -----------------  -----------------
         C           -0.779785893306    -5.001162673239    -1.760959598222    12.000000000000
         C            0.927214106694    -1.774162673239    -0.723959598222    12.000000000000
         C            0.764214106694    -0.987162673239    -1.849959598222    12.000000000000
         C            0.426214106694    -3.069162673239    -0.695959598222    12.000000000000
         C           -0.241785893306    -3.593162673239    -1.790959598222    12.000000000000
         C            0.115214106694    -1.504162673239    -2.956959598222    12.000000000000
         C           -0.384785893306    -2.802162673239    -2.928959598222    12.000000000000
         H            1.444214106694    -1.377162673239     0.137040401778     1.007825032230
         H            1.129214106694     0.026837326761    -1.858959598222     1.007825032230
         H            0.582214106694    -3.675162673239     0.185040401778     1.007825032230
         H           -0.014785893306    -0.898162673239    -3.839959598222     1.007825032230
         H           -0.349785893306    -5.520162673239    -0.906959598222     1.007825032230
         H           -0.454785893306    -5.525162673239    -2.657959598222     1.007825032230
         H           -0.857785893306    -3.197162673239    -3.815959598222     1.007825032230
         H           -1.873387893306    -5.066377673239    -1.662059598222     1.007825032230
         C           -0.821785893306     5.053837326761     1.629040401778    12.000000000000
         C            0.431214106694     0.950837326761     1.955040401778    12.000000000000
         C           -0.416785893306     1.499837326761     2.907040401778    12.000000000000
         C            0.890214106694     1.736837326761     0.904040401778    12.000000000000
         C           -0.826785893306     2.813837326761     2.790040401778    12.000000000000
         C            0.492214106694     3.062837326761     0.803040401778    12.000000000000
         C           -0.388785893306     3.606837326761     1.733040401778    12.000000000000
         H            0.723214106694    -0.085162673239     2.024040401778     1.007825032230
         H           -0.777785893306     0.896837326761     3.726040401778     1.007825032230
         H            1.552214106694     1.313837326761     0.165040401778     1.007825032230
         H           -1.466785893306     3.228837326761     3.555040401778     1.007825032230
         H            0.866214106694     3.668837326761    -0.008959598222     1.007825032230
         H           -0.186785893306     5.553837326761     0.904040401778     1.007825032230
         H           -0.666785893306     5.540837326761     2.591040401778     1.007825032230
         H           -1.863249893306     5.189399326761     1.301970401778     1.007825032230

  Running in c1 symmetry.

  Rotational constants: A =      0.05375  B =      0.00730  C =      0.00684 [cm^-1]
  Rotational constants: A =   1611.25775  B =    218.89355  C =    205.15545 [MHz]
  Nuclear repulsion =  746.620284520479231

  Charge       = 0
  Multiplicity = 1
  Electrons    = 100
  Nalpha       = 50
  Nbeta        = 50

  ==> Algorithm <==

  SCF Algorithm Type is PK.
  DIIS enabled.
  MOM disabled.
  Fractional occupation disabled.
  Guess Type is SAD.
  Energy threshold   = 1.00e-06
  Density threshold  = 1.00e-10
  Integral threshold = 0.00e+00

  ==> Primary Basis <==

  Basis Set: CC-PVDZ
    Blend: CC-PVDZ
    Number of shells: 132
    Number of basis function: 276
    Number of Cartesian functions: 290
    Spherical Harmonics?: true
    Max angular momentum: 2

  ==> Pre-Iterations <==

   -------------------------------------------------------
    Irrep   Nso     Nmo     Nalpha   Nbeta   Ndocc  Nsocc
   -------------------------------------------------------
     A        276     276       0       0       0       0
   -------------------------------------------------------
    Total     276     276      50      50      50       0
   -------------------------------------------------------

  ==> Integral Setup <==

  Using integral reordering PK algorithm.
  Sizing the integral batches needed.
  Building batch lookup table.
   Calculation information:
      Number of atoms:                  30
      Number of AO shells:             132
      Number of primitives:            388
      Number of atomic orbitals:       290
      Number of basis functions:       276

      Integral cutoff                 1.00e-12
      Number of threads:                 1

	Batch   1 pq = [       0,    9405] index = [             0,44231715] size =     44231715
	Batch   2 pq = [    9405,   13301] index = [      44231715,88464951] size =     44233236
	Batch   3 pq = [   13301,   16290] index = [      88464951,132690195] size =     44225244
	Batch   4 pq = [   16290,   18810] index = [     132690195,176917455] size =     44227260
	Batch   5 pq = [   18810,   21030] index = [     176917455,221140965] size =     44223510
	Batch   6 pq = [   21030,   23037] index = [     221140965,265363203] size =     44222238
	Batch   7 pq = [   23037,   24883] index = [     265363203,309594286] size =     44231083
	Batch   8 pq = [   24883,   26601] index = [     309594286,353819901] size =     44225615
	Batch   9 pq = [   26601,   28214] index = [     353819901,398029005] size =     44209104
	Batch  10 pq = [   28214,   29740] index = [     398029005,442248670] size =     44219665
	Batch  11 pq = [   29740,   31191] index = [     442248670,486454836] size =     44206166
	Batch  12 pq = [   31191,   32578] index = [     486454836,530679331] size =     44224495
	Batch  13 pq = [   32578,   33908] index = [     530679331,574893186] size =     44213855
	Batch  14 pq = [   33908,   35188] index = [     574893186,619115266] size =     44222080
	Batch  15 pq = [   35188,   36423] index = [     619115266,663335676] size =     44220410
	Batch  16 pq = [   36423,   37617] index = [     663335676,707538153] size =     44202477
	Batch  17 pq = [   37617,   38226] index = [     707538153,730632651] size =     23094498
  Task number: 67
  Buffer size: 11059200
  Buffer per thread: 2
  We computed 30026422 shell quartets total.
  Whereas there are 38531031 unique shell quartets.

  ==> DiskJK: Disk-Based J/K Matrices <==

    J tasked:                  Yes
    K tasked:                  Yes
    wK tasked:                  No
    Memory [MiB]:              375
    Schwarz Cutoff:          1E-12

    OpenMP threads:              1

  Minimum eigenvalue in the overlap matrix is 2.9417925418E-04.
  Using Symmetric Orthogonalization.

  SCF Guess: Superposition of Atomic Densities via on-the-fly atomic UHF.

  ==> Iterations <==

                        Total Energy        Delta E     RMS |[F,P]|

   @RHF iter SAD:  -538.48506716706834   -5.38485e+02   0.00000e+00
   @RHF iter   1:  -539.22320278390953   -7.38136e-01   2.32504e-03 DIIS
   @RHF iter   2:  -539.47749400628959   -2.54291e-01   9.56232e-04 DIIS
   @RHF iter   3:  -539.51550897179732   -3.80150e-02   2.17125e-04 DIIS
   @RHF iter   4:  -539.51869243108433   -3.18346e-03   4.93939e-05 DIIS
   @RHF iter   5:  -539.51881399185868   -1.21561e-04   1.53608e-05 DIIS
   @RHF iter   6:  -539.51882498267742   -1.09908e-05   4.51301e-06 DIIS
   @RHF iter   7:  -539.51882614579426   -1.16312e-06   1.14497e-06 DIIS
   @RHF iter   8:  -539.51882624805273   -1.02258e-07   3.21984e-07 DIIS
   @RHF iter   9:  -539.51882626514725   -1.70945e-08   1.37855e-07 DIIS
   @RHF iter  10:  -539.51882626859879   -3.45153e-09   7.08066e-08 DIIS
   @RHF iter  11:  -539.51882626980228   -1.20349e-09   2.62196e-08 DIIS
   @RHF iter  12:  -539.51882626995484   -1.52568e-10   1.10595e-08 DIIS
   @RHF iter  13:  -539.51882626996962   -1.47793e-11   3.60234e-09 DIIS
   @RHF iter  14:  -539.51882626997349   -3.86535e-12   9.07568e-10 DIIS
   @RHF iter  15:  -539.51882626996996    3.52429e-12   4.76860e-10 DIIS
   @RHF iter  16:  -539.51882626997281   -2.84217e-12   2.05721e-10 DIIS
   @RHF iter  17:  -539.51882626997212    6.82121e-13   8.93153e-11 DIIS
  Energy and wave function converged.

  ==> Post-Iterations <==

    Orbital Energies [Eh]
    ---------------------

    Doubly Occupied:

       1A    -11.239834     2A    -11.238956     3A    -11.233855
       4A    -11.232883     5A    -11.232737     6A    -11.232481
       7A    -11.229538     8A    -11.229370     9A    -11.228811
      10A    -11.228592    11A    -11.228419    12A    -11.228271
      13A    -11.228037    14A    -11.227718    15A     -1.154752
      16A     -1.153882    17A     -1.045274    18A     -1.042658
      19A     -1.013573    20A     -1.011588    21A     -0.932040
      22A     -0.930999    23A     -0.825972    24A     -0.823107
      25A     -0.798008    26A     -0.795484    27A     -0.695711
      28A     -0.688920    29A     -0.632532    30A     -0.632122
      31A     -0.628494    32A     -0.628338    33A     -0.584510
      34A     -0.581838    35A     -0.576803    36A     -0.575977
      37A     -0.563410    38A     -0.560127    39A     -0.534109
      40A     -0.533459    41A     -0.490056    42A     -0.487868
      43A     -0.484529    44A     -0.483899    45A     -0.481866
      46A     -0.478540    47A     -0.333537    48A     -0.331701
      49A     -0.324252    50A     -0.319428

    Virtual:

      51A      0.134620    52A      0.135690    53A      0.144723
      54A      0.146870    55A      0.173373    56A      0.191325
      57A      0.199574    58A      0.207938    59A      0.218500
      60A      0.220600    61A      0.243844    62A      0.245733
      63A      0.259236    64A      0.260988    65A      0.271777
      66A      0.275171    67A      0.288610    68A      0.296211
      69A      0.319398    70A      0.353858    71A      0.365641
      72A      0.370681    73A      0.374803    74A      0.380154
      75A      0.442753    76A      0.449820    77A      0.467271
      78A      0.467884    79A      0.490289    80A      0.492484
      81A      0.503457    82A      0.518433    83A      0.566848
      84A      0.578342    85A      0.597402    86A      0.604532
      87A      0.631926    88A      0.633397    89A      0.666052
      90A      0.680041    91A      0.684184    92A      0.697624
      93A      0.702158    94A      0.707495    95A      0.716472
      96A      0.718349    97A      0.727533    98A      0.737844
      99A      0.743164   100A      0.745035   101A      0.747876
     102A      0.752178   103A      0.754097   104A      0.757648
     105A      0.766093   106A      0.768680   107A      0.781892
     108A      0.782803   109A      0.787519   110A      0.793624
     111A      0.815440   112A      0.838282   113A      0.854795
     114A      0.864934   115A      0.873252   116A      0.873756
     117A      0.879853   118A      0.885689   119A      0.889535
     120A      0.897626   121A      0.900235   122A      0.907542
     123A      0.916192   124A      0.919017   125A      0.925537
     126A      0.937820   127A      0.940978   128A      0.943402
     129A      0.945085   130A      0.975819   131A      0.997636
     132A      0.999106   133A      1.016372   134A      1.026412
     135A      1.049148   136A      1.054227   137A      1.125075
     138A      1.132503   139A      1.140923   140A      1.151618
     141A      1.156568   142A      1.157010   143A      1.173130
     144A      1.174747   145A      1.194141   146A      1.210478
     147A      1.218660   148A      1.243044   149A      1.247035
     150A      1.247463   151A      1.253565   152A      1.265232
     153A      1.269118   154A      1.290505   155A      1.299525
     156A      1.301741   157A      1.306638   158A      1.311783
     159A      1.318605   160A      1.329107   161A      1.333434
     162A      1.354622   163A      1.420182   164A      1.420922
     165A      1.505541   166A      1.510838   167A      1.520695
     168A      1.536584   169A      1.548751   170A      1.554374
     171A      1.603862   172A      1.623112   173A      1.678657
     174A      1.680519   175A      1.691197   176A      1.693349
     177A      1.737879   178A      1.740978   179A      1.748307
     180A      1.752991   181A      1.759598   182A      1.763378
     183A      1.789375   184A      1.794497   185A      1.819015
     186A      1.819926   187A      1.863093   188A      1.868075
     189A      1.893502   190A      1.895984   191A      1.899348
     192A      1.902102   193A      1.906087   194A      1.912692
     195A      1.918603   196A      1.919444   197A      1.926056
     198A      1.935186   199A      1.945548   200A      1.946111
     201A      1.948518   202A      1.965062   203A      1.973000
     204A      1.976422   205A      1.980463   206A      1.983609
     207A      2.005261   208A      2.027462   209A      2.033676
     210A      2.041699   211A      2.054133   212A      2.059833
     213A      2.079360   214A      2.084876   215A      2.108696
     216A      2.115619   217A      2.136106   218A      2.138700
     219A      2.157433   220A      2.175013   221A      2.176636
     222A      2.179455   223A      2.185825   224A      2.193825
     225A      2.200983   226A      2.217485   227A      2.251407
     228A      2.255025   229A      2.278307   230A      2.281219
     231A      2.292504   232A      2.294457   233A      2.310914
     234A      2.315694   235A      2.328530   236A      2.335458
     237A      2.348199   238A      2.351579   239A      2.456871
     240A      2.462375   241A      2.474130   242A      2.479229
     243A      2.520026   244A      2.524448   245A      2.540618
     246A      2.542214   247A      2.630442   248A      2.633772
     249A      2.741571   250A      2.744633   251A      2.760248
     252A      2.763533   253A      2.772827   254A      2.775357
     255A      2.796608   256A      2.812391   257A      2.819968
     258A      2.826915   259A      2.852960   260A      2.855407
     261A      2.874204   262A      2.883769   263A      2.990359
     264A      2.995940   265A      3.008678   266A      3.022726
     267A      3.030403   268A      3.038787   269A      3.164239
     270A      3.169224   271A      3.213208   272A      3.216962
     273A      3.305486   274A      3.319006   275A      3.981677
     276A      3.986693

    Final Occupation by Irrep:
              A
    DOCC [    50 ]

  @RHF Final Energy:  -539.51882626997212

   => Energetics <=

    Nuclear Repulsion Energy =            746.6202845204792311
    One-Electron Energy =               -2209.4804970557715933
    Two-Electron Energy =                 923.3413862653201249
    Total Energy =                       -539.5188262699721236

Computation Completed

Properties will be evaluated at   0.000000,   0.000000,   0.000000 [a0]

Properties computed using the SCF density matrix

  Nuclear Dipole Moment: [e a0]
     X:    -2.0762      Y:     0.0701      Z:    -0.1514

  Electronic Dipole Moment: [e a0]
     X:     1.9589      Y:    -0.0648      Z:     0.1408

  Dipole Moment: [e a0]
     X:    -0.1173      Y:     0.0053      Z:    -0.0106     Total:     0.1179

  Dipole Moment: [D]
     X:    -0.2981      Y:     0.0134      Z:    -0.0270     Total:     0.2996

*** tstop() called on ds3 at Tue Apr 28 14:11:05 2020
Module time:
	user time   =     257.97 seconds =       4.30 minutes
	system time =     113.56 seconds =       1.89 minutes
	total time  =        509 seconds =       8.48 minutes
Total time:
	user time   =     257.97 seconds =       4.30 minutes
	system time =     113.56 seconds =       1.89 minutes
	total time  =        509 seconds =       8.48 minutes
                                     G D M A

                                 by Anthony Stone

                           version 2.2.06, 22 June 2011

               Distributed Multipoles from Gaussian wavefunctions

Starting at 14:11:5 on 28 Apr 2020

Using SCF density matrix from file ./SSI/SSI-080PHE-166PHE-1-dimer.test.19487.fchk

                         Distributed Multipole Analysis

Standard DMA

Positions and radii in angstrom
Multipole moments in atomic units, ea_0^k for rank k

C          x = -0.779786  y = -5.001163  z = -1.760960 angstrom
           Maximum rank =  0   Radius =  0.650 angstrom
                   Q00  =  -0.206381

C          x =  0.927214  y = -1.774163  z = -0.723960 angstrom
           Maximum rank =  0   Radius =  0.650 angstrom
                   Q00  =  -0.021966

C          x =  0.764214  y = -0.987163  z = -1.849960 angstrom
           Maximum rank =  0   Radius =  0.650 angstrom
                   Q00  =  -0.073581

C          x =  0.426214  y = -3.069163  z = -0.695960 angstrom
           Maximum rank =  0   Radius =  0.650 angstrom
                   Q00  =  -0.035862

C          x = -0.241786  y = -3.593163  z = -1.790960 angstrom
           Maximum rank =  0   Radius =  0.650 angstrom
                   Q00  =  -0.101233

C          x =  0.115214  y = -1.504163  z = -2.956960 angstrom
           Maximum rank =  0   Radius =  0.650 angstrom
                   Q00  =  -0.074494

C          x = -0.384786  y = -2.802163  z = -2.928960 angstrom
           Maximum rank =  0   Radius =  0.650 angstrom
                   Q00  =  -0.075530

H          x =  1.444214  y = -1.377163  z =  0.137040 angstrom
           Maximum rank =  0   Radius =  0.325 angstrom
                   Q00  =   0.057878

H          x =  1.129214  y =  0.026837  z = -1.858960 angstrom
           Maximum rank =  0   Radius =  0.325 angstrom
                   Q00  =   0.055749

H          x =  0.582214  y = -3.675163  z =  0.185040 angstrom
           Maximum rank =  0   Radius =  0.325 angstrom
                   Q00  =   0.055634

H          x = -0.014786  y = -0.898163  z = -3.839960 angstrom
           Maximum rank =  0   Radius =  0.325 angstrom
                   Q00  =   0.063321

H          x = -0.349786  y = -5.520163  z = -0.906960 angstrom
           Maximum rank =  0   Radius =  0.325 angstrom
                   Q00  =   0.095594

H          x = -0.454786  y = -5.525163  z = -2.657960 angstrom
           Maximum rank =  0   Radius =  0.325 angstrom
                   Q00  =   0.100787

H          x = -0.857786  y = -3.197163  z = -3.815960 angstrom
           Maximum rank =  0   Radius =  0.325 angstrom
                   Q00  =   0.054881

H          x = -1.873388  y = -5.066378  z = -1.662060 angstrom
           Maximum rank =  0   Radius =  0.325 angstrom
                   Q00  =   0.105270

C          x = -0.821786  y =  5.053837  z =  1.629040 angstrom
           Maximum rank =  0   Radius =  0.650 angstrom
                   Q00  =  -0.203730

C          x =  0.431214  y =  0.950837  z =  1.955040 angstrom
           Maximum rank =  0   Radius =  0.650 angstrom
                   Q00  =  -0.085995

C          x = -0.416786  y =  1.499837  z =  2.907040 angstrom
           Maximum rank =  0   Radius =  0.650 angstrom
                   Q00  =  -0.063691

C          x =  0.890214  y =  1.736837  z =  0.904040 angstrom
           Maximum rank =  0   Radius =  0.650 angstrom
                   Q00  =  -0.059694

C          x = -0.826786  y =  2.813837  z =  2.790040 angstrom
           Maximum rank =  0   Radius =  0.650 angstrom
                   Q00  =   0.009084

C          x =  0.492214  y =  3.062837  z =  0.803040 angstrom
           Maximum rank =  0   Radius =  0.650 angstrom
                   Q00  =  -0.084283

C          x = -0.388786  y =  3.606837  z =  1.733040 angstrom
           Maximum rank =  0   Radius =  0.650 angstrom
                   Q00  =  -0.103057

H          x =  0.723214  y = -0.085163  z =  2.024040 angstrom
           Maximum rank =  0   Radius =  0.325 angstrom
                   Q00  =   0.056642

H          x = -0.777786  y =  0.896837  z =  3.726040 angstrom
           Maximum rank =  0   Radius =  0.325 angstrom
                   Q00  =   0.063277

H          x =  1.552214  y =  1.313837  z =  0.165040 angstrom
           Maximum rank =  0   Radius =  0.325 angstrom
                   Q00  =   0.059039

H          x = -1.466786  y =  3.228837  z =  3.555040 angstrom
           Maximum rank =  0   Radius =  0.325 angstrom
                   Q00  =   0.053662

H          x =  0.866214  y =  3.668837  z = -0.008960 angstrom
           Maximum rank =  0   Radius =  0.325 angstrom
                   Q00  =   0.056824

H          x = -0.186786  y =  5.553837  z =  0.904040 angstrom
           Maximum rank =  0   Radius =  0.325 angstrom
                   Q00  =   0.096394

H          x = -0.666786  y =  5.540837  z =  2.591040 angstrom
           Maximum rank =  0   Radius =  0.325 angstrom
                   Q00  =   0.100592

H          x = -1.863250  y =  5.189399  z =  1.301970 angstrom
           Maximum rank =  0   Radius =  0.325 angstrom
                   Q00  =   0.104869

Total multipoles referred to origin at
           x =   0.000000,  y =    0.000000,  z =    0.000000 angstrom
                   Q00  =  -0.000000

Finished at 14:11:5 on 28 Apr 2020

  DMA results are available in the Python driver through the
	  variable('DMA DISTRIBUTED MULTIPOLES')
  and
	  variable('DMA TOTAL MULTIPOLES')
  commands.

    Psi4 stopped on: Tuesday, 28 April 2020 02:11PM
    Psi4 wall time for execution: 0:08:29.24

*** Psi4 exiting successfully. Buy a developer a beer!
