                               Psi4 1.3.2 release

  ==> Input File <==

--------------------------------------------------------------------------
import numpy as np
set {scf_type pk
basis cc-pvdz
d_convergence 10
gdma_switch   0
gdma_limit    0
gdma_origin   [ 0.0,  0.0,  0.0 ]
}
molecule test {
    units Angstrom
    -1 1
    --
    -1 1
    C               -0.682336749393407     2.907232976639369    -0.665663603251021
    C               -1.198336749393407     4.350232976639369    -0.662663603251022
    C                0.608663250606593     2.740232976639369     0.096336396748979
    O                1.679663250606593     3.042232976639370    -0.474663603251022
    O                0.555663250606593     2.274232976639369     1.244336396748979
    H               -1.459336749393407     2.265232976639369    -0.253663603251021
    H               -0.494336749393407     2.568232976639369    -1.675663603251021
    H               -1.538336749393407     4.574232976639371     0.349336396748979
    H               -2.030981749393407     4.435010976639369    -1.376467603251021
    H               -0.409793749393407     5.073063976639370    -0.919012603251022
    C               -0.883336749393407    -3.961767023360631    -2.070663603251021
    C               -0.768336749393407    -0.830767023360631     0.130336396748979
    C                0.218663250606593    -1.188767023360631     1.053336396748978
    C               -1.134336749393407    -1.723767023360631    -0.879663603251021
    C               -0.530336749393407    -2.984767023360631    -0.970663603251022
    C                0.831663250606593    -2.441767023360631     0.965336396748979
    C                0.449663250606593    -3.330767023360630    -0.033663603251021
    O                0.589663250606593    -0.298767023360631     2.023336396748979
    H               -1.250336749393407     0.128232976639369     0.218336396748979
    H               -1.875336749393407    -1.413767023360631    -1.592663603251021
    H                1.591663250606593    -2.725767023360630     1.680336396748979
    H                1.266663250606593    -0.652767023360631     2.605336396748979
    H               -0.489336749393407    -4.952767023360630    -1.833663603251021
    H               -0.348336749393407    -3.614767023360631    -2.956663603251021
    H                0.928663250606593    -4.300767023360630    -0.089663603251021
    H               -1.952831749393407    -4.044207023360631    -2.314354603251021

}
e, wfn = energy('scf', return_wfn=True)
gdma(wfn)
dmavals = variable('DMA DISTRIBUTED MULTIPOLES')
charges = np.array(dmavals)
print(charges)
np.save('SSI-012ASP-069TYR-1-dimer.npy', np.array(charges))--------------------------------------------------------------------------

*** tstart() called on ds3
*** at Mon Apr 27 18:22:45 2020

   => Loading Basis Set <=

    Name: CC-PVDZ
    Role: ORBITAL
    Keyword: BASIS
    atoms 1-3, 11-17  entry C          line   138 file /theoryfs2/ds/metcalf/miniconda2/envs/tf2gpu/share/psi4/basis/cc-pvdz.gbs
    atoms 4-5, 18     entry O          line   198 file /theoryfs2/ds/metcalf/miniconda2/envs/tf2gpu/share/psi4/basis/cc-pvdz.gbs
    atoms 6-10, 19-26 entry H          line    22 file /theoryfs2/ds/metcalf/miniconda2/envs/tf2gpu/share/psi4/basis/cc-pvdz.gbs

         ---------------------------------------------------------
                                   SCF
               by Justin Turney, Rob Parrish, Andy Simmonett
                          and Daniel G. A. Smith
                              RHF Reference
                        1 Threads,    500 MiB Core
         ---------------------------------------------------------

  ==> Geometry <==

    Molecular point group: c1
    Full point group: C1

    Geometry (in Angstrom), charge = -1, multiplicity = 1:

       Center              X                  Y                   Z               Mass
    ------------   -----------------  -----------------  -----------------  -----------------
         C           -0.682336749393     2.907232976639    -0.665663603251    12.000000000000
         C           -1.198336749393     4.350232976639    -0.662663603251    12.000000000000
         C            0.608663250607     2.740232976639     0.096336396749    12.000000000000
         O            1.679663250607     3.042232976639    -0.474663603251    15.994914619570
         O            0.555663250607     2.274232976639     1.244336396749    15.994914619570
         H           -1.459336749393     2.265232976639    -0.253663603251     1.007825032230
         H           -0.494336749393     2.568232976639    -1.675663603251     1.007825032230
         H           -1.538336749393     4.574232976639     0.349336396749     1.007825032230
         H           -2.030981749393     4.435010976639    -1.376467603251     1.007825032230
         H           -0.409793749393     5.073063976639    -0.919012603251     1.007825032230
         C           -0.883336749393    -3.961767023361    -2.070663603251    12.000000000000
         C           -0.768336749393    -0.830767023361     0.130336396749    12.000000000000
         C            0.218663250607    -1.188767023361     1.053336396749    12.000000000000
         C           -1.134336749393    -1.723767023361    -0.879663603251    12.000000000000
         C           -0.530336749393    -2.984767023361    -0.970663603251    12.000000000000
         C            0.831663250607    -2.441767023361     0.965336396749    12.000000000000
         C            0.449663250607    -3.330767023361    -0.033663603251    12.000000000000
         O            0.589663250607    -0.298767023361     2.023336396749    15.994914619570
         H           -1.250336749393     0.128232976639     0.218336396749     1.007825032230
         H           -1.875336749393    -1.413767023361    -1.592663603251     1.007825032230
         H            1.591663250607    -2.725767023361     1.680336396749     1.007825032230
         H            1.266663250607    -0.652767023361     2.605336396749     1.007825032230
         H           -0.489336749393    -4.952767023361    -1.833663603251     1.007825032230
         H           -0.348336749393    -3.614767023361    -2.956663603251     1.007825032230
         H            0.928663250607    -4.300767023361    -0.089663603251     1.007825032230
         H           -1.952831749393    -4.044207023361    -2.314354603251     1.007825032230

  Running in c1 symmetry.

  Rotational constants: A =      0.04427  B =      0.01150  C =      0.01004 [cm^-1]
  Rotational constants: A =   1327.11258  B =    344.77524  C =    300.87042 [MHz]
  Nuclear repulsion =  740.091884708259499

  Charge       = -1
  Multiplicity = 1
  Electrons    = 98
  Nalpha       = 49
  Nbeta        = 49

  ==> Algorithm <==

  SCF Algorithm Type is PK.
  DIIS enabled.
  MOM disabled.
  Fractional occupation disabled.
  Guess Type is SAD.
  Energy threshold   = 1.00e-06
  Density threshold  = 1.00e-10
  Integral threshold = 0.00e+00

  ==> Primary Basis <==

  Basis Set: CC-PVDZ
    Blend: CC-PVDZ
    Number of shells: 117
    Number of basis function: 247
    Number of Cartesian functions: 260
    Spherical Harmonics?: true
    Max angular momentum: 2

  ==> Pre-Iterations <==

   -------------------------------------------------------
    Irrep   Nso     Nmo     Nalpha   Nbeta   Ndocc  Nsocc
   -------------------------------------------------------
     A        247     247       0       0       0       0
   -------------------------------------------------------
    Total     247     247      49      49      49       0
   -------------------------------------------------------

  ==> Integral Setup <==

  Using integral reordering PK algorithm.
  Sizing the integral batches needed.
  Building batch lookup table.
   Calculation information:
      Number of atoms:                  26
      Number of AO shells:             117
      Number of primitives:            351
      Number of atomic orbitals:       260
      Number of basis functions:       247

      Integral cutoff                 1.00e-12
      Number of threads:                 1

	Batch   1 pq = [       0,    9405] index = [             0,44231715] size =     44231715
	Batch   2 pq = [    9405,   13301] index = [      44231715,88464951] size =     44233236
	Batch   3 pq = [   13301,   16290] index = [      88464951,132690195] size =     44225244
	Batch   4 pq = [   16290,   18810] index = [     132690195,176917455] size =     44227260
	Batch   5 pq = [   18810,   21030] index = [     176917455,221140965] size =     44223510
	Batch   6 pq = [   21030,   23037] index = [     221140965,265363203] size =     44222238
	Batch   7 pq = [   23037,   24883] index = [     265363203,309594286] size =     44231083
	Batch   8 pq = [   24883,   26601] index = [     309594286,353819901] size =     44225615
	Batch   9 pq = [   26601,   28214] index = [     353819901,398029005] size =     44209104
	Batch  10 pq = [   28214,   29740] index = [     398029005,442248670] size =     44219665
	Batch  11 pq = [   29740,   30628] index = [     442248670,469052506] size =     26803836
  Task number: 43
  Buffer size: 11059200
  Buffer per thread: 2
  We computed 19293399 shell quartets total.
  Whereas there are 23829156 unique shell quartets.

  ==> DiskJK: Disk-Based J/K Matrices <==

    J tasked:                  Yes
    K tasked:                  Yes
    wK tasked:                  No
    Memory [MiB]:              375
    Schwarz Cutoff:          1E-12

    OpenMP threads:              1

  Minimum eigenvalue in the overlap matrix is 3.2413447692E-04.
  Using Symmetric Orthogonalization.

  SCF Guess: Superposition of Atomic Densities via on-the-fly atomic UHF.

  ==> Iterations <==

                        Total Energy        Delta E     RMS |[F,P]|

   @RHF iter SAD:  -609.16952752136172   -6.09170e+02   0.00000e+00
   @RHF iter   1:  -610.49528678201966   -1.32576e+00   3.44653e-03 DIIS
   @RHF iter   2:  -610.80710311317762   -3.11816e-01   1.79241e-03 DIIS
   @RHF iter   3:  -610.88132896440652   -7.42259e-02   3.18587e-04 DIIS
   @RHF iter   4:  -610.88548177881364   -4.15281e-03   1.22239e-04 DIIS
   @RHF iter   5:  -610.88605667973297   -5.74901e-04   2.01631e-05 DIIS
   @RHF iter   6:  -610.88608190710113   -2.52274e-05   6.90044e-06 DIIS
   @RHF iter   7:  -610.88608482109339   -2.91399e-06   2.97570e-06 DIIS
   @RHF iter   8:  -610.88608542253132   -6.01438e-07   1.09509e-06 DIIS
   @RHF iter   9:  -610.88608556141492   -1.38884e-07   4.56222e-07 DIIS
   @RHF iter  10:  -610.88608559477882   -3.33639e-08   2.01766e-07 DIIS
   @RHF iter  11:  -610.88608560319267   -8.41385e-09   7.57840e-08 DIIS
   @RHF iter  12:  -610.88608560420005   -1.00738e-09   3.84900e-08 DIIS
   @RHF iter  13:  -610.88608560433693   -1.36879e-10   1.11806e-08 DIIS
   @RHF iter  14:  -610.88608560435341   -1.64846e-11   3.66901e-09 DIIS
   @RHF iter  15:  -610.88608560435250    9.09495e-13   1.50952e-09 DIIS
   @RHF iter  16:  -610.88608560436046   -7.95808e-12   6.73819e-10 DIIS
   @RHF iter  17:  -610.88608560435591    4.54747e-12   3.36180e-10 DIIS
   @RHF iter  18:  -610.88608560435614   -2.27374e-13   1.40354e-10 DIIS
   @RHF iter  19:  -610.88608560436307   -6.93490e-12   4.96828e-11 DIIS
  Energy and wave function converged.

  ==> Post-Iterations <==

    Orbital Energies [Eh]
    ---------------------

    Doubly Occupied:

       1A    -20.452032     2A    -20.249563     3A    -20.246810
       4A    -11.190212     5A    -11.147147     6A    -11.141176
       7A    -11.137934     8A    -11.136372     9A    -11.130357
      10A    -11.120044    11A    -11.101030    12A    -11.080314
      13A    -11.046374    14A     -1.268681    15A     -1.143901
      16A     -1.045951    17A     -1.028536    18A     -0.936704
      19A     -0.913613    20A     -0.872064    21A     -0.829795
      22A     -0.736974    23A     -0.704492    24A     -0.696372
      25A     -0.617103    26A     -0.560915    27A     -0.538913
      28A     -0.506657    29A     -0.500518    30A     -0.489957
      31A     -0.483857    32A     -0.464912    33A     -0.454425
      34A     -0.452099    35A     -0.428812    36A     -0.419506
      37A     -0.399682    38A     -0.386116    39A     -0.375497
      40A     -0.365228    41A     -0.363020    42A     -0.357983
      43A     -0.318919    44A     -0.293405    45A     -0.235925
      46A     -0.192210    47A     -0.171947    48A     -0.162358
      49A     -0.149457

    Virtual:

      50A      0.233250    51A      0.257564    52A      0.267706
      53A      0.285395    54A      0.310840    55A      0.313190
      56A      0.330886    57A      0.347578    58A      0.351649
      59A      0.377304    60A      0.383259    61A      0.383803
      62A      0.408890    63A      0.425137    64A      0.456981
      65A      0.461122    66A      0.476303    67A      0.503036
      68A      0.543629    69A      0.546657    70A      0.552442
      71A      0.576592    72A      0.595104    73A      0.606655
      74A      0.619188    75A      0.694766    76A      0.710588
      77A      0.713995    78A      0.734141    79A      0.744672
      80A      0.760561    81A      0.766723    82A      0.785098
      83A      0.796373    84A      0.803882    85A      0.813516
      86A      0.821119    87A      0.830737    88A      0.839617
      89A      0.860074    90A      0.867518    91A      0.881391
      92A      0.889466    93A      0.897199    94A      0.927731
      95A      0.948446    96A      0.959606    97A      0.965543
      98A      0.975296    99A      0.980582   100A      0.988352
     101A      0.998210   102A      1.009553   103A      1.017113
     104A      1.021203   105A      1.028193   106A      1.035978
     107A      1.042504   108A      1.046517   109A      1.056536
     110A      1.060602   111A      1.071688   112A      1.085965
     113A      1.100548   114A      1.122748   115A      1.128727
     116A      1.148872   117A      1.173546   118A      1.198195
     119A      1.228109   120A      1.240311   121A      1.247741
     122A      1.257825   123A      1.270553   124A      1.291288
     125A      1.311431   126A      1.320038   127A      1.340809
     128A      1.349259   129A      1.362106   130A      1.380632
     131A      1.391455   132A      1.408963   133A      1.416573
     134A      1.437470   135A      1.465437   136A      1.482004
     137A      1.488075   138A      1.535886   139A      1.546607
     140A      1.565899   141A      1.582992   142A      1.597828
     143A      1.607256   144A      1.615405   145A      1.658743
     146A      1.660739   147A      1.671482   148A      1.687294
     149A      1.712971   150A      1.732341   151A      1.749195
     152A      1.762564   153A      1.790660   154A      1.813533
     155A      1.823629   156A      1.837408   157A      1.841624
     158A      1.870887   159A      1.906707   160A      1.911207
     161A      1.943982   162A      1.967049   163A      1.976616
     164A      1.984472   165A      2.000733   166A      2.012046
     167A      2.019472   168A      2.023068   169A      2.027914
     170A      2.042816   171A      2.049328   172A      2.052757
     173A      2.066113   174A      2.071256   175A      2.076297
     176A      2.105549   177A      2.128576   178A      2.133647
     179A      2.151554   180A      2.159083   181A      2.163596
     182A      2.170593   183A      2.173758   184A      2.187870
     185A      2.196874   186A      2.215326   187A      2.225594
     188A      2.252331   189A      2.269819   190A      2.297164
     191A      2.315192   192A      2.320978   193A      2.331927
     194A      2.356404   195A      2.372136   196A      2.383243
     197A      2.402917   198A      2.440542   199A      2.462741
     200A      2.493204   201A      2.514684   202A      2.524474
     203A      2.558228   204A      2.569386   205A      2.582706
     206A      2.588285   207A      2.622866   208A      2.626781
     209A      2.680495   210A      2.699594   211A      2.713459
     212A      2.747309   213A      2.756138   214A      2.781838
     215A      2.833838   216A      2.843718   217A      2.845702
     218A      2.865238   219A      2.901413   220A      2.918300
     221A      2.931048   222A      2.987787   223A      2.992777
     224A      3.002390   225A      3.047482   226A      3.067460
     227A      3.108308   228A      3.137243   229A      3.189738
     230A      3.229516   231A      3.253725   232A      3.296227
     233A      3.311384   234A      3.375298   235A      3.383619
     236A      3.386059   237A      3.478601   238A      3.654231
     239A      3.708270   240A      3.795290   241A      3.822027
     242A      3.856718   243A      4.073118   244A      4.083208
     245A      4.120209   246A      4.219145   247A      4.328856

    Final Occupation by Irrep:
              A
    DOCC [    49 ]

  @RHF Final Energy:  -610.88608560436307

   => Energetics <=

    Nuclear Repulsion Energy =            740.0918847082594993
    One-Electron Energy =               -2317.8642054082265531
    Two-Electron Energy =                 966.8862350956040927
    Total Energy =                       -610.8860856043630747

Computation Completed

Properties will be evaluated at   0.000000,   0.000000,   0.000000 [a0]

Properties computed using the SCF density matrix

  Nuclear Dipole Moment: [e a0]
     X:    -7.5443      Y:    -2.4703      Z:    -7.6349

  Electronic Dipole Moment: [e a0]
     X:     5.7816      Y:    -2.3102      Z:     7.2308

  Dipole Moment: [e a0]
     X:    -1.7627      Y:    -4.7805      Z:    -0.4041     Total:     5.1111

  Dipole Moment: [D]
     X:    -4.4802      Y:   -12.1509      Z:    -1.0270     Total:    12.9912

*** tstop() called on ds3 at Mon Apr 27 18:28:56 2020
Module time:
	user time   =     159.85 seconds =       2.66 minutes
	system time =      72.66 seconds =       1.21 minutes
	total time  =        371 seconds =       6.18 minutes
Total time:
	user time   =     159.85 seconds =       2.66 minutes
	system time =      72.66 seconds =       1.21 minutes
	total time  =        371 seconds =       6.18 minutes
                                     G D M A

                                 by Anthony Stone

                           version 2.2.06, 22 June 2011

               Distributed Multipoles from Gaussian wavefunctions

Starting at 18:28:56 on 27 Apr 2020

Using SCF density matrix from file ./SSI/SSI-012ASP-069TYR-1-dimer.test.20999.fchk

                         Distributed Multipole Analysis

Standard DMA

Positions and radii in angstrom
Multipole moments in atomic units, ea_0^k for rank k

C          x = -0.682337  y =  2.907233  z = -0.665664 angstrom
           Maximum rank =  0   Radius =  0.650 angstrom
                   Q00  =  -0.079909

C          x = -1.198337  y =  4.350233  z = -0.662664 angstrom
           Maximum rank =  0   Radius =  0.650 angstrom
                   Q00  =  -0.212171

C          x =  0.608663  y =  2.740233  z =  0.096336 angstrom
           Maximum rank =  0   Radius =  0.650 angstrom
                   Q00  =   0.970001

O          x =  1.679663  y =  3.042233  z = -0.474664 angstrom
           Maximum rank =  0   Radius =  0.650 angstrom
                   Q00  =  -0.954870

O          x =  0.555663  y =  2.274233  z =  1.244336 angstrom
           Maximum rank =  0   Radius =  0.650 angstrom
                   Q00  =  -0.912653

H          x = -1.459337  y =  2.265233  z = -0.253664 angstrom
           Maximum rank =  0   Radius =  0.325 angstrom
                   Q00  =   0.004134

H          x = -0.494337  y =  2.568233  z = -1.675664 angstrom
           Maximum rank =  0   Radius =  0.325 angstrom
                   Q00  =   0.026325

H          x = -1.538337  y =  4.574233  z =  0.349336 angstrom
           Maximum rank =  0   Radius =  0.325 angstrom
                   Q00  =   0.061002

H          x = -2.030982  y =  4.435011  z = -1.376468 angstrom
           Maximum rank =  0   Radius =  0.325 angstrom
                   Q00  =   0.029217

H          x = -0.409794  y =  5.073064  z = -0.919013 angstrom
           Maximum rank =  0   Radius =  0.325 angstrom
                   Q00  =   0.076426

C          x = -0.883337  y = -3.961767  z = -2.070664 angstrom
           Maximum rank =  0   Radius =  0.650 angstrom
                   Q00  =  -0.206390

C          x = -0.768337  y = -0.830767  z =  0.130336 angstrom
           Maximum rank =  0   Radius =  0.650 angstrom
                   Q00  =  -0.092187

C          x =  0.218663  y = -1.188767  z =  1.053336 angstrom
           Maximum rank =  0   Radius =  0.650 angstrom
                   Q00  =   0.363741

C          x = -1.134337  y = -1.723767  z = -0.879664 angstrom
           Maximum rank =  0   Radius =  0.650 angstrom
                   Q00  =  -0.028392

C          x = -0.530337  y = -2.984767  z = -0.970664 angstrom
           Maximum rank =  0   Radius =  0.650 angstrom
                   Q00  =  -0.140227

C          x =  0.831663  y = -2.441767  z =  0.965336 angstrom
           Maximum rank =  0   Radius =  0.650 angstrom
                   Q00  =  -0.189293

C          x =  0.449663  y = -3.330767  z = -0.033664 angstrom
           Maximum rank =  0   Radius =  0.650 angstrom
                   Q00  =   0.025941

O          x =  0.589663  y = -0.298767  z =  2.023336 angstrom
           Maximum rank =  0   Radius =  0.650 angstrom
                   Q00  =  -0.626493

H          x = -1.250337  y =  0.128233  z =  0.218336 angstrom
           Maximum rank =  0   Radius =  0.325 angstrom
                   Q00  =   0.103189

H          x = -1.875337  y = -1.413767  z = -1.592664 angstrom
           Maximum rank =  0   Radius =  0.325 angstrom
                   Q00  =   0.045685

H          x =  1.591663  y = -2.725767  z =  1.680336 angstrom
           Maximum rank =  0   Radius =  0.325 angstrom
                   Q00  =   0.056023

H          x =  1.266663  y = -0.652767  z =  2.605336 angstrom
           Maximum rank =  0   Radius =  0.325 angstrom
                   Q00  =   0.378549

H          x = -0.489337  y = -4.952767  z = -1.833664 angstrom
           Maximum rank =  0   Radius =  0.325 angstrom
                   Q00  =   0.082468

H          x = -0.348337  y = -3.614767  z = -2.956664 angstrom
           Maximum rank =  0   Radius =  0.325 angstrom
                   Q00  =   0.088939

H          x =  0.928663  y = -4.300767  z = -0.089664 angstrom
           Maximum rank =  0   Radius =  0.325 angstrom
                   Q00  =   0.044448

H          x = -1.952832  y = -4.044207  z = -2.314355 angstrom
           Maximum rank =  0   Radius =  0.325 angstrom
                   Q00  =   0.086498

Total multipoles referred to origin at
           x =   0.000000,  y =    0.000000,  z =    0.000000 angstrom
                   Q00  =  -1.000000

Finished at 18:28:56 on 27 Apr 2020

  DMA results are available in the Python driver through the
	  variable('DMA DISTRIBUTED MULTIPOLES')
  and
	  variable('DMA TOTAL MULTIPOLES')
  commands.

    Psi4 stopped on: Monday, 27 April 2020 06:28PM
    Psi4 wall time for execution: 0:06:10.88

*** Psi4 exiting successfully. Buy a developer a beer!
