                               Psi4 1.3.2 release

  ==> Input File <==

--------------------------------------------------------------------------
import numpy as np
set {scf_type pk
basis cc-pvdz
d_convergence 10
gdma_switch   0
gdma_limit    0
gdma_origin   [ 0.0,  0.0,  0.0 ]
}
molecule test {
    units Angstrom
    0 1
    --
    0 1
    C               -2.772113841444105     0.227291350148166     0.435482799694013
    C               -1.306113841444105     0.510291350148166     0.505482799694013
    C               -0.751113841444105     1.463291350148166    -0.340517200305987
    C               -0.500113841444105    -0.113708649851834     1.458482799694013
    C                0.603886158555895     1.770291350148166    -0.268517200305987
    C                0.843886158555895     0.195291350148166     1.548482799694013
    C                1.402886158555895     1.133291350148166     0.677482799694013
    H               -2.986113841444105    -0.736708649851834     0.900482799694013
    H               -3.054113841444105     0.158291350148166    -0.613517200305987
    H               -1.372113841444105     1.969291350148166    -1.066517200305987
    H               -0.931113841444105    -0.839708649851834     2.133482799694014
    H                1.029886158555895     2.507291350148166    -0.934517200305987
    H                1.466886158555895    -0.288708649851834     2.288482799694014
    H                2.454886158555895     1.375291350148166     0.742482799694013
    H               -3.371073841444105     1.016531350148166     0.913349799694014
    C                0.551886158555895    -1.865708649851834    -1.740517200305987
    C                1.883886158555895    -2.620708649851834    -1.759517200305987
    H                0.586886158555895    -0.999708649851834    -2.397517200305987
    H               -0.250113841444105    -2.523708649851834    -2.072517200305987
    H                0.335886158555895    -1.530708649851834    -0.728517200305987
    H                2.042886158555895    -3.011708649851834    -2.765517200305986
    H                2.716746158555895    -1.956148649851834    -1.486212200305987
    H                1.842866158555895    -3.469868649851834    -1.061482200305987

}
e, wfn = energy('scf', return_wfn=True)
gdma(wfn)
dmavals = variable('DMA DISTRIBUTED MULTIPOLES')
charges = np.array(dmavals)
print(charges)
np.save('SSI-057PHE-098VAL-1-dimer.npy', np.array(charges))--------------------------------------------------------------------------

*** tstart() called on ds3
*** at Tue Apr 28 20:09:16 2020

   => Loading Basis Set <=

    Name: CC-PVDZ
    Role: ORBITAL
    Keyword: BASIS
    atoms 1-7, 16-17  entry C          line   138 file /theoryfs2/ds/metcalf/miniconda2/envs/tf2gpu/share/psi4/basis/cc-pvdz.gbs
    atoms 8-15, 18-23 entry H          line    22 file /theoryfs2/ds/metcalf/miniconda2/envs/tf2gpu/share/psi4/basis/cc-pvdz.gbs

         ---------------------------------------------------------
                                   SCF
               by Justin Turney, Rob Parrish, Andy Simmonett
                          and Daniel G. A. Smith
                              RHF Reference
                        1 Threads,    500 MiB Core
         ---------------------------------------------------------

  ==> Geometry <==

    Molecular point group: c1
    Full point group: C1

    Geometry (in Angstrom), charge = 0, multiplicity = 1:

       Center              X                  Y                   Z               Mass
    ------------   -----------------  -----------------  -----------------  -----------------
         C           -2.772113841444     0.227291350148     0.435482799694    12.000000000000
         C           -1.306113841444     0.510291350148     0.505482799694    12.000000000000
         C           -0.751113841444     1.463291350148    -0.340517200306    12.000000000000
         C           -0.500113841444    -0.113708649852     1.458482799694    12.000000000000
         C            0.603886158556     1.770291350148    -0.268517200306    12.000000000000
         C            0.843886158556     0.195291350148     1.548482799694    12.000000000000
         C            1.402886158556     1.133291350148     0.677482799694    12.000000000000
         H           -2.986113841444    -0.736708649852     0.900482799694     1.007825032230
         H           -3.054113841444     0.158291350148    -0.613517200306     1.007825032230
         H           -1.372113841444     1.969291350148    -1.066517200306     1.007825032230
         H           -0.931113841444    -0.839708649852     2.133482799694     1.007825032230
         H            1.029886158556     2.507291350148    -0.934517200306     1.007825032230
         H            1.466886158556    -0.288708649852     2.288482799694     1.007825032230
         H            2.454886158556     1.375291350148     0.742482799694     1.007825032230
         H           -3.371073841444     1.016531350148     0.913349799694     1.007825032230
         C            0.551886158556    -1.865708649852    -1.740517200306    12.000000000000
         C            1.883886158556    -2.620708649852    -1.759517200306    12.000000000000
         H            0.586886158556    -0.999708649852    -2.397517200306     1.007825032230
         H           -0.250113841444    -2.523708649852    -2.072517200306     1.007825032230
         H            0.335886158556    -1.530708649852    -0.728517200306     1.007825032230
         H            2.042886158556    -3.011708649852    -2.765517200306     1.007825032230
         H            2.716746158556    -1.956148649852    -1.486212200306     1.007825032230
         H            1.842866158556    -3.469868649852    -1.061482200306     1.007825032230

  Running in c1 symmetry.

  Rotational constants: A =      0.05965  B =      0.03318  C =      0.02798 [cm^-1]
  Rotational constants: A =   1788.16412  B =    994.79392  C =    838.69618 [MHz]
  Nuclear repulsion =  419.845701097298445

  Charge       = 0
  Multiplicity = 1
  Electrons    = 68
  Nalpha       = 34
  Nbeta        = 34

  ==> Algorithm <==

  SCF Algorithm Type is PK.
  DIIS enabled.
  MOM disabled.
  Fractional occupation disabled.
  Guess Type is SAD.
  Energy threshold   = 1.00e-06
  Density threshold  = 1.00e-10
  Integral threshold = 0.00e+00

  ==> Primary Basis <==

  Basis Set: CC-PVDZ
    Blend: CC-PVDZ
    Number of shells: 96
    Number of basis function: 196
    Number of Cartesian functions: 205
    Spherical Harmonics?: true
    Max angular momentum: 2

  ==> Pre-Iterations <==

   -------------------------------------------------------
    Irrep   Nso     Nmo     Nalpha   Nbeta   Ndocc  Nsocc
   -------------------------------------------------------
     A        196     196       0       0       0       0
   -------------------------------------------------------
    Total     196     196      34      34      34       0
   -------------------------------------------------------

  ==> Integral Setup <==

  Using integral reordering PK algorithm.
  Sizing the integral batches needed.
  Building batch lookup table.
   Calculation information:
      Number of atoms:                  23
      Number of AO shells:              96
      Number of primitives:            268
      Number of atomic orbitals:       205
      Number of basis functions:       196

      Integral cutoff                 1.00e-12
      Number of threads:                 1

	Batch   1 pq = [       0,    9405] index = [             0,44231715] size =     44231715
	Batch   2 pq = [    9405,   13301] index = [      44231715,88464951] size =     44233236
	Batch   3 pq = [   13301,   16290] index = [      88464951,132690195] size =     44225244
	Batch   4 pq = [   16290,   18810] index = [     132690195,176917455] size =     44227260
	Batch   5 pq = [   18810,   19306] index = [     176917455,186370471] size =      9453016
  Task number: 17
  Buffer size: 11059200
  Buffer per thread: 2
  We computed 10735951 shell quartets total.
  Whereas there are 10841496 unique shell quartets.

  ==> DiskJK: Disk-Based J/K Matrices <==

    J tasked:                  Yes
    K tasked:                  Yes
    wK tasked:                  No
    Memory [MiB]:              375
    Schwarz Cutoff:          1E-12

    OpenMP threads:              1

  Minimum eigenvalue in the overlap matrix is 3.1053095797E-04.
  Using Symmetric Orthogonalization.

  SCF Guess: Superposition of Atomic Densities via on-the-fly atomic UHF.

  ==> Iterations <==

                        Total Energy        Delta E     RMS |[F,P]|

   @RHF iter SAD:  -347.90993692533453   -3.47910e+02   0.00000e+00
   @RHF iter   1:  -348.76630732975462   -8.56370e-01   2.90506e-03 DIIS
   @RHF iter   2:  -348.95945236104967   -1.93145e-01   1.20832e-03 DIIS
   @RHF iter   3:  -348.98991967090075   -3.04673e-02   2.58795e-04 DIIS
   @RHF iter   4:  -348.99238424778684   -2.46458e-03   5.43303e-05 DIIS
   @RHF iter   5:  -348.99246100194785   -7.67542e-05   1.79615e-05 DIIS
   @RHF iter   6:  -348.99246888779038   -7.88584e-06   4.87987e-06 DIIS
   @RHF iter   7:  -348.99246955492652   -6.67136e-07   1.25879e-06 DIIS
   @RHF iter   8:  -348.99246960239833   -4.74718e-08   2.81095e-07 DIIS
   @RHF iter   9:  -348.99246960638226   -3.98393e-09   1.11059e-07 DIIS
   @RHF iter  10:  -348.99246960703346   -6.51198e-10   4.54766e-08 DIIS
   @RHF iter  11:  -348.99246960723127   -1.97815e-10   1.75750e-08 DIIS
   @RHF iter  12:  -348.99246960726765   -3.63798e-11   8.39402e-09 DIIS
   @RHF iter  13:  -348.99246960727532   -7.67386e-12   3.30869e-09 DIIS
   @RHF iter  14:  -348.99246960727714   -1.81899e-12   7.18904e-10 DIIS
   @RHF iter  15:  -348.99246960727868   -1.53477e-12   2.99190e-10 DIIS
   @RHF iter  16:  -348.99246960727749    1.19371e-12   1.25205e-10 DIIS
   @RHF iter  17:  -348.99246960727567    1.81899e-12   4.78485e-11 DIIS
  Energy and wave function converged.

  ==> Post-Iterations <==

    Orbital Energies [Eh]
    ---------------------

    Doubly Occupied:

       1A    -11.239661     2A    -11.236747     3A    -11.236045
       4A    -11.232586     5A    -11.230294     6A    -11.230070
       7A    -11.228384     8A    -11.210650     9A    -11.202039
      10A     -1.155115    11A     -1.046015    12A     -1.014711
      13A     -1.006455    14A     -0.931302    15A     -0.826284
      16A     -0.825437    17A     -0.796694    18A     -0.691641
      19A     -0.633220    20A     -0.630773    21A     -0.589578
      22A     -0.586288    23A     -0.585257    24A     -0.577585
      25A     -0.562202    26A     -0.535812    27A     -0.496008
      28A     -0.486979    29A     -0.485016    30A     -0.483407
      31A     -0.476064    32A     -0.466509    33A     -0.334875
      34A     -0.321361

    Virtual:

      35A      0.135219    36A      0.139351    37A      0.177419
      38A      0.197351    39A      0.204744    40A      0.213867
      41A      0.241952    42A      0.252513    43A      0.253651
      44A      0.260398    45A      0.265914    46A      0.273827
      47A      0.283665    48A      0.291667    49A      0.298774
      50A      0.323728    51A      0.366651    52A      0.376969
      53A      0.404617    54A      0.451794    55A      0.459871
      56A      0.479023    57A      0.493321    58A      0.562634
      59A      0.580417    60A      0.588700    61A      0.595395
      62A      0.611362    63A      0.642043    64A      0.660024
      65A      0.677023    66A      0.685164    67A      0.693297
      68A      0.702574    69A      0.735913    70A      0.742070
      71A      0.746269    72A      0.762827    73A      0.775674
      74A      0.782909    75A      0.796826    76A      0.824206
      77A      0.843231    78A      0.855508    79A      0.860532
      80A      0.873721    81A      0.887962    82A      0.895080
      83A      0.896396    84A      0.899378    85A      0.903317
      86A      0.913762    87A      0.920904    88A      0.926518
      89A      0.932766    90A      0.938538    91A      0.948775
      92A      0.968118    93A      0.988352    94A      1.001560
      95A      1.033510    96A      1.101085    97A      1.128915
      98A      1.133593    99A      1.142372   100A      1.146340
     101A      1.156614   102A      1.163714   103A      1.197304
     104A      1.232642   105A      1.235977   106A      1.252359
     107A      1.256384   108A      1.297090   109A      1.304978
     110A      1.317086   111A      1.322174   112A      1.353547
     113A      1.419747   114A      1.481914   115A      1.490384
     116A      1.509485   117A      1.525309   118A      1.568058
     119A      1.602476   120A      1.607883   121A      1.666169
     122A      1.690136   123A      1.696306   124A      1.712032
     125A      1.735795   126A      1.744484   127A      1.759869
     128A      1.792063   129A      1.824676   130A      1.856258
     131A      1.870993   132A      1.880512   133A      1.886808
     134A      1.894779   135A      1.910392   136A      1.916003
     137A      1.920983   138A      1.930698   139A      1.941400
     140A      1.948915   141A      1.954113   142A      1.959877
     143A      1.966995   144A      1.971731   145A      1.980560
     146A      1.994293   147A      2.000588   148A      2.003619
     149A      2.047582   150A      2.069023   151A      2.092408
     152A      2.108900   153A      2.113735   154A      2.128311
     155A      2.142547   156A      2.159534   157A      2.175781
     158A      2.179239   159A      2.187762   160A      2.252960
     161A      2.278466   162A      2.287840   163A      2.296761
     164A      2.312835   165A      2.318447   166A      2.336085
     167A      2.338394   168A      2.461067   169A      2.467176
     170A      2.478980   171A      2.482975   172A      2.508579
     173A      2.540253   174A      2.570702   175A      2.593558
     176A      2.629619   177A      2.742974   178A      2.755247
     179A      2.771150   180A      2.772237   181A      2.787547
     182A      2.806879   183A      2.818428   184A      2.847648
     185A      2.865269   186A      2.871471   187A      2.879552
     188A      2.957144   189A      2.988980   190A      2.998413
     191A      3.014271   192A      3.033305   193A      3.155914
     194A      3.203675   195A      3.302047   196A      3.974104

    Final Occupation by Irrep:
              A
    DOCC [    34 ]

  @RHF Final Energy:  -348.99246960727567

   => Energetics <=

    Nuclear Repulsion Energy =            419.8457010972984449
    One-Electron Energy =               -1302.4942187050603479
    Two-Electron Energy =                 533.6560480004862939
    Total Energy =                       -348.9924696072756660

Computation Completed

Properties will be evaluated at   0.000000,   0.000000,   0.000000 [a0]

Properties computed using the SCF density matrix

  Nuclear Dipole Moment: [e a0]
     X:     0.4803      Y:    -7.8094      Z:    -5.7636

  Electronic Dipole Moment: [e a0]
     X:    -0.6528      Y:     7.8993      Z:     5.8213

  Dipole Moment: [e a0]
     X:    -0.1725      Y:     0.0899      Z:     0.0577     Total:     0.2029

  Dipole Moment: [D]
     X:    -0.4386      Y:     0.2285      Z:     0.1468     Total:     0.5158

*** tstop() called on ds3 at Tue Apr 28 20:10:56 2020
Module time:
	user time   =      74.38 seconds =       1.24 minutes
	system time =      28.71 seconds =       0.48 minutes
	total time  =        100 seconds =       1.67 minutes
Total time:
	user time   =      74.38 seconds =       1.24 minutes
	system time =      28.71 seconds =       0.48 minutes
	total time  =        100 seconds =       1.67 minutes
                                     G D M A

                                 by Anthony Stone

                           version 2.2.06, 22 June 2011

               Distributed Multipoles from Gaussian wavefunctions

Starting at 20:10:56 on 28 Apr 2020

Using SCF density matrix from file ./SSI/SSI-057PHE-098VAL-1-dimer.test.10987.fchk

                         Distributed Multipole Analysis

Standard DMA

Positions and radii in angstrom
Multipole moments in atomic units, ea_0^k for rank k

C          x = -2.772114  y =  0.227291  z =  0.435483 angstrom
           Maximum rank =  0   Radius =  0.650 angstrom
                   Q00  =  -0.200026

C          x = -1.306114  y =  0.510291  z =  0.505483 angstrom
           Maximum rank =  0   Radius =  0.650 angstrom
                   Q00  =  -0.091567

C          x = -0.751114  y =  1.463291  z = -0.340517 angstrom
           Maximum rank =  0   Radius =  0.650 angstrom
                   Q00  =  -0.016699

C          x = -0.500114  y = -0.113709  z =  1.458483 angstrom
           Maximum rank =  0   Radius =  0.650 angstrom
                   Q00  =  -0.057509

C          x =  0.603886  y =  1.770291  z = -0.268517 angstrom
           Maximum rank =  0   Radius =  0.650 angstrom
                   Q00  =  -0.065226

C          x =  0.843886  y =  0.195291  z =  1.548483 angstrom
           Maximum rank =  0   Radius =  0.650 angstrom
                   Q00  =  -0.077528

C          x =  1.402886  y =  1.133291  z =  0.677483 angstrom
           Maximum rank =  0   Radius =  0.650 angstrom
                   Q00  =  -0.091222

H          x = -2.986114  y = -0.736709  z =  0.900483 angstrom
           Maximum rank =  0   Radius =  0.325 angstrom
                   Q00  =   0.097642

H          x = -3.054114  y =  0.158291  z = -0.613517 angstrom
           Maximum rank =  0   Radius =  0.325 angstrom
                   Q00  =   0.098373

H          x = -1.372114  y =  1.969291  z = -1.066517 angstrom
           Maximum rank =  0   Radius =  0.325 angstrom
                   Q00  =   0.055155

H          x = -0.931114  y = -0.839709  z =  2.133483 angstrom
           Maximum rank =  0   Radius =  0.325 angstrom
                   Q00  =   0.056600

H          x =  1.029886  y =  2.507291  z = -0.934517 angstrom
           Maximum rank =  0   Radius =  0.325 angstrom
                   Q00  =   0.065881

H          x =  1.466886  y = -0.288709  z =  2.288483 angstrom
           Maximum rank =  0   Radius =  0.325 angstrom
                   Q00  =   0.065330

H          x =  2.454886  y =  1.375291  z =  0.742483 angstrom
           Maximum rank =  0   Radius =  0.325 angstrom
                   Q00  =   0.062109

H          x = -3.371074  y =  1.016531  z =  0.913350 angstrom
           Maximum rank =  0   Radius =  0.325 angstrom
                   Q00  =   0.103812

C          x =  0.551886  y = -1.865709  z = -1.740517 angstrom
           Maximum rank =  0   Radius =  0.650 angstrom
                   Q00  =  -0.246655

C          x =  1.883886  y = -2.620709  z = -1.759517 angstrom
           Maximum rank =  0   Radius =  0.650 angstrom
                   Q00  =  -0.227172

H          x =  0.586886  y = -0.999709  z = -2.397517 angstrom
           Maximum rank =  0   Radius =  0.325 angstrom
                   Q00  =   0.078223

H          x = -0.250114  y = -2.523709  z = -2.072517 angstrom
           Maximum rank =  0   Radius =  0.325 angstrom
                   Q00  =   0.068203

H          x =  0.335886  y = -1.530709  z = -0.728517 angstrom
           Maximum rank =  0   Radius =  0.325 angstrom
                   Q00  =   0.097312

H          x =  2.042886  y = -3.011709  z = -2.765517 angstrom
           Maximum rank =  0   Radius =  0.325 angstrom
                   Q00  =   0.072973

H          x =  2.716746  y = -1.956149  z = -1.486212 angstrom
           Maximum rank =  0   Radius =  0.325 angstrom
                   Q00  =   0.077902

H          x =  1.842866  y = -3.469869  z = -1.061482 angstrom
           Maximum rank =  0   Radius =  0.325 angstrom
                   Q00  =   0.074087

Total multipoles referred to origin at
           x =   0.000000,  y =    0.000000,  z =    0.000000 angstrom
                   Q00  =  -0.000000

Finished at 20:10:56 on 28 Apr 2020

  DMA results are available in the Python driver through the
	  variable('DMA DISTRIBUTED MULTIPOLES')
  and
	  variable('DMA TOTAL MULTIPOLES')
  commands.

    Psi4 stopped on: Tuesday, 28 April 2020 08:10PM
    Psi4 wall time for execution: 0:01:39.92

*** Psi4 exiting successfully. Buy a developer a beer!
