                               Psi4 1.3.2 release

  ==> Input File <==

--------------------------------------------------------------------------
import numpy as np
set {scf_type pk
basis cc-pvdz
d_convergence 10
gdma_switch   0
gdma_limit    0
gdma_origin   [ 0.0,  0.0,  0.0 ]
}
molecule test {
    units Angstrom
    0 1
    --
    0 1
    C               -1.178262144491369    -1.035679227066164     0.321267593076494
    C               -2.618262144491368    -1.598679227066164     0.410267593076494
    H               -1.043262144491369    -0.486679227066164    -0.607732406923505
    H               -1.009262144491369    -0.358679227066164     1.157267593076494
    H               -0.442262144491368    -1.833679227066164     0.372267593076494
    H               -2.756262144491368    -2.101679227066164     1.367267593076495
    H               -2.832292144491368    -2.295729227066164    -0.413322406923506
    H               -3.322262144491368    -0.755029227066164     0.358897593076494
    C                1.301737855508631     1.721320772933836    -0.224732406923506
    C                2.499737855508632     0.913320772933836    -0.500732406923506
    H                1.558737855508632     2.777320772933836    -0.150732406923506
    H                0.593737855508631     1.593320772933836    -1.042732406923506
    H                0.836737855508631     1.394320772933836     0.706267593076494
    H                2.958737855508632     1.278320772933836    -1.421732406923506
    H                2.137737855508631    -0.097679227066164    -0.690732406923506
    H                3.260957855508632     0.882500772933836     0.292737593076494

}
e, wfn = energy('scf', return_wfn=True)
gdma(wfn)
dmavals = variable('DMA DISTRIBUTED MULTIPOLES')
charges = np.array(dmavals)
print(charges)
np.save('SSI-017LEU-083ILE-1-dimer.npy', np.array(charges))--------------------------------------------------------------------------

*** tstart() called on ds3
*** at Mon Apr 27 16:03:40 2020

   => Loading Basis Set <=

    Name: CC-PVDZ
    Role: ORBITAL
    Keyword: BASIS
    atoms 1-2, 9-10  entry C          line   138 file /theoryfs2/ds/metcalf/miniconda2/envs/tf2gpu/share/psi4/basis/cc-pvdz.gbs
    atoms 3-8, 11-16 entry H          line    22 file /theoryfs2/ds/metcalf/miniconda2/envs/tf2gpu/share/psi4/basis/cc-pvdz.gbs

         ---------------------------------------------------------
                                   SCF
               by Justin Turney, Rob Parrish, Andy Simmonett
                          and Daniel G. A. Smith
                              RHF Reference
                        1 Threads,    500 MiB Core
         ---------------------------------------------------------

  ==> Geometry <==

    Molecular point group: c1
    Full point group: C1

    Geometry (in Angstrom), charge = 0, multiplicity = 1:

       Center              X                  Y                   Z               Mass
    ------------   -----------------  -----------------  -----------------  -----------------
         C           -1.178262144491    -1.035679227066     0.321267593076    12.000000000000
         C           -2.618262144491    -1.598679227066     0.410267593076    12.000000000000
         H           -1.043262144491    -0.486679227066    -0.607732406924     1.007825032230
         H           -1.009262144491    -0.358679227066     1.157267593076     1.007825032230
         H           -0.442262144491    -1.833679227066     0.372267593076     1.007825032230
         H           -2.756262144491    -2.101679227066     1.367267593076     1.007825032230
         H           -2.832292144491    -2.295729227066    -0.413322406924     1.007825032230
         H           -3.322262144491    -0.755029227066     0.358897593076     1.007825032230
         C            1.301737855509     1.721320772934    -0.224732406924    12.000000000000
         C            2.499737855509     0.913320772934    -0.500732406924    12.000000000000
         H            1.558737855509     2.777320772934    -0.150732406924     1.007825032230
         H            0.593737855509     1.593320772934    -1.042732406924     1.007825032230
         H            0.836737855509     1.394320772934     0.706267593076     1.007825032230
         H            2.958737855509     1.278320772934    -1.421732406924     1.007825032230
         H            2.137737855509    -0.097679227066    -0.690732406924     1.007825032230
         H            3.260957855509     0.882500772934     0.292737593076     1.007825032230

  Running in c1 symmetry.

  Rotational constants: A =      0.59445  B =      0.04651  C =      0.04466 [cm^-1]
  Rotational constants: A =  17821.26483  B =   1394.24929  C =   1338.77488 [MHz]
  Nuclear repulsion =  122.354806256555605

  Charge       = 0
  Multiplicity = 1
  Electrons    = 36
  Nalpha       = 18
  Nbeta        = 18

  ==> Algorithm <==

  SCF Algorithm Type is PK.
  DIIS enabled.
  MOM disabled.
  Fractional occupation disabled.
  Guess Type is SAD.
  Energy threshold   = 1.00e-06
  Density threshold  = 1.00e-10
  Integral threshold = 0.00e+00

  ==> Primary Basis <==

  Basis Set: CC-PVDZ
    Blend: CC-PVDZ
    Number of shells: 60
    Number of basis function: 116
    Number of Cartesian functions: 120
    Spherical Harmonics?: true
    Max angular momentum: 2

  ==> Pre-Iterations <==

   -------------------------------------------------------
    Irrep   Nso     Nmo     Nalpha   Nbeta   Ndocc  Nsocc
   -------------------------------------------------------
     A        116     116       0       0       0       0
   -------------------------------------------------------
    Total     116     116      18      18      18       0
   -------------------------------------------------------

  ==> Integral Setup <==

  Using integral reordering PK algorithm.
  Sizing the integral batches needed.
  Building batch lookup table.
   Calculation information:
      Number of atoms:                  16
      Number of AO shells:              60
      Number of primitives:            148
      Number of atomic orbitals:       120
      Number of basis functions:       116

      Integral cutoff                 1.00e-12
      Number of threads:                 1

	Batch   1 pq = [       0,    6786] index = [             0,23028291] size =     23028291
  Task number: 3
  Buffer size: 11059200
  Buffer per thread: 2
  We computed 1421451 shell quartets total.
  Whereas there are 1675365 unique shell quartets.

  ==> DiskJK: Disk-Based J/K Matrices <==

    J tasked:                  Yes
    K tasked:                  Yes
    wK tasked:                  No
    Memory [MiB]:              375
    Schwarz Cutoff:          1E-12

    OpenMP threads:              1

  Minimum eigenvalue in the overlap matrix is 6.5933881199E-03.
  Using Symmetric Orthogonalization.

  SCF Guess: Superposition of Atomic Densities via on-the-fly atomic UHF.

  ==> Iterations <==

                        Total Energy        Delta E     RMS |[F,P]|

   @RHF iter SAD:  -157.41793536187794   -1.57418e+02   0.00000e+00
   @RHF iter   1:  -158.29985914491851   -8.81924e-01   4.29280e-03 DIIS
   @RHF iter   2:  -158.43675364086218   -1.36894e-01   1.84948e-03 DIIS
   @RHF iter   3:  -158.46141623378574   -2.46626e-02   3.52880e-04 DIIS
   @RHF iter   4:  -158.46327492838333   -1.85869e-03   3.93043e-05 DIIS
   @RHF iter   5:  -158.46329854334320   -2.36150e-05   8.05044e-06 DIIS
   @RHF iter   6:  -158.46329932005577   -7.76713e-07   2.06618e-06 DIIS
   @RHF iter   7:  -158.46329936021306   -4.01573e-08   3.06981e-07 DIIS
   @RHF iter   8:  -158.46329936138164   -1.16859e-09   4.83881e-08 DIIS
   @RHF iter   9:  -158.46329936142166   -4.00178e-11   1.20432e-08 DIIS
   @RHF iter  10:  -158.46329936142436   -2.70006e-12   3.26532e-09 DIIS
   @RHF iter  11:  -158.46329936142450   -1.42109e-13   8.73510e-10 DIIS
   @RHF iter  12:  -158.46329936142479   -2.84217e-13   1.80826e-10 DIIS
   @RHF iter  13:  -158.46329936142448    3.12639e-13   2.79098e-11 DIIS
  Energy and wave function converged.

  ==> Post-Iterations <==

    Orbital Energies [Eh]
    ---------------------

    Doubly Occupied:

       1A    -11.221299     2A    -11.218224     3A    -11.212799
       4A    -11.211474     5A     -1.033202     6A     -1.013888
       7A     -0.840178     8A     -0.830445     9A     -0.605661
      10A     -0.604522    11A     -0.596465    12A     -0.594820
      13A     -0.514766    14A     -0.496374    15A     -0.490681
      16A     -0.488013    17A     -0.477883    18A     -0.474827

    Virtual:

      19A      0.172393    20A      0.195055    21A      0.226706
      22A      0.231238    23A      0.232165    24A      0.260254
      25A      0.267082    26A      0.275344    27A      0.278666
      28A      0.302329    29A      0.309366    30A      0.354024
      31A      0.397517    32A      0.411193    33A      0.574340
      34A      0.585124    35A      0.594865    36A      0.597925
      37A      0.605586    38A      0.633470    39A      0.675174
      40A      0.689027    41A      0.694232    42A      0.769546
      43A      0.847896    44A      0.874618    45A      0.885477
      46A      0.891083    47A      0.893787    48A      0.895387
      49A      0.904519    50A      0.912536    51A      0.915123
      52A      0.917378    53A      0.959755    54A      0.963957
      55A      0.973497    56A      0.994738    57A      1.124034
      58A      1.126550    59A      1.137939    60A      1.146960
      61A      1.219659    62A      1.260279    63A      1.460756
      64A      1.468543    65A      1.471799    66A      1.506802
      67A      1.578418    68A      1.597134    69A      1.681264
      70A      1.685130    71A      1.694853    72A      1.704019
      73A      1.845942    74A      1.848361    75A      1.869674
      76A      1.875229    77A      1.901841    78A      1.909223
      79A      1.934249    80A      1.942600    81A      1.947929
      82A      1.950913    83A      1.956993    84A      1.962249
      85A      1.977564    86A      1.990363    87A      2.004181
      88A      2.049836    89A      2.094347    90A      2.100782
      91A      2.115562    92A      2.150265    93A      2.298002
      94A      2.312259    95A      2.323134    96A      2.343405
      97A      2.451409    98A      2.460484    99A      2.464344
     100A      2.484753   101A      2.557829   102A      2.564451
     103A      2.564822   104A      2.600542   105A      2.759722
     106A      2.768388   107A      2.787423   108A      2.804029
     109A      2.841936   110A      2.856821   111A      2.866979
     112A      2.889082   113A      2.942413   114A      2.950326
     115A      2.973542   116A      2.984926

    Final Occupation by Irrep:
              A
    DOCC [    18 ]

  @RHF Final Energy:  -158.46329936142448

   => Energetics <=

    Nuclear Repulsion Energy =            122.3548062565556052
    One-Electron Energy =                -453.7851721305628985
    Two-Electron Energy =                 172.9670665125828179
    Total Energy =                       -158.4632993614244754

Computation Completed

Properties will be evaluated at   0.000000,   0.000000,   0.000000 [a0]

Properties computed using the SCF density matrix

  Nuclear Dipole Moment: [e a0]
     X:    -0.0553      Y:    -0.0032      Z:    -0.0678

  Electronic Dipole Moment: [e a0]
     X:     0.0437      Y:     0.0008      Z:     0.0680

  Dipole Moment: [e a0]
     X:    -0.0116      Y:    -0.0023      Z:     0.0002     Total:     0.0118

  Dipole Moment: [D]
     X:    -0.0295      Y:    -0.0059      Z:     0.0006     Total:     0.0301

*** tstop() called on ds3 at Mon Apr 27 16:03:52 2020
Module time:
	user time   =       8.48 seconds =       0.14 minutes
	system time =       3.55 seconds =       0.06 minutes
	total time  =         12 seconds =       0.20 minutes
Total time:
	user time   =       8.48 seconds =       0.14 minutes
	system time =       3.55 seconds =       0.06 minutes
	total time  =         12 seconds =       0.20 minutes
                                     G D M A

                                 by Anthony Stone

                           version 2.2.06, 22 June 2011

               Distributed Multipoles from Gaussian wavefunctions

Starting at 16:3:52 on 27 Apr 2020

Using SCF density matrix from file ./SSI/SSI-017LEU-083ILE-1-dimer.test.10040.fchk

                         Distributed Multipole Analysis

Standard DMA

Positions and radii in angstrom
Multipole moments in atomic units, ea_0^k for rank k

C          x = -1.178262  y = -1.035679  z =  0.321268 angstrom
           Maximum rank =  0   Radius =  0.650 angstrom
                   Q00  =  -0.250069

C          x = -2.618262  y = -1.598679  z =  0.410268 angstrom
           Maximum rank =  0   Radius =  0.650 angstrom
                   Q00  =  -0.237033

H          x = -1.043262  y = -0.486679  z = -0.607732 angstrom
           Maximum rank =  0   Radius =  0.325 angstrom
                   Q00  =   0.081634

H          x = -1.009262  y = -0.358679  z =  1.157268 angstrom
           Maximum rank =  0   Radius =  0.325 angstrom
                   Q00  =   0.080613

H          x = -0.442262  y = -1.833679  z =  0.372268 angstrom
           Maximum rank =  0   Radius =  0.325 angstrom
                   Q00  =   0.081731

H          x = -2.756262  y = -2.101679  z =  1.367268 angstrom
           Maximum rank =  0   Radius =  0.325 angstrom
                   Q00  =   0.082468

H          x = -2.832292  y = -2.295729  z = -0.413322 angstrom
           Maximum rank =  0   Radius =  0.325 angstrom
                   Q00  =   0.082318

H          x = -3.322262  y = -0.755029  z =  0.358898 angstrom
           Maximum rank =  0   Radius =  0.325 angstrom
                   Q00  =   0.078718

C          x =  1.301738  y =  1.721321  z = -0.224732 angstrom
           Maximum rank =  0   Radius =  0.650 angstrom
                   Q00  =  -0.214490

C          x =  2.499738  y =  0.913321  z = -0.500732 angstrom
           Maximum rank =  0   Radius =  0.650 angstrom
                   Q00  =  -0.222761

H          x =  1.558738  y =  2.777321  z = -0.150732 angstrom
           Maximum rank =  0   Radius =  0.325 angstrom
                   Q00  =   0.070662

H          x =  0.593738  y =  1.593321  z = -1.042732 angstrom
           Maximum rank =  0   Radius =  0.325 angstrom
                   Q00  =   0.074275

H          x =  0.836738  y =  1.394321  z =  0.706268 angstrom
           Maximum rank =  0   Radius =  0.325 angstrom
                   Q00  =   0.074951

H          x =  2.958738  y =  1.278321  z = -1.421732 angstrom
           Maximum rank =  0   Radius =  0.325 angstrom
                   Q00  =   0.070383

H          x =  2.137738  y = -0.097679  z = -0.690732 angstrom
           Maximum rank =  0   Radius =  0.325 angstrom
                   Q00  =   0.068479

H          x =  3.260958  y =  0.882501  z =  0.292738 angstrom
           Maximum rank =  0   Radius =  0.325 angstrom
                   Q00  =   0.078121

Total multipoles referred to origin at
           x =   0.000000,  y =    0.000000,  z =    0.000000 angstrom
                   Q00  =  -0.000000

Finished at 16:3:52 on 27 Apr 2020

  DMA results are available in the Python driver through the
	  variable('DMA DISTRIBUTED MULTIPOLES')
  and
	  variable('DMA TOTAL MULTIPOLES')
  commands.

    Psi4 stopped on: Monday, 27 April 2020 04:03PM
    Psi4 wall time for execution: 0:00:11.57

*** Psi4 exiting successfully. Buy a developer a beer!
