                               Psi4 1.3.2 release

  ==> Input File <==

--------------------------------------------------------------------------
import numpy as np
set {scf_type pk
basis cc-pvdz
d_convergence 10
gdma_switch   0
gdma_limit    0
gdma_origin   [ 0.0,  0.0,  0.0 ]
}
molecule test {
    units Angstrom
    0 1
    --
    0 1
    C                1.114600900205955     2.251145289812734    -1.883349514975102
    C               -0.214399099794045     1.074145289812733     0.014650485024898
    C                0.964600900205955     1.684145289812733    -0.519349514975102
    C                0.080600900205955     0.662145289812733     1.340650485024898
    C                1.898600900205955     1.638145289812733     0.467650485024898
    C               -1.487399099794045     0.826145289812733    -0.503349514975102
    C               -0.853399099794045     0.029145289812733     2.147650485024898
    C               -2.424399099794045     0.181145289812733     0.296650485024898
    C               -2.109399099794045    -0.207854710187267     1.606650485024898
    N                1.376600900205955     1.029145289812733     1.585650485024898
    H               -1.725399099794045     1.130145289812733    -1.511349514975102
    H                1.853600900205955     3.054145289812733    -1.861349514975102
    H                0.159600900205955     2.694145289812733    -2.170349514975102
    H                2.909600900205956     2.028145289812733     0.383650485024898
    H                1.882600900205955     0.897145289812733     2.456650485024898
    H               -0.609399099794045    -0.269854710187267     3.158650485024898
    H               -3.413399099794045    -0.026854710187267    -0.090349514975102
    H               -2.861399099794045    -0.698854710187267     2.210650485024898
    H                1.404680900205955     1.506251589812733    -2.638986514975102
    C                0.159600900205955    -2.426854710187267    -0.978349514975102
    C               -0.481399099794045    -2.797854710187267    -2.340349514975102
    C                1.498600900205955    -3.094854710187267    -0.598349514975102
    H                0.317600900205955    -1.349854710187267    -0.971349514975102
    H               -0.566399099794045    -2.653854710187267    -0.194349514975102
    H                0.172600900205955    -2.412854710187267    -3.132349514975102
    H                1.409600900205955    -4.176854710187267    -0.677349514975102
    H                2.278600900205955    -2.748854710187266    -1.277349514975102
    H               -1.489659099794045    -2.365742710187267    -2.422120514975102
    H               -0.540699099794045    -3.892251710187267    -2.434050514975102
    H                1.763640900205955    -2.855260710187267     0.442010485024898

}
e, wfn = energy('scf', return_wfn=True)
gdma(wfn)
dmavals = variable('DMA DISTRIBUTED MULTIPOLES')
charges = np.array(dmavals)
print(charges)
np.save('SSI-004TRP-016LYS-1-dimer.npy', np.array(charges))--------------------------------------------------------------------------

*** tstart() called on ds3
*** at Tue Apr 28 12:54:08 2020

   => Loading Basis Set <=

    Name: CC-PVDZ
    Role: ORBITAL
    Keyword: BASIS
    atoms 1-9, 20-22   entry C          line   138 file /theoryfs2/ds/metcalf/miniconda2/envs/tf2gpu/share/psi4/basis/cc-pvdz.gbs
    atoms 10           entry N          line   168 file /theoryfs2/ds/metcalf/miniconda2/envs/tf2gpu/share/psi4/basis/cc-pvdz.gbs
    atoms 11-19, 23-30 entry H          line    22 file /theoryfs2/ds/metcalf/miniconda2/envs/tf2gpu/share/psi4/basis/cc-pvdz.gbs

         ---------------------------------------------------------
                                   SCF
               by Justin Turney, Rob Parrish, Andy Simmonett
                          and Daniel G. A. Smith
                              RHF Reference
                        1 Threads,    500 MiB Core
         ---------------------------------------------------------

  ==> Geometry <==

    Molecular point group: c1
    Full point group: C1

    Geometry (in Angstrom), charge = 0, multiplicity = 1:

       Center              X                  Y                   Z               Mass
    ------------   -----------------  -----------------  -----------------  -----------------
         C            1.114600900206     2.251145289813    -1.883349514975    12.000000000000
         C           -0.214399099794     1.074145289813     0.014650485025    12.000000000000
         C            0.964600900206     1.684145289813    -0.519349514975    12.000000000000
         C            0.080600900206     0.662145289813     1.340650485025    12.000000000000
         C            1.898600900206     1.638145289813     0.467650485025    12.000000000000
         C           -1.487399099794     0.826145289813    -0.503349514975    12.000000000000
         C           -0.853399099794     0.029145289813     2.147650485025    12.000000000000
         C           -2.424399099794     0.181145289813     0.296650485025    12.000000000000
         C           -2.109399099794    -0.207854710187     1.606650485025    12.000000000000
         N            1.376600900206     1.029145289813     1.585650485025    14.003074004430
         H           -1.725399099794     1.130145289813    -1.511349514975     1.007825032230
         H            1.853600900206     3.054145289813    -1.861349514975     1.007825032230
         H            0.159600900206     2.694145289813    -2.170349514975     1.007825032230
         H            2.909600900206     2.028145289813     0.383650485025     1.007825032230
         H            1.882600900206     0.897145289813     2.456650485025     1.007825032230
         H           -0.609399099794    -0.269854710187     3.158650485025     1.007825032230
         H           -3.413399099794    -0.026854710187    -0.090349514975     1.007825032230
         H           -2.861399099794    -0.698854710187     2.210650485025     1.007825032230
         H            1.404680900206     1.506251589813    -2.638986514975     1.007825032230
         C            0.159600900206    -2.426854710187    -0.978349514975    12.000000000000
         C           -0.481399099794    -2.797854710187    -2.340349514975    12.000000000000
         C            1.498600900206    -3.094854710187    -0.598349514975    12.000000000000
         H            0.317600900206    -1.349854710187    -0.971349514975     1.007825032230
         H           -0.566399099794    -2.653854710187    -0.194349514975     1.007825032230
         H            0.172600900206    -2.412854710187    -3.132349514975     1.007825032230
         H            1.409600900206    -4.176854710187    -0.677349514975     1.007825032230
         H            2.278600900206    -2.748854710187    -1.277349514975     1.007825032230
         H           -1.489659099794    -2.365742710187    -2.422120514975     1.007825032230
         H           -0.540699099794    -3.892251710187    -2.434050514975     1.007825032230
         H            1.763640900206    -2.855260710187     0.442010485025     1.007825032230

  Running in c1 symmetry.

  Rotational constants: A =      0.02693  B =      0.02015  C =      0.01705 [cm^-1]
  Rotational constants: A =    807.22264  B =    604.12710  C =    511.19702 [MHz]
  Nuclear repulsion =  771.614283148870868

  Charge       = 0
  Multiplicity = 1
  Electrons    = 96
  Nalpha       = 48
  Nbeta        = 48

  ==> Algorithm <==

  SCF Algorithm Type is PK.
  DIIS enabled.
  MOM disabled.
  Fractional occupation disabled.
  Guess Type is SAD.
  Energy threshold   = 1.00e-06
  Density threshold  = 1.00e-10
  Integral threshold = 0.00e+00

  ==> Primary Basis <==

  Basis Set: CC-PVDZ
    Blend: CC-PVDZ
    Number of shells: 129
    Number of basis function: 267
    Number of Cartesian functions: 280
    Spherical Harmonics?: true
    Max angular momentum: 2

  ==> Pre-Iterations <==

   -------------------------------------------------------
    Irrep   Nso     Nmo     Nalpha   Nbeta   Ndocc  Nsocc
   -------------------------------------------------------
     A        267     267       0       0       0       0
   -------------------------------------------------------
    Total     267     267      48      48      48       0
   -------------------------------------------------------

  ==> Integral Setup <==

  Using integral reordering PK algorithm.
  Sizing the integral batches needed.
  Building batch lookup table.
   Calculation information:
      Number of atoms:                  30
      Number of AO shells:             129
      Number of primitives:            371
      Number of atomic orbitals:       280
      Number of basis functions:       267

      Integral cutoff                 1.00e-12
      Number of threads:                 1

	Batch   1 pq = [       0,    9405] index = [             0,44231715] size =     44231715
	Batch   2 pq = [    9405,   13301] index = [      44231715,88464951] size =     44233236
	Batch   3 pq = [   13301,   16290] index = [      88464951,132690195] size =     44225244
	Batch   4 pq = [   16290,   18810] index = [     132690195,176917455] size =     44227260
	Batch   5 pq = [   18810,   21030] index = [     176917455,221140965] size =     44223510
	Batch   6 pq = [   21030,   23037] index = [     221140965,265363203] size =     44222238
	Batch   7 pq = [   23037,   24883] index = [     265363203,309594286] size =     44231083
	Batch   8 pq = [   24883,   26601] index = [     309594286,353819901] size =     44225615
	Batch   9 pq = [   26601,   28214] index = [     353819901,398029005] size =     44209104
	Batch  10 pq = [   28214,   29740] index = [     398029005,442248670] size =     44219665
	Batch  11 pq = [   29740,   31191] index = [     442248670,486454836] size =     44206166
	Batch  12 pq = [   31191,   32578] index = [     486454836,530679331] size =     44224495
	Batch  13 pq = [   32578,   33908] index = [     530679331,574893186] size =     44213855
	Batch  14 pq = [   33908,   35188] index = [     574893186,619115266] size =     44222080
	Batch  15 pq = [   35188,   35778] index = [     619115266,640050531] size =     20935265
  Task number: 58
  Buffer size: 11059200
  Buffer per thread: 2
  We computed 39869749 shell quartets total.
  Whereas there are 35158305 unique shell quartets.
    13.40 percent of shell quartets recomputed by reordering.

  ==> DiskJK: Disk-Based J/K Matrices <==

    J tasked:                  Yes
    K tasked:                  Yes
    wK tasked:                  No
    Memory [MiB]:              375
    Schwarz Cutoff:          1E-12

    OpenMP threads:              1

  Minimum eigenvalue in the overlap matrix is 2.3895490843E-04.
  Using Symmetric Orthogonalization.

  SCF Guess: Superposition of Atomic Densities via on-the-fly atomic UHF.

  ==> Iterations <==

                        Total Energy        Delta E     RMS |[F,P]|

   @RHF iter SAD:  -518.02056620966903   -5.18021e+02   0.00000e+00
   @RHF iter   1:  -518.49291368731656   -4.72347e-01   2.49391e-03 DIIS
   @RHF iter   2:  -518.75035277735071   -2.57439e-01   1.11986e-03 DIIS
   @RHF iter   3:  -518.79757004959288   -4.72173e-02   2.93578e-04 DIIS
   @RHF iter   4:  -518.80183291495871   -4.26287e-03   1.35195e-04 DIIS
   @RHF iter   5:  -518.80256905393207   -7.36139e-04   1.94200e-05 DIIS
   @RHF iter   6:  -518.80259997172641   -3.09178e-05   8.71913e-06 DIIS
   @RHF iter   7:  -518.80260631038709   -6.33866e-06   3.46732e-06 DIIS
   @RHF iter   8:  -518.80260796472908   -1.65434e-06   1.44226e-06 DIIS
   @RHF iter   9:  -518.80260831609326   -3.51364e-07   6.33595e-07 DIIS
   @RHF iter  10:  -518.80260838969127   -7.35980e-08   2.75774e-07 DIIS
   @RHF iter  11:  -518.80260840633878   -1.66475e-08   1.07844e-07 DIIS
   @RHF iter  12:  -518.80260840876542   -2.42665e-09   3.81324e-08 DIIS
   @RHF iter  13:  -518.80260840895687   -1.91449e-10   1.00743e-08 DIIS
   @RHF iter  14:  -518.80260840897381   -1.69393e-11   3.58670e-09 DIIS
   @RHF iter  15:  -518.80260840897540   -1.59162e-12   1.97379e-09 DIIS
   @RHF iter  16:  -518.80260840897688   -1.47793e-12   9.33451e-10 DIIS
   @RHF iter  17:  -518.80260840896722    9.66338e-12   3.88131e-10 DIIS
   @RHF iter  18:  -518.80260840897370   -6.48015e-12   1.48696e-10 DIIS
   @RHF iter  19:  -518.80260840897120    2.50111e-12   5.40457e-11 DIIS
  Energy and wave function converged.

  ==> Post-Iterations <==

    Orbital Energies [Eh]
    ---------------------

    Doubly Occupied:

       1A    -15.602521     2A    -11.264748     3A    -11.264257
       4A    -11.231732     5A    -11.230407     6A    -11.230199
       7A    -11.226640     8A    -11.222182     9A    -11.219291
      10A    -11.216413    11A    -11.209423    12A    -11.207551
      13A    -11.203275    14A     -1.296406    15A     -1.129631
      16A     -1.076868    17A     -1.031335    18A     -0.998681
      19A     -0.988099    20A     -0.933219    21A     -0.914175
      22A     -0.840627    23A     -0.805118    24A     -0.780868
      25A     -0.753298    26A     -0.720377    27A     -0.663476
      28A     -0.642661    29A     -0.609923    30A     -0.604664
      31A     -0.594228    32A     -0.591931    33A     -0.577562
      34A     -0.568594    35A     -0.553825    36A     -0.540655
      37A     -0.536721    38A     -0.526454    39A     -0.524353
      40A     -0.494884    41A     -0.472782    42A     -0.467101
      43A     -0.463094    44A     -0.452718    45A     -0.441894
      46A     -0.373316    47A     -0.296007    48A     -0.275567

    Virtual:

      49A      0.124033    50A      0.167894    51A      0.172191
      52A      0.179248    53A      0.198783    54A      0.200917
      55A      0.218333    56A      0.225199    57A      0.229662
      58A      0.243053    59A      0.251311    60A      0.256274
      61A      0.264353    62A      0.269816    63A      0.285184
      64A      0.296057    65A      0.300207    66A      0.304571
      67A      0.311061    68A      0.328798    69A      0.372452
      70A      0.378601    71A      0.384066    72A      0.409038
      73A      0.420861    74A      0.435935    75A      0.446473
      76A      0.471256    77A      0.480145    78A      0.506431
      79A      0.519495    80A      0.575075    81A      0.590703
      82A      0.597008    83A      0.603187    84A      0.618143
      85A      0.627979    86A      0.631706    87A      0.642950
      88A      0.644890    89A      0.668357    90A      0.701234
      91A      0.715052    92A      0.722468    93A      0.734781
      94A      0.741042    95A      0.750515    96A      0.755118
      97A      0.761641    98A      0.773120    99A      0.778829
     100A      0.782880   101A      0.791146   102A      0.800848
     103A      0.807201   104A      0.811608   105A      0.841478
     106A      0.866159   107A      0.872078   108A      0.877454
     109A      0.884046   110A      0.886565   111A      0.897937
     112A      0.904677   113A      0.906886   114A      0.907695
     115A      0.912574   116A      0.922451   117A      0.924528
     118A      0.933981   119A      0.941046   120A      0.951089
     121A      0.955349   122A      0.960491   123A      0.980402
     124A      0.983182   125A      0.990737   126A      1.003758
     127A      1.016008   128A      1.049654   129A      1.076092
     130A      1.087255   131A      1.110694   132A      1.121869
     133A      1.132753   134A      1.135276   135A      1.142085
     136A      1.154485   137A      1.167413   138A      1.181946
     139A      1.215571   140A      1.223120   141A      1.231494
     142A      1.240919   143A      1.252005   144A      1.267492
     145A      1.283878   146A      1.298282   147A      1.309510
     148A      1.330512   149A      1.344868   150A      1.361383
     151A      1.371328   152A      1.384622   153A      1.420458
     154A      1.441513   155A      1.487920   156A      1.510506
     157A      1.527774   158A      1.543151   159A      1.561935
     160A      1.578750   161A      1.602924   162A      1.624582
     163A      1.629350   164A      1.648742   165A      1.661652
     166A      1.679642   167A      1.689961   168A      1.693468
     169A      1.701958   170A      1.705385   171A      1.742013
     172A      1.760980   173A      1.770577   174A      1.790683
     175A      1.813171   176A      1.822993   177A      1.832298
     178A      1.870533   179A      1.877199   180A      1.882653
     181A      1.891697   182A      1.900781   183A      1.902613
     184A      1.904573   185A      1.918916   186A      1.928238
     187A      1.930197   188A      1.935219   189A      1.943916
     190A      1.954660   191A      1.963350   192A      1.971931
     193A      1.976152   194A      1.980567   195A      1.998811
     196A      2.009785   197A      2.014971   198A      2.018189
     199A      2.023138   200A      2.028238   201A      2.047366
     202A      2.057823   203A      2.084017   204A      2.087318
     205A      2.097168   206A      2.107838   207A      2.117199
     208A      2.123965   209A      2.131039   210A      2.147825
     211A      2.169226   212A      2.177031   213A      2.186928
     214A      2.195350   215A      2.229945   216A      2.262779
     217A      2.282018   218A      2.287372   219A      2.300087
     220A      2.304527   221A      2.312898   222A      2.330072
     223A      2.338971   224A      2.352877   225A      2.373738
     226A      2.406408   227A      2.418475   228A      2.451035
     229A      2.463926   230A      2.502360   231A      2.541946
     232A      2.549948   233A      2.584510   234A      2.598017
     235A      2.603868   236A      2.615599   237A      2.644927
     238A      2.649056   239A      2.669569   240A      2.699114
     241A      2.708838   242A      2.762001   243A      2.765133
     244A      2.769795   245A      2.773782   246A      2.786728
     247A      2.791047   248A      2.809002   249A      2.816291
     250A      2.831060   251A      2.860236   252A      2.879062
     253A      2.913280   254A      2.937413   255A      2.962443
     256A      2.963785   257A      2.982520   258A      3.033142
     259A      3.066612   260A      3.074120   261A      3.116507
     262A      3.142186   263A      3.204062   264A      3.313187
     265A      3.383126   266A      3.742364   267A      3.953858

    Final Occupation by Irrep:
              A
    DOCC [    48 ]

  @RHF Final Energy:  -518.80260840897120

   => Energetics <=

    Nuclear Repulsion Energy =            771.6142831488708680
    One-Electron Energy =               -2233.0942752806336102
    Two-Electron Energy =                 942.6773837227914328
    Total Energy =                       -518.8026084089711958

Computation Completed

Properties will be evaluated at   0.000000,   0.000000,   0.000000 [a0]

Properties computed using the SCF density matrix

  Nuclear Dipole Moment: [e a0]
     X:     2.7576      Y:   -11.3849      Z:   -10.0634

  Electronic Dipole Moment: [e a0]
     X:    -2.1205      Y:    11.6243      Z:    10.5627

  Dipole Moment: [e a0]
     X:     0.6371      Y:     0.2393      Z:     0.4993     Total:     0.8441

  Dipole Moment: [D]
     X:     1.6194      Y:     0.6084      Z:     1.2691     Total:     2.1455

*** tstop() called on ds3 at Tue Apr 28 13:07:37 2020
Module time:
	user time   =     307.74 seconds =       5.13 minutes
	system time =     118.47 seconds =       1.97 minutes
	total time  =        809 seconds =      13.48 minutes
Total time:
	user time   =     307.74 seconds =       5.13 minutes
	system time =     118.47 seconds =       1.97 minutes
	total time  =        809 seconds =      13.48 minutes
                                     G D M A

                                 by Anthony Stone

                           version 2.2.06, 22 June 2011

               Distributed Multipoles from Gaussian wavefunctions

Starting at 13:7:37 on 28 Apr 2020

Using SCF density matrix from file ./SSI/SSI-004TRP-016LYS-1-dimer.test.15563.fchk

                         Distributed Multipole Analysis

Standard DMA

Positions and radii in angstrom
Multipole moments in atomic units, ea_0^k for rank k

C          x =  1.114601  y =  2.251145  z = -1.883350 angstrom
           Maximum rank =  0   Radius =  0.650 angstrom
                   Q00  =  -0.212057

C          x = -0.214399  y =  1.074145  z =  0.014650 angstrom
           Maximum rank =  0   Radius =  0.650 angstrom
                   Q00  =  -0.054468

C          x =  0.964601  y =  1.684145  z = -0.519350 angstrom
           Maximum rank =  0   Radius =  0.650 angstrom
                   Q00  =  -0.118462

C          x =  0.080601  y =  0.662145  z =  1.340650 angstrom
           Maximum rank =  0   Radius =  0.650 angstrom
                   Q00  =   0.281690

C          x =  1.898601  y =  1.638145  z =  0.467650 angstrom
           Maximum rank =  0   Radius =  0.650 angstrom
                   Q00  =   0.071571

C          x = -1.487399  y =  0.826145  z = -0.503350 angstrom
           Maximum rank =  0   Radius =  0.650 angstrom
                   Q00  =  -0.095002

C          x = -0.853399  y =  0.029145  z =  2.147650 angstrom
           Maximum rank =  0   Radius =  0.650 angstrom
                   Q00  =  -0.121937

C          x = -2.424399  y =  0.181145  z =  0.296650 angstrom
           Maximum rank =  0   Radius =  0.650 angstrom
                   Q00  =  -0.106713

C          x = -2.109399  y = -0.207855  z =  1.606650 angstrom
           Maximum rank =  0   Radius =  0.650 angstrom
                   Q00  =  -0.031465

N          x =  1.376601  y =  1.029145  z =  1.585650 angstrom
           Maximum rank =  0   Radius =  0.650 angstrom
                   Q00  =  -0.498708

H          x = -1.725399  y =  1.130145  z = -1.511350 angstrom
           Maximum rank =  0   Radius =  0.325 angstrom
                   Q00  =   0.070213

H          x =  1.853601  y =  3.054145  z = -1.861350 angstrom
           Maximum rank =  0   Radius =  0.325 angstrom
                   Q00  =   0.103862

H          x =  0.159601  y =  2.694145  z = -2.170350 angstrom
           Maximum rank =  0   Radius =  0.325 angstrom
                   Q00  =   0.101620

H          x =  2.909601  y =  2.028145  z =  0.383650 angstrom
           Maximum rank =  0   Radius =  0.325 angstrom
                   Q00  =   0.101408

H          x =  1.882601  y =  0.897145  z =  2.456650 angstrom
           Maximum rank =  0   Radius =  0.325 angstrom
                   Q00  =   0.218263

H          x = -0.609399  y = -0.269855  z =  3.158650 angstrom
           Maximum rank =  0   Radius =  0.325 angstrom
                   Q00  =   0.074111

H          x = -3.413399  y = -0.026855  z = -0.090350 angstrom
           Maximum rank =  0   Radius =  0.325 angstrom
                   Q00  =   0.060174

H          x = -2.861399  y = -0.698855  z =  2.210650 angstrom
           Maximum rank =  0   Radius =  0.325 angstrom
                   Q00  =   0.064890

H          x =  1.404681  y =  1.506252  z = -2.638987 angstrom
           Maximum rank =  0   Radius =  0.325 angstrom
                   Q00  =   0.098935

C          x =  0.159601  y = -2.426855  z = -0.978350 angstrom
           Maximum rank =  0   Radius =  0.650 angstrom
                   Q00  =  -0.091974

C          x = -0.481399  y = -2.797855  z = -2.340350 angstrom
           Maximum rank =  0   Radius =  0.650 angstrom
                   Q00  =  -0.233395

C          x =  1.498601  y = -3.094855  z = -0.598350 angstrom
           Maximum rank =  0   Radius =  0.650 angstrom
                   Q00  =  -0.250157

H          x =  0.317601  y = -1.349855  z = -0.971350 angstrom
           Maximum rank =  0   Radius =  0.325 angstrom
                   Q00  =   0.059957

H          x = -0.566399  y = -2.653855  z = -0.194350 angstrom
           Maximum rank =  0   Radius =  0.325 angstrom
                   Q00  =   0.045625

H          x =  0.172601  y = -2.412855  z = -3.132350 angstrom
           Maximum rank =  0   Radius =  0.325 angstrom
                   Q00  =   0.070824

H          x =  1.409601  y = -4.176855  z = -0.677350 angstrom
           Maximum rank =  0   Radius =  0.325 angstrom
                   Q00  =   0.072910

H          x =  2.278601  y = -2.748855  z = -1.277350 angstrom
           Maximum rank =  0   Radius =  0.325 angstrom
                   Q00  =   0.074134

H          x = -1.489659  y = -2.365743  z = -2.422121 angstrom
           Maximum rank =  0   Radius =  0.325 angstrom
                   Q00  =   0.088351

H          x = -0.540699  y = -3.892252  z = -2.434051 angstrom
           Maximum rank =  0   Radius =  0.325 angstrom
                   Q00  =   0.072627

H          x =  1.763641  y = -2.855261  z =  0.442010 angstrom
           Maximum rank =  0   Radius =  0.325 angstrom
                   Q00  =   0.083173

Total multipoles referred to origin at
           x =   0.000000,  y =    0.000000,  z =    0.000000 angstrom
                   Q00  =  -0.000000

Finished at 13:7:37 on 28 Apr 2020

  DMA results are available in the Python driver through the
	  variable('DMA DISTRIBUTED MULTIPOLES')
  and
	  variable('DMA TOTAL MULTIPOLES')
  commands.

    Psi4 stopped on: Tuesday, 28 April 2020 01:07PM
    Psi4 wall time for execution: 0:13:28.81

*** Psi4 exiting successfully. Buy a developer a beer!
