                               Psi4 1.3.2 release

  ==> Input File <==

--------------------------------------------------------------------------
import numpy as np
set {scf_type pk
basis cc-pvdz
d_convergence 10
gdma_switch   0
gdma_limit    0
gdma_origin   [ 0.0,  0.0,  0.0 ]
}
molecule test {
    units Angstrom
    0 1
    --
    0 1
    C                0.942974364026017    -0.074276896304985     0.423630054405710
    C                2.080974364026017     0.412723103695015     2.881630054405710
    S                0.727974364026017    -0.518276896304985     2.146630054405710
    H                1.922974364026017    -0.395276896304985     0.069630054405710
    H                0.173974364026017    -0.567276896304985    -0.170369945594290
    H                0.851974364026017     1.006723103695015     0.308630054405710
    H                1.885974364026017     0.473723103695015     3.951630054405710
    H                2.082974364026017     1.425723103695015     2.477630054405711
    H                3.059084364026017    -0.059786896304985     2.708304054405710
    C               -1.450025635973983     0.740723103695015    -2.482369945594289
    C               -2.656025635973983    -0.057276896304985    -1.981369945594290
    C               -0.630025635973983     0.067723103695015    -3.543369945594290
    H               -1.807025635973983     1.700723103695015    -2.847369945594290
    H               -0.795025635973983     0.938723103695015    -1.635369945594290
    H               -2.309025635973983    -1.013276896304985    -1.580369945594290
    H               -0.214025635973983    -0.853276896304985    -3.131369945594289
    H               -1.254025635973983    -0.193276896304985    -4.397369945594289
    H               -3.366615635973983    -0.233006896304985    -2.802459945594289
    H               -3.115535635973983     0.514413103695015    -1.161594945594290
    H                0.176204364026017     0.723013103695015    -3.904759945594290

}
e, wfn = energy('scf', return_wfn=True)
gdma(wfn)
dmavals = variable('DMA DISTRIBUTED MULTIPOLES')
charges = np.array(dmavals)
print(charges)
np.save('SSI-021MET-062GLN-1-dimer.npy', np.array(charges))--------------------------------------------------------------------------

*** tstart() called on ds3
*** at Tue Apr 28 02:01:51 2020

   => Loading Basis Set <=

    Name: CC-PVDZ
    Role: ORBITAL
    Keyword: BASIS
    atoms 1-2, 10-12 entry C          line   138 file /theoryfs2/ds/metcalf/miniconda2/envs/tf2gpu/share/psi4/basis/cc-pvdz.gbs
    atoms 3          entry S          line   598 file /theoryfs2/ds/metcalf/miniconda2/envs/tf2gpu/share/psi4/basis/cc-pvdz.gbs
    atoms 4-9, 13-20 entry H          line    22 file /theoryfs2/ds/metcalf/miniconda2/envs/tf2gpu/share/psi4/basis/cc-pvdz.gbs

         ---------------------------------------------------------
                                   SCF
               by Justin Turney, Rob Parrish, Andy Simmonett
                          and Daniel G. A. Smith
                              RHF Reference
                        1 Threads,    500 MiB Core
         ---------------------------------------------------------

  ==> Geometry <==

    Molecular point group: c1
    Full point group: C1

    Geometry (in Angstrom), charge = 0, multiplicity = 1:

       Center              X                  Y                   Z               Mass
    ------------   -----------------  -----------------  -----------------  -----------------
         C            0.942974364026    -0.074276896305     0.423630054406    12.000000000000
         C            2.080974364026     0.412723103695     2.881630054406    12.000000000000
         S            0.727974364026    -0.518276896305     2.146630054406    31.972071174400
         H            1.922974364026    -0.395276896305     0.069630054406     1.007825032230
         H            0.173974364026    -0.567276896305    -0.170369945594     1.007825032230
         H            0.851974364026     1.006723103695     0.308630054406     1.007825032230
         H            1.885974364026     0.473723103695     3.951630054406     1.007825032230
         H            2.082974364026     1.425723103695     2.477630054406     1.007825032230
         H            3.059084364026    -0.059786896305     2.708304054406     1.007825032230
         C           -1.450025635974     0.740723103695    -2.482369945594    12.000000000000
         C           -2.656025635974    -0.057276896305    -1.981369945594    12.000000000000
         C           -0.630025635974     0.067723103695    -3.543369945594    12.000000000000
         H           -1.807025635974     1.700723103695    -2.847369945594     1.007825032230
         H           -0.795025635974     0.938723103695    -1.635369945594     1.007825032230
         H           -2.309025635974    -1.013276896305    -1.580369945594     1.007825032230
         H           -0.214025635974    -0.853276896305    -3.131369945594     1.007825032230
         H           -1.254025635974    -0.193276896305    -4.397369945594     1.007825032230
         H           -3.366615635974    -0.233006896305    -2.802459945594     1.007825032230
         H           -3.115535635974     0.514413103695    -1.161594945594     1.007825032230
         H            0.176204364026     0.723013103695    -3.904759945594     1.007825032230

  Running in c1 symmetry.

  Rotational constants: A =      0.17362  B =      0.02058  C =      0.01936 [cm^-1]
  Rotational constants: A =   5204.95478  B =    616.94409  C =    580.29556 [MHz]
  Nuclear repulsion =  282.680650215656271

  Charge       = 0
  Multiplicity = 1
  Electrons    = 60
  Nalpha       = 30
  Nbeta        = 30

  ==> Algorithm <==

  SCF Algorithm Type is PK.
  DIIS enabled.
  MOM disabled.
  Fractional occupation disabled.
  Guess Type is SAD.
  Energy threshold   = 1.00e-06
  Density threshold  = 1.00e-10
  Integral threshold = 0.00e+00

  ==> Primary Basis <==

  Basis Set: CC-PVDZ
    Blend: CC-PVDZ
    Number of shells: 80
    Number of basis function: 158
    Number of Cartesian functions: 164
    Spherical Harmonics?: true
    Max angular momentum: 2

  ==> Pre-Iterations <==

   -------------------------------------------------------
    Irrep   Nso     Nmo     Nalpha   Nbeta   Ndocc  Nsocc
   -------------------------------------------------------
     A        158     158       0       0       0       0
   -------------------------------------------------------
    Total     158     158      30      30      30       0
   -------------------------------------------------------

  ==> Integral Setup <==

  Using integral reordering PK algorithm.
  Sizing the integral batches needed.
  Building batch lookup table.
   Calculation information:
      Number of atoms:                  20
      Number of AO shells:              80
      Number of primitives:            230
      Number of atomic orbitals:       164
      Number of basis functions:       158

      Integral cutoff                 1.00e-12
      Number of threads:                 1

	Batch   1 pq = [       0,    9405] index = [             0,44231715] size =     44231715
	Batch   2 pq = [    9405,   12561] index = [      44231715,78895641] size =     34663926
  Task number: 8
  Buffer size: 11059200
  Buffer per thread: 2
  We computed 4182262 shell quartets total.
  Whereas there are 5250420 unique shell quartets.

  ==> DiskJK: Disk-Based J/K Matrices <==

    J tasked:                  Yes
    K tasked:                  Yes
    wK tasked:                  No
    Memory [MiB]:              375
    Schwarz Cutoff:          1E-12

    OpenMP threads:              1

  Minimum eigenvalue in the overlap matrix is 5.3627912185E-03.
  Using Symmetric Orthogonalization.

  SCF Guess: Superposition of Atomic Densities via on-the-fly atomic UHF.

  ==> Iterations <==

                        Total Energy        Delta E     RMS |[F,P]|

   @RHF iter SAD:  -593.96964133840208   -5.93970e+02   0.00000e+00
   @RHF iter   1:  -594.84853939890638   -8.78898e-01   3.18235e-03 DIIS
   @RHF iter   2:  -595.00018053024974   -1.51641e-01   1.30637e-03 DIIS
   @RHF iter   3:  -595.02371332467374   -2.35328e-02   3.01990e-04 DIIS
   @RHF iter   4:  -595.02601947123151   -2.30615e-03   5.08652e-05 DIIS
   @RHF iter   5:  -595.02607363221193   -5.41610e-05   1.25895e-05 DIIS
   @RHF iter   6:  -595.02607706697927   -3.43477e-06   2.68534e-06 DIIS
   @RHF iter   7:  -595.02607723716767   -1.70188e-07   5.70055e-07 DIIS
   @RHF iter   8:  -595.02607724902703   -1.18594e-08   1.61280e-07 DIIS
   @RHF iter   9:  -595.02607724993095   -9.03924e-10   4.74167e-08 DIIS
   @RHF iter  10:  -595.02607725001280   -8.18545e-11   1.50298e-08 DIIS
   @RHF iter  11:  -595.02607725001974   -6.93490e-12   3.84926e-09 DIIS
   @RHF iter  12:  -595.02607725002110   -1.36424e-12   1.45691e-09 DIIS
   @RHF iter  13:  -595.02607725002031    7.95808e-13   4.80504e-10 DIIS
   @RHF iter  14:  -595.02607725002213   -1.81899e-12   1.40780e-10 DIIS
   @RHF iter  15:  -595.02607725002201    1.13687e-13   4.72462e-11 DIIS
  Energy and wave function converged.

  ==> Post-Iterations <==

    Orbital Energies [Eh]
    ---------------------

    Doubly Occupied:

       1A    -91.934928     2A    -11.256523     3A    -11.254959
       4A    -11.220048     5A    -11.218136     6A    -11.216802
       7A     -8.938992     8A     -6.621084     9A     -6.619479
      10A     -6.617214    11A     -1.064866    12A     -1.059954
      13A     -0.952310    14A     -0.928664    15A     -0.805202
      16A     -0.795898    17A     -0.633045    18A     -0.604948
      19A     -0.600802    20A     -0.597595    21A     -0.575326
      22A     -0.562679    23A     -0.553803    24A     -0.535406
      25A     -0.497297    26A     -0.477572    27A     -0.468042
      28A     -0.466577    29A     -0.428474    30A     -0.331358

    Virtual:

      31A      0.161770    32A      0.182287    33A      0.199497
      34A      0.212673    35A      0.224528    36A      0.237044
      37A      0.240721    38A      0.248655    39A      0.256202
      40A      0.264884    41A      0.277009    42A      0.288976
      43A      0.290738    44A      0.304183    45A      0.328876
      46A      0.341970    47A      0.373467    48A      0.428804
      49A      0.517382    50A      0.562988    51A      0.574982
      52A      0.585991    53A      0.604054    54A      0.612274
      55A      0.621307    56A      0.638885    57A      0.643060
      58A      0.671389    59A      0.699703    60A      0.726534
      61A      0.775847    62A      0.789197    63A      0.800410
      64A      0.805131    65A      0.821361    66A      0.843267
      67A      0.855477    68A      0.868037    69A      0.873816
      70A      0.883459    71A      0.885411    72A      0.889289
      73A      0.893530    74A      0.898361    75A      0.901106
      76A      0.903426    77A      0.907211    78A      0.916994
      79A      0.933840    80A      0.939029    81A      0.959884
      82A      0.968775    83A      1.015702    84A      1.056730
      85A      1.122235    86A      1.134116    87A      1.185830
      88A      1.236362    89A      1.273182    90A      1.304426
      91A      1.322932    92A      1.367922    93A      1.376632
      94A      1.395058    95A      1.464130    96A      1.473234
      97A      1.491017    98A      1.503742    99A      1.511094
     100A      1.627404   101A      1.662380   102A      1.668183
     103A      1.679186   104A      1.683445   105A      1.695074
     106A      1.853290   107A      1.864784   108A      1.867477
     109A      1.877288   110A      1.881082   111A      1.895371
     112A      1.913595   113A      1.917931   114A      1.918822
     115A      1.929504   116A      1.954413   117A      1.959067
     118A      1.974003   119A      1.978565   120A      1.997236
     121A      2.000810   122A      2.005880   123A      2.008518
     124A      2.030121   125A      2.047075   126A      2.065002
     127A      2.085014   128A      2.136566   129A      2.164502
     130A      2.215836   131A      2.231984   132A      2.276005
     133A      2.303881   134A      2.329164   135A      2.340018
     136A      2.406648   137A      2.436592   138A      2.440501
     139A      2.460998   140A      2.496625   141A      2.534485
     142A      2.594157   143A      2.617133   144A      2.626411
     145A      2.731191   146A      2.748092   147A      2.752678
     148A      2.758937   149A      2.765793   150A      2.783195
     151A      2.790061   152A      2.803162   153A      2.808169
     154A      2.850178   155A      2.945741   156A      2.969544
     157A      2.977763   158A      3.081473

    Final Occupation by Irrep:
              A
    DOCC [    30 ]

  @RHF Final Energy:  -595.02607725002201

   => Energetics <=

    Nuclear Repulsion Energy =            282.6806502156562715
    One-Electron Energy =               -1375.7374950612838802
    Two-Electron Energy =                 498.0307675956055959
    Total Energy =                       -595.0260772500221265

Computation Completed

Properties will be evaluated at   0.000000,   0.000000,   0.000000 [a0]

Properties computed using the SCF density matrix

  Nuclear Dipole Moment: [e a0]
     X:    -2.5196      Y:     3.2373      Z:   -11.3010

  Electronic Dipole Moment: [e a0]
     X:     2.9543      Y:    -2.8021      Z:    11.0356

  Dipole Moment: [e a0]
     X:     0.4347      Y:     0.4353      Z:    -0.2654     Total:     0.6700

  Dipole Moment: [D]
     X:     1.1049      Y:     1.1064      Z:    -0.6746     Total:     1.7029

*** tstop() called on ds3 at Tue Apr 28 02:02:27 2020
Module time:
	user time   =      25.89 seconds =       0.43 minutes
	system time =      10.61 seconds =       0.18 minutes
	total time  =         36 seconds =       0.60 minutes
Total time:
	user time   =      25.89 seconds =       0.43 minutes
	system time =      10.61 seconds =       0.18 minutes
	total time  =         36 seconds =       0.60 minutes
                                     G D M A

                                 by Anthony Stone

                           version 2.2.06, 22 June 2011

               Distributed Multipoles from Gaussian wavefunctions

Starting at 2:2:27 on 28 Apr 2020

Using SCF density matrix from file ./SSI/SSI-021MET-062GLN-1-dimer.test.10344.fchk

                         Distributed Multipole Analysis

Standard DMA

Positions and radii in angstrom
Multipole moments in atomic units, ea_0^k for rank k

C          x =  0.942974  y = -0.074277  z =  0.423630 angstrom
           Maximum rank =  0   Radius =  0.650 angstrom
                   Q00  =  -0.355226

C          x =  2.080974  y =  0.412723  z =  2.881630 angstrom
           Maximum rank =  0   Radius =  0.650 angstrom
                   Q00  =  -0.357888

S          x =  0.727974  y = -0.518277  z =  2.146630 angstrom
           Maximum rank =  0   Radius =  0.650 angstrom
                   Q00  =   0.128608

H          x =  1.922974  y = -0.395277  z =  0.069630 angstrom
           Maximum rank =  0   Radius =  0.325 angstrom
                   Q00  =   0.086227

H          x =  0.173974  y = -0.567277  z = -0.170370 angstrom
           Maximum rank =  0   Radius =  0.325 angstrom
                   Q00  =   0.121125

H          x =  0.851974  y =  1.006723  z =  0.308630 angstrom
           Maximum rank =  0   Radius =  0.325 angstrom
                   Q00  =   0.083578

H          x =  1.885974  y =  0.473723  z =  3.951630 angstrom
           Maximum rank =  0   Radius =  0.325 angstrom
                   Q00  =   0.118934

H          x =  2.082974  y =  1.425723  z =  2.477630 angstrom
           Maximum rank =  0   Radius =  0.325 angstrom
                   Q00  =   0.087349

H          x =  3.059084  y = -0.059787  z =  2.708304 angstrom
           Maximum rank =  0   Radius =  0.325 angstrom
                   Q00  =   0.089953

C          x = -1.450026  y =  0.740723  z = -2.482370 angstrom
           Maximum rank =  0   Radius =  0.650 angstrom
                   Q00  =  -0.072208

C          x = -2.656026  y = -0.057277  z = -1.981370 angstrom
           Maximum rank =  0   Radius =  0.650 angstrom
                   Q00  =  -0.254364

C          x = -0.630026  y =  0.067723  z = -3.543370 angstrom
           Maximum rank =  0   Radius =  0.650 angstrom
                   Q00  =  -0.228274

H          x = -1.807026  y =  1.700723  z = -2.847370 angstrom
           Maximum rank =  0   Radius =  0.325 angstrom
                   Q00  =   0.045128

H          x = -0.795026  y =  0.938723  z = -1.635370 angstrom
           Maximum rank =  0   Radius =  0.325 angstrom
                   Q00  =   0.036828

H          x = -2.309026  y = -1.013277  z = -1.580370 angstrom
           Maximum rank =  0   Radius =  0.325 angstrom
                   Q00  =   0.073312

H          x = -0.214026  y = -0.853277  z = -3.131370 angstrom
           Maximum rank =  0   Radius =  0.325 angstrom
                   Q00  =   0.070668

H          x = -1.254026  y = -0.193277  z = -4.397370 angstrom
           Maximum rank =  0   Radius =  0.325 angstrom
                   Q00  =   0.075461

H          x = -3.366616  y = -0.233007  z = -2.802460 angstrom
           Maximum rank =  0   Radius =  0.325 angstrom
                   Q00  =   0.080905

H          x = -3.115536  y =  0.514413  z = -1.161595 angstrom
           Maximum rank =  0   Radius =  0.325 angstrom
                   Q00  =   0.086855

H          x =  0.176204  y =  0.723013  z = -3.904760 angstrom
           Maximum rank =  0   Radius =  0.325 angstrom
                   Q00  =   0.083029

Total multipoles referred to origin at
           x =   0.000000,  y =    0.000000,  z =    0.000000 angstrom
                   Q00  =  -0.000000

Finished at 2:2:27 on 28 Apr 2020

  DMA results are available in the Python driver through the
	  variable('DMA DISTRIBUTED MULTIPOLES')
  and
	  variable('DMA TOTAL MULTIPOLES')
  commands.

    Psi4 stopped on: Tuesday, 28 April 2020 02:02AM
    Psi4 wall time for execution: 0:00:36.04

*** Psi4 exiting successfully. Buy a developer a beer!
