                               Psi4 1.3.2 release

  ==> Input File <==

--------------------------------------------------------------------------
import numpy as np
set {scf_type pk
basis cc-pvdz
d_convergence 10
gdma_switch   0
gdma_limit    0
gdma_origin   [ 0.0,  0.0,  0.0 ]
}
molecule test {
    units Angstrom
    1 1
    --
    1 1
    C               -2.104738902915618    -1.098076367682836     0.082073973682264
    N               -0.673738902915619    -1.481076367682836     0.004073973682264
    H               -0.469738902915619    -2.071076367682836    -0.796926026317736
    H               -0.078738902915619    -0.663076367682836    -0.090926026317736
    H               -0.355738902915619    -1.975076367682836     0.829073973682264
    H               -2.421738902915619    -0.641076367682836    -0.859926026317736
    H               -2.242738902915619    -0.362076367682836     0.882073973682264
    H               -2.750568902915619    -1.964206367682836     0.288743973682264
    C                1.981261097084381     1.615923632317164     0.125073973682264
    O                0.756261097084381     0.951923632317164    -0.170926026317736
    H                0.249261097084381     1.606923632317164    -0.692926026317736
    H                2.271261097084381     1.394923632317164     1.154073973682264
    H                1.849261097084382     2.694923632317164     0.033073973682264
    H                2.778461097084381     1.284773632317164    -0.556696026317736

}
e, wfn = energy('scf', return_wfn=True)
gdma(wfn)
dmavals = variable('DMA DISTRIBUTED MULTIPOLES')
charges = np.array(dmavals)
print(charges)
np.save('SSI-041LYS-110SER-1-dimer.npy', np.array(charges))--------------------------------------------------------------------------

*** tstart() called on ds3
*** at Tue Apr 28 13:48:20 2020

   => Loading Basis Set <=

    Name: CC-PVDZ
    Role: ORBITAL
    Keyword: BASIS
    atoms 1, 9       entry C          line   138 file /theoryfs2/ds/metcalf/miniconda2/envs/tf2gpu/share/psi4/basis/cc-pvdz.gbs
    atoms 2          entry N          line   168 file /theoryfs2/ds/metcalf/miniconda2/envs/tf2gpu/share/psi4/basis/cc-pvdz.gbs
    atoms 3-8, 11-14 entry H          line    22 file /theoryfs2/ds/metcalf/miniconda2/envs/tf2gpu/share/psi4/basis/cc-pvdz.gbs
    atoms 10         entry O          line   198 file /theoryfs2/ds/metcalf/miniconda2/envs/tf2gpu/share/psi4/basis/cc-pvdz.gbs

         ---------------------------------------------------------
                                   SCF
               by Justin Turney, Rob Parrish, Andy Simmonett
                          and Daniel G. A. Smith
                              RHF Reference
                        1 Threads,    500 MiB Core
         ---------------------------------------------------------

  ==> Geometry <==

    Molecular point group: c1
    Full point group: C1

    Geometry (in Angstrom), charge = 1, multiplicity = 1:

       Center              X                  Y                   Z               Mass
    ------------   -----------------  -----------------  -----------------  -----------------
         C           -2.104738902916    -1.098076367683     0.082073973682    12.000000000000
         N           -0.673738902916    -1.481076367683     0.004073973682    14.003074004430
         H           -0.469738902916    -2.071076367683    -0.796926026318     1.007825032230
         H           -0.078738902916    -0.663076367683    -0.090926026318     1.007825032230
         H           -0.355738902916    -1.975076367683     0.829073973682     1.007825032230
         H           -2.421738902916    -0.641076367683    -0.859926026318     1.007825032230
         H           -2.242738902916    -0.362076367683     0.882073973682     1.007825032230
         H           -2.750568902916    -1.964206367683     0.288743973682     1.007825032230
         C            1.981261097084     1.615923632317     0.125073973682    12.000000000000
         O            0.756261097084     0.951923632317    -0.170926026318    15.994914619570
         H            0.249261097084     1.606923632317    -0.692926026318     1.007825032230
         H            2.271261097084     1.394923632317     1.154073973682     1.007825032230
         H            1.849261097084     2.694923632317     0.033073973682     1.007825032230
         H            2.778461097084     1.284773632317    -0.556696026318     1.007825032230

  Running in c1 symmetry.

  Rotational constants: A =      0.65814  B =      0.06613  C =      0.06268 [cm^-1]
  Rotational constants: A =  19730.53361  B =   1982.63554  C =   1878.97418 [MHz]
  Nuclear repulsion =  136.884498322048358

  Charge       = 1
  Multiplicity = 1
  Electrons    = 36
  Nalpha       = 18
  Nbeta        = 18

  ==> Algorithm <==

  SCF Algorithm Type is PK.
  DIIS enabled.
  MOM disabled.
  Fractional occupation disabled.
  Guess Type is SAD.
  Energy threshold   = 1.00e-06
  Density threshold  = 1.00e-10
  Integral threshold = 0.00e+00

  ==> Primary Basis <==

  Basis Set: CC-PVDZ
    Blend: CC-PVDZ
    Number of shells: 54
    Number of basis function: 106
    Number of Cartesian functions: 110
    Spherical Harmonics?: true
    Max angular momentum: 2

  ==> Pre-Iterations <==

   -------------------------------------------------------
    Irrep   Nso     Nmo     Nalpha   Nbeta   Ndocc  Nsocc
   -------------------------------------------------------
     A        106     106       0       0       0       0
   -------------------------------------------------------
    Total     106     106      18      18      18       0
   -------------------------------------------------------

  ==> Integral Setup <==

  Using in-core PK algorithm.
   Calculation information:
      Number of atoms:                  14
      Number of AO shells:              54
      Number of primitives:            138
      Number of atomic orbitals:       110
      Number of basis functions:       106

      Integral cutoff                 1.00e-12
      Number of threads:                 1

  Performing in-core PK
  Using 32165912 doubles for integral storage.
  We computed 933843 shell quartets total.
  Whereas there are 1103355 unique shell quartets.

  ==> DiskJK: Disk-Based J/K Matrices <==

    J tasked:                  Yes
    K tasked:                  Yes
    wK tasked:                  No
    Memory [MiB]:              375
    Schwarz Cutoff:          1E-12

    OpenMP threads:              1

  Minimum eigenvalue in the overlap matrix is 1.1112133112E-02.
  Using Symmetric Orthogonalization.

  SCF Guess: Superposition of Atomic Densities via on-the-fly atomic UHF.

  ==> Iterations <==

                        Total Energy        Delta E     RMS |[F,P]|

   @RHF iter SAD:  -209.95549300888621   -2.09955e+02   0.00000e+00
   @RHF iter   1:  -210.55609373067423   -6.00601e-01   3.93565e-03 DIIS
   @RHF iter   2:  -210.64936593082456   -9.32722e-02   1.61528e-03 DIIS
   @RHF iter   3:  -210.66167083686489   -1.23049e-02   5.13555e-04 DIIS
   @RHF iter   4:  -210.66341507030796   -1.74423e-03   1.01022e-04 DIIS
   @RHF iter   5:  -210.66348982399785   -7.47537e-05   2.75319e-05 DIIS
   @RHF iter   6:  -210.66349641379898   -6.58980e-06   5.69532e-06 DIIS
   @RHF iter   7:  -210.66349682645901   -4.12660e-07   1.58440e-06 DIIS
   @RHF iter   8:  -210.66349685715255   -3.06935e-08   5.71581e-07 DIIS
   @RHF iter   9:  -210.66349685995826   -2.80571e-09   9.86148e-08 DIIS
   @RHF iter  10:  -210.66349686006572   -1.07462e-10   1.80696e-08 DIIS
   @RHF iter  11:  -210.66349686007004   -4.32010e-12   4.86021e-09 DIIS
   @RHF iter  12:  -210.66349686007038   -3.41061e-13   1.04789e-09 DIIS
   @RHF iter  13:  -210.66349686007018    1.98952e-13   2.27052e-10 DIIS
   @RHF iter  14:  -210.66349686007061   -4.26326e-13   7.54327e-11 DIIS
  Energy and wave function converged.

  ==> Post-Iterations <==

    Orbital Energies [Eh]
    ---------------------

    Doubly Occupied:

       1A    -20.727674     2A    -15.877862     3A    -11.475113
       4A    -11.414828     5A     -1.522108     6A     -1.499628
       7A     -1.150806     8A     -1.064312     9A     -0.957396
      10A     -0.954963    11A     -0.851512    12A     -0.840594
      13A     -0.765253    14A     -0.757618    15A     -0.750296
      16A     -0.737436    17A     -0.652681    18A     -0.604156

    Virtual:

      19A     -0.030652    20A      0.028239    21A      0.034990
      22A      0.047427    23A      0.086473    24A      0.091356
      25A      0.098731    26A      0.132470    27A      0.147445
      28A      0.159570    29A      0.194822    30A      0.246543
      31A      0.382326    32A      0.384177    33A      0.432213
      34A      0.480790    35A      0.503444    36A      0.528955
      37A      0.541643    38A      0.588304    39A      0.655790
      40A      0.664846    41A      0.669674    42A      0.686627
      43A      0.718134    44A      0.728269    45A      0.753204
      46A      0.769462    47A      0.781084    48A      0.792587
      49A      0.852588    50A      0.925588    51A      0.939661
      52A      0.991462    53A      0.999968    54A      1.040745
      55A      1.087483    56A      1.150619    57A      1.185303
      58A      1.280478    59A      1.304764    60A      1.398706
      61A      1.420915    62A      1.476747    63A      1.523259
      64A      1.543708    65A      1.556853    66A      1.654613
      67A      1.694817    68A      1.699560    69A      1.706270
      70A      1.720257    71A      1.737780    72A      1.748647
      73A      1.759584    74A      1.796761    75A      1.801363
      76A      1.902896    77A      1.934352    78A      1.951881
      79A      1.956405    80A      1.963849    81A      1.976759
      82A      2.125985    83A      2.162425    84A      2.175283
      85A      2.236353    86A      2.257071    87A      2.270378
      88A      2.295508    89A      2.318987    90A      2.484722
      91A      2.492617    92A      2.510384    93A      2.545206
      94A      2.612269    95A      2.630700    96A      2.651437
      97A      2.741526    98A      2.752919    99A      2.771448
     100A      3.107983   101A      3.111157   102A      3.148004
     103A      3.195488   104A      3.347222   105A      3.389396
     106A      3.907194

    Final Occupation by Irrep:
              A
    DOCC [    18 ]

  @RHF Final Energy:  -210.66349686007061

   => Energetics <=

    Nuclear Repulsion Energy =            136.8844983220483584
    One-Electron Energy =                -549.8875179739096666
    Two-Electron Energy =                 202.3395227917907278
    Total Energy =                       -210.6634968600706088

Computation Completed

Properties will be evaluated at   0.000000,   0.000000,   0.000000 [a0]

Properties computed using the SCF density matrix

  Nuclear Dipole Moment: [e a0]
     X:    -1.0922      Y:    -0.6427      Z:     0.1769

  Electronic Dipole Moment: [e a0]
     X:     0.0611      Y:    -0.8204      Z:    -0.3420

  Dipole Moment: [e a0]
     X:    -1.0311      Y:    -1.4631      Z:    -0.1651     Total:     1.7975

  Dipole Moment: [D]
     X:    -2.6208      Y:    -3.7188      Z:    -0.4196     Total:     4.5688

*** tstop() called on ds3 at Tue Apr 28 13:48:25 2020
Module time:
	user time   =       5.59 seconds =       0.09 minutes
	system time =       0.13 seconds =       0.00 minutes
	total time  =          5 seconds =       0.08 minutes
Total time:
	user time   =       5.59 seconds =       0.09 minutes
	system time =       0.13 seconds =       0.00 minutes
	total time  =          5 seconds =       0.08 minutes
                                     G D M A

                                 by Anthony Stone

                           version 2.2.06, 22 June 2011

               Distributed Multipoles from Gaussian wavefunctions

Starting at 13:48:25 on 28 Apr 2020

Using SCF density matrix from file ./SSI/SSI-041LYS-110SER-1-dimer.test.16046.fchk

                         Distributed Multipole Analysis

Standard DMA

Positions and radii in angstrom
Multipole moments in atomic units, ea_0^k for rank k

C          x = -2.104739  y = -1.098076  z =  0.082074 angstrom
           Maximum rank =  0   Radius =  0.650 angstrom
                   Q00  =  -0.150576

N          x = -0.673739  y = -1.481076  z =  0.004074 angstrom
           Maximum rank =  0   Radius =  0.650 angstrom
                   Q00  =  -0.142696

H          x = -0.469739  y = -2.071076  z = -0.796926 angstrom
           Maximum rank =  0   Radius =  0.325 angstrom
                   Q00  =   0.245766

H          x = -0.078739  y = -0.663076  z = -0.090926 angstrom
           Maximum rank =  0   Radius =  0.325 angstrom
                   Q00  =   0.315862

H          x = -0.355739  y = -1.975076  z =  0.829074 angstrom
           Maximum rank =  0   Radius =  0.325 angstrom
                   Q00  =   0.248264

H          x = -2.421739  y = -0.641076  z = -0.859926 angstrom
           Maximum rank =  0   Radius =  0.325 angstrom
                   Q00  =   0.154726

H          x = -2.242739  y = -0.362076  z =  0.882074 angstrom
           Maximum rank =  0   Radius =  0.325 angstrom
                   Q00  =   0.157619

H          x = -2.750569  y = -1.964206  z =  0.288744 angstrom
           Maximum rank =  0   Radius =  0.325 angstrom
                   Q00  =   0.158939

C          x =  1.981261  y =  1.615924  z =  0.125074 angstrom
           Maximum rank =  0   Radius =  0.650 angstrom
                   Q00  =  -0.077984

O          x =  0.756261  y =  0.951924  z = -0.170926 angstrom
           Maximum rank =  0   Radius =  0.650 angstrom
                   Q00  =  -0.686697

H          x =  0.249261  y =  1.606924  z = -0.692926 angstrom
           Maximum rank =  0   Radius =  0.325 angstrom
                   Q00  =   0.426403

H          x =  2.271261  y =  1.394924  z =  1.154074 angstrom
           Maximum rank =  0   Radius =  0.325 angstrom
                   Q00  =   0.125149

H          x =  1.849261  y =  2.694924  z =  0.033074 angstrom
           Maximum rank =  0   Radius =  0.325 angstrom
                   Q00  =   0.113968

H          x =  2.778461  y =  1.284774  z = -0.556696 angstrom
           Maximum rank =  0   Radius =  0.325 angstrom
                   Q00  =   0.111257

Total multipoles referred to origin at
           x =   0.000000,  y =    0.000000,  z =    0.000000 angstrom
                   Q00  =   1.000000

Finished at 13:48:25 on 28 Apr 2020

  DMA results are available in the Python driver through the
	  variable('DMA DISTRIBUTED MULTIPOLES')
  and
	  variable('DMA TOTAL MULTIPOLES')
  commands.

    Psi4 stopped on: Tuesday, 28 April 2020 01:48PM
    Psi4 wall time for execution: 0:00:05.91

*** Psi4 exiting successfully. Buy a developer a beer!
