                               Psi4 1.3.2 release

  ==> Input File <==

--------------------------------------------------------------------------
import numpy as np
set {scf_type pk
basis cc-pvdz
d_convergence 10
gdma_switch   0
gdma_limit    0
gdma_origin   [ 0.0,  0.0,  0.0 ]
}
molecule test {
    units Angstrom
    -1 1
    --
    -1 1
    C               -0.061688831026563     1.447648123446633    -1.457170857537208
    C               -1.193688831026563     0.729648123446633    -0.711170857537208
    O               -1.589688831026563     1.155648123446633     0.393829142462792
    O               -1.661688831026563    -0.315351876553367    -1.228170857537207
    H               -0.316688831026563     1.546648123446633    -2.512170857537208
    H                0.818311168973438     0.801648123446633    -1.417170857537207
    H                0.236481168973437     2.419958123446634    -1.038000857537207
    C                1.665311168973437    -1.223351876553367     1.003829142462793
    C                2.753311168973438    -1.729351876553367     1.947829142462792
    H                2.086311168973437    -1.023351876553367     0.015829142462792
    H                0.877311168973437    -1.971351876553367     0.929829142462793
    H                1.226311168973437    -0.305351876553367     1.401829142462792
    H                2.286311168973438    -1.991351876553367     2.891829142462793
    H                3.505761168973438    -0.943051876553367     2.107679142462792
    H                3.217401168973438    -2.637261876553367     1.535139142462792

}
e, wfn = energy('scf', return_wfn=True)
gdma(wfn)
dmavals = variable('DMA DISTRIBUTED MULTIPOLES')
charges = np.array(dmavals)
print(charges)
np.save('SSI-061GLU-145LEU-1-dimer.npy', np.array(charges))--------------------------------------------------------------------------

*** tstart() called on ds3
*** at Mon Apr 27 19:30:59 2020

   => Loading Basis Set <=

    Name: CC-PVDZ
    Role: ORBITAL
    Keyword: BASIS
    atoms 1-2, 8-9   entry C          line   138 file /theoryfs2/ds/metcalf/miniconda2/envs/tf2gpu/share/psi4/basis/cc-pvdz.gbs
    atoms 3-4        entry O          line   198 file /theoryfs2/ds/metcalf/miniconda2/envs/tf2gpu/share/psi4/basis/cc-pvdz.gbs
    atoms 5-7, 10-15 entry H          line    22 file /theoryfs2/ds/metcalf/miniconda2/envs/tf2gpu/share/psi4/basis/cc-pvdz.gbs

         ---------------------------------------------------------
                                   SCF
               by Justin Turney, Rob Parrish, Andy Simmonett
                          and Daniel G. A. Smith
                              RHF Reference
                        1 Threads,    500 MiB Core
         ---------------------------------------------------------

  ==> Geometry <==

    Molecular point group: c1
    Full point group: C1

    Geometry (in Angstrom), charge = -1, multiplicity = 1:

       Center              X                  Y                   Z               Mass
    ------------   -----------------  -----------------  -----------------  -----------------
         C           -0.061688831027     1.447648123447    -1.457170857537    12.000000000000
         C           -1.193688831027     0.729648123447    -0.711170857537    12.000000000000
         O           -1.589688831027     1.155648123447     0.393829142463    15.994914619570
         O           -1.661688831027    -0.315351876553    -1.228170857537    15.994914619570
         H           -0.316688831027     1.546648123447    -2.512170857537     1.007825032230
         H            0.818311168973     0.801648123447    -1.417170857537     1.007825032230
         H            0.236481168973     2.419958123447    -1.038000857537     1.007825032230
         C            1.665311168973    -1.223351876553     1.003829142463    12.000000000000
         C            2.753311168973    -1.729351876553     1.947829142463    12.000000000000
         H            2.086311168973    -1.023351876553     0.015829142463     1.007825032230
         H            0.877311168973    -1.971351876553     0.929829142463     1.007825032230
         H            1.226311168973    -0.305351876553     1.401829142463     1.007825032230
         H            2.286311168973    -1.991351876553     2.891829142463     1.007825032230
         H            3.505761168973    -0.943051876553     2.107679142463     1.007825032230
         H            3.217401168973    -2.637261876553     1.535139142463     1.007825032230

  Running in c1 symmetry.

  Rotational constants: A =      0.17280  B =      0.03473  C =      0.03402 [cm^-1]
  Rotational constants: A =   5180.28346  B =   1041.29190  C =   1019.84263 [MHz]
  Nuclear repulsion =  218.322185258396217

  Charge       = -1
  Multiplicity = 1
  Electrons    = 50
  Nalpha       = 25
  Nbeta        = 25

  ==> Algorithm <==

  SCF Algorithm Type is PK.
  DIIS enabled.
  MOM disabled.
  Fractional occupation disabled.
  Guess Type is SAD.
  Energy threshold   = 1.00e-06
  Density threshold  = 1.00e-10
  Integral threshold = 0.00e+00

  ==> Primary Basis <==

  Basis Set: CC-PVDZ
    Blend: CC-PVDZ
    Number of shells: 63
    Number of basis function: 129
    Number of Cartesian functions: 135
    Spherical Harmonics?: true
    Max angular momentum: 2

  ==> Pre-Iterations <==

   -------------------------------------------------------
    Irrep   Nso     Nmo     Nalpha   Nbeta   Ndocc  Nsocc
   -------------------------------------------------------
     A        129     129       0       0       0       0
   -------------------------------------------------------
    Total     129     129      25      25      25       0
   -------------------------------------------------------

  ==> Integral Setup <==

  Using integral reordering PK algorithm.
  Sizing the integral batches needed.
  Building batch lookup table.
   Calculation information:
      Number of atoms:                  15
      Number of AO shells:              63
      Number of primitives:            177
      Number of atomic orbitals:       135
      Number of basis functions:       129

      Integral cutoff                 1.00e-12
      Number of threads:                 1

	Batch   1 pq = [       0,    8385] index = [             0,35158305] size =     35158305
  Task number: 4
  Buffer size: 11059200
  Buffer per thread: 2
  We computed 1618723 shell quartets total.
  Whereas there are 2033136 unique shell quartets.

  ==> DiskJK: Disk-Based J/K Matrices <==

    J tasked:                  Yes
    K tasked:                  Yes
    wK tasked:                  No
    Memory [MiB]:              375
    Schwarz Cutoff:          1E-12

    OpenMP threads:              1

  Minimum eigenvalue in the overlap matrix is 5.4914451994E-03.
  Using Symmetric Orthogonalization.

  SCF Guess: Superposition of Atomic Densities via on-the-fly atomic UHF.

  ==> Iterations <==

                        Total Energy        Delta E     RMS |[F,P]|

   @RHF iter SAD:  -304.81613723022218   -3.04816e+02   0.00000e+00
   @RHF iter   1:  -306.20731957626708   -1.39118e+00   5.66930e-03 DIIS
   @RHF iter   2:  -306.40655898503599   -1.99239e-01   3.20159e-03 DIIS
   @RHF iter   3:  -306.46895992822624   -6.24009e-02   4.75379e-04 DIIS
   @RHF iter   4:  -306.47153436558875   -2.57444e-03   1.76644e-04 DIIS
   @RHF iter   5:  -306.47191590420329   -3.81539e-04   2.53494e-05 DIIS
   @RHF iter   6:  -306.47192615239186   -1.02482e-05   5.45867e-06 DIIS
   @RHF iter   7:  -306.47192663213133   -4.79739e-07   1.67449e-06 DIIS
   @RHF iter   8:  -306.47192667562280   -4.34915e-08   4.37704e-07 DIIS
   @RHF iter   9:  -306.47192668027833   -4.65553e-09   1.61328e-07 DIIS
   @RHF iter  10:  -306.47192668081834   -5.40012e-10   7.23499e-08 DIIS
   @RHF iter  11:  -306.47192668093237   -1.14028e-10   3.02777e-08 DIIS
   @RHF iter  12:  -306.47192668095192   -1.95541e-11   7.60155e-09 DIIS
   @RHF iter  13:  -306.47192668095317   -1.25056e-12   2.76209e-09 DIIS
   @RHF iter  14:  -306.47192668095414   -9.66338e-13   7.58059e-10 DIIS
   @RHF iter  15:  -306.47192668095335    7.95808e-13   3.29751e-10 DIIS
   @RHF iter  16:  -306.47192668095380   -4.54747e-13   8.62395e-11 DIIS
  Energy and wave function converged.

  ==> Post-Iterations <==

    Orbital Energies [Eh]
    ---------------------

    Doubly Occupied:

       1A    -20.251996     2A    -20.246626     3A    -11.119907
       4A    -11.110104     5A    -11.097832     6A    -11.048129
       7A     -1.139263     8A     -1.023822     9A     -0.911282
      10A     -0.790679    11A     -0.725577    12A     -0.494799
      13A     -0.493934    14A     -0.490164    15A     -0.405552
      16A     -0.401320    17A     -0.394699    18A     -0.386153
      19A     -0.377851    20A     -0.373979    21A     -0.335573
      22A     -0.294940    23A     -0.176074    24A     -0.161424
      25A     -0.150546

    Virtual:

      26A      0.285854    27A      0.331765    28A      0.351596
      29A      0.354679    30A      0.378876    31A      0.390614
      32A      0.410195    33A      0.414804    34A      0.444486
      35A      0.486681    36A      0.526316    37A      0.578251
      38A      0.675664    39A      0.704317    40A      0.706613
      41A      0.711942    42A      0.757748    43A      0.781082
      44A      0.796392    45A      0.845067    46A      0.894787
      47A      0.928384    48A      0.970248    49A      0.988068
      50A      0.991482    51A      1.012574    52A      1.014791
      53A      1.023494    54A      1.040727    55A      1.046128
      56A      1.055290    57A      1.076889    58A      1.081677
      59A      1.122502    60A      1.144965    61A      1.229007
      62A      1.237938    63A      1.258883    64A      1.330073
      65A      1.342634    66A      1.359332    67A      1.402374
      68A      1.540470    69A      1.566040    70A      1.583277
      71A      1.589241    72A      1.598838    73A      1.601734
      74A      1.666194    75A      1.678493    76A      1.692741
      77A      1.736870    78A      1.774028    79A      1.811965
      80A      1.848748    81A      1.862062    82A      1.962221
      83A      1.973742    84A      2.012029    85A      2.035709
      86A      2.054507    87A      2.056145    88A      2.065167
      89A      2.073301    90A      2.084149    91A      2.098819
      92A      2.124072    93A      2.144920    94A      2.212179
      95A      2.215617    96A      2.225893    97A      2.259735
      98A      2.335519    99A      2.394552   100A      2.421915
     101A      2.444759   102A      2.494218   103A      2.562639
     104A      2.573117   105A      2.606199   106A      2.660085
     107A      2.672981   108A      2.682119   109A      2.722711
     110A      2.792945   111A      2.862963   112A      2.906762
     113A      2.923640   114A      2.948702   115A      2.955942
     116A      2.981249   117A      3.003371   118A      3.053970
     119A      3.073501   120A      3.252167   121A      3.288834
     122A      3.302726   123A      3.368981   124A      3.649700
     125A      3.778672   126A      3.831678   127A      4.065264
     128A      4.083840   129A      4.201164

    Final Occupation by Irrep:
              A
    DOCC [    25 ]

  @RHF Final Energy:  -306.47192668095380

   => Energetics <=

    Nuclear Repulsion Energy =            218.3221852583962175
    One-Electron Energy =                -860.7837749956788684
    Two-Electron Energy =                 335.9896630563288795
    Total Energy =                       -306.4719266809537999

Computation Completed

Properties will be evaluated at   0.000000,   0.000000,   0.000000 [a0]

Properties computed using the SCF density matrix

  Nuclear Dipole Moment: [e a0]
     X:    13.0504      Y:    -3.8428      Z:     3.6660

  Electronic Dipole Moment: [e a0]
     X:   -10.0829      Y:     3.2724      Z:    -3.0863

  Dipole Moment: [e a0]
     X:     2.9674      Y:    -0.5704      Z:     0.5796     Total:     3.0769

  Dipole Moment: [D]
     X:     7.5425      Y:    -1.4499      Z:     1.4733     Total:     7.8206

*** tstop() called on ds3 at Mon Apr 27 19:31:28 2020
Module time:
	user time   =      11.14 seconds =       0.19 minutes
	system time =       4.61 seconds =       0.08 minutes
	total time  =         29 seconds =       0.48 minutes
Total time:
	user time   =      11.14 seconds =       0.19 minutes
	system time =       4.61 seconds =       0.08 minutes
	total time  =         29 seconds =       0.48 minutes
                                     G D M A

                                 by Anthony Stone

                           version 2.2.06, 22 June 2011

               Distributed Multipoles from Gaussian wavefunctions

Starting at 19:31:28 on 27 Apr 2020

Using SCF density matrix from file ./SSI/SSI-061GLU-145LEU-1-dimer.test.6824.fchk

                         Distributed Multipole Analysis

Standard DMA

Positions and radii in angstrom
Multipole moments in atomic units, ea_0^k for rank k

C          x = -0.061689  y =  1.447648  z = -1.457171 angstrom
           Maximum rank =  0   Radius =  0.650 angstrom
                   Q00  =  -0.287054

C          x = -1.193689  y =  0.729648  z = -0.711171 angstrom
           Maximum rank =  0   Radius =  0.650 angstrom
                   Q00  =   0.971855

O          x = -1.589689  y =  1.155648  z =  0.393829 angstrom
           Maximum rank =  0   Radius =  0.650 angstrom
                   Q00  =  -0.921839

O          x = -1.661689  y = -0.315352  z = -1.228171 angstrom
           Maximum rank =  0   Radius =  0.650 angstrom
                   Q00  =  -0.941007

H          x = -0.316689  y =  1.546648  z = -2.512171 angstrom
           Maximum rank =  0   Radius =  0.325 angstrom
                   Q00  =   0.062316

H          x =  0.818311  y =  0.801648  z = -1.417171 angstrom
           Maximum rank =  0   Radius =  0.325 angstrom
                   Q00  =   0.071140

H          x =  0.236481  y =  2.419958  z = -1.038001 angstrom
           Maximum rank =  0   Radius =  0.325 angstrom
                   Q00  =   0.045337

C          x =  1.665311  y = -1.223352  z =  1.003829 angstrom
           Maximum rank =  0   Radius =  0.650 angstrom
                   Q00  =  -0.174255

C          x =  2.753311  y = -1.729352  z =  1.947829 angstrom
           Maximum rank =  0   Radius =  0.650 angstrom
                   Q00  =  -0.262220

H          x =  2.086311  y = -1.023352  z =  0.015829 angstrom
           Maximum rank =  0   Radius =  0.325 angstrom
                   Q00  =   0.069262

H          x =  0.877311  y = -1.971352  z =  0.929829 angstrom
           Maximum rank =  0   Radius =  0.325 angstrom
                   Q00  =   0.087482

H          x =  1.226311  y = -0.305352  z =  1.401829 angstrom
           Maximum rank =  0   Radius =  0.325 angstrom
                   Q00  =   0.088975

H          x =  2.286311  y = -1.991352  z =  2.891829 angstrom
           Maximum rank =  0   Radius =  0.325 angstrom
                   Q00  =   0.069414

H          x =  3.505761  y = -0.943052  z =  2.107679 angstrom
           Maximum rank =  0   Radius =  0.325 angstrom
                   Q00  =   0.063417

H          x =  3.217401  y = -2.637262  z =  1.535139 angstrom
           Maximum rank =  0   Radius =  0.325 angstrom
                   Q00  =   0.057178

Total multipoles referred to origin at
           x =   0.000000,  y =    0.000000,  z =    0.000000 angstrom
                   Q00  =  -1.000000

Finished at 19:31:28 on 27 Apr 2020

  DMA results are available in the Python driver through the
	  variable('DMA DISTRIBUTED MULTIPOLES')
  and
	  variable('DMA TOTAL MULTIPOLES')
  commands.

    Psi4 stopped on: Monday, 27 April 2020 07:31PM
    Psi4 wall time for execution: 0:00:29.12

*** Psi4 exiting successfully. Buy a developer a beer!
