                               Psi4 1.3.2 release

  ==> Input File <==

--------------------------------------------------------------------------
import numpy as np
set {scf_type pk
basis cc-pvdz
d_convergence 10
gdma_switch   0
gdma_limit    0
gdma_origin   [ 0.0,  0.0,  0.0 ]
}
molecule test {
    units Angstrom
    0 1
    --
    0 1
    C                2.790175737072194     0.940517841109153     1.835188367791405
    C               -0.340824262927806     0.233517841109153    -1.060811632208595
    C                0.182175737072194     1.519517841109153    -0.889811632208595
    C                0.139175737072194    -0.829482158890847    -0.247811632208595
    C                1.196175737072194     1.732517841109153     0.032188367791405
    C                1.135175737072194    -0.590482158890847     0.687188367791405
    C                1.676175737072194     0.693517841109153     0.839188367791405
    H               -0.984824262927806     0.066517841109153    -1.899811632208595
    H               -0.171824262927806     2.331517841109153    -1.475811632208595
    H               -0.221824262927806    -1.835482158890847    -0.398811632208595
    H                1.609175737072194     2.723517841109153     0.134188367791405
    H                1.506175737072194    -1.401482158890847     1.289188367791405
    H                3.424175737072194     1.735517841109153     1.443188367791405
    H                3.398175737072194     0.037517841109153     1.905188367791405
    H                2.448785737072193     1.214923841109153     2.844228367791406
    C               -3.194824262927806    -1.594482158890847     0.152188367791405
    C               -2.959824262927806    -1.695482158890847    -1.363811632208595
    H               -3.271824262927806    -2.592482158890847     0.584188367791405
    H               -2.358824262927806    -1.084482158890847     0.625188367791405
    H               -4.098824262927806    -1.028482158890847     0.372188367791405
    H               -2.109824262927806    -2.341482158890847    -1.562811632208595
    H               -2.755824262927806    -0.697482158890847    -1.716811632208595
    H               -3.837774262927806    -2.005896158890847    -1.949351632208595

}
e, wfn = energy('scf', return_wfn=True)
gdma(wfn)
dmavals = variable('DMA DISTRIBUTED MULTIPOLES')
charges = np.array(dmavals)
print(charges)
np.save('SSI-058PHE-101ILE-1-dimer.npy', np.array(charges))--------------------------------------------------------------------------

*** tstart() called on ds3
*** at Sun Apr 26 17:53:14 2020

   => Loading Basis Set <=

    Name: CC-PVDZ
    Role: ORBITAL
    Keyword: BASIS
    atoms 1-7, 16-17  entry C          line   138 file /theoryfs2/ds/metcalf/miniconda2/envs/tf2gpu/share/psi4/basis/cc-pvdz.gbs
    atoms 8-15, 18-23 entry H          line    22 file /theoryfs2/ds/metcalf/miniconda2/envs/tf2gpu/share/psi4/basis/cc-pvdz.gbs

         ---------------------------------------------------------
                                   SCF
               by Justin Turney, Rob Parrish, Andy Simmonett
                          and Daniel G. A. Smith
                              RHF Reference
                        1 Threads,    500 MiB Core
         ---------------------------------------------------------

  ==> Geometry <==

    Molecular point group: c1
    Full point group: C1

    Geometry (in Angstrom), charge = 0, multiplicity = 1:

       Center              X                  Y                   Z               Mass
    ------------   -----------------  -----------------  -----------------  -----------------
         C            2.790175737072     0.940517841109     1.835188367791    12.000000000000
         C           -0.340824262928     0.233517841109    -1.060811632209    12.000000000000
         C            0.182175737072     1.519517841109    -0.889811632209    12.000000000000
         C            0.139175737072    -0.829482158891    -0.247811632209    12.000000000000
         C            1.196175737072     1.732517841109     0.032188367791    12.000000000000
         C            1.135175737072    -0.590482158891     0.687188367791    12.000000000000
         C            1.676175737072     0.693517841109     0.839188367791    12.000000000000
         H           -0.984824262928     0.066517841109    -1.899811632209     1.007825032230
         H           -0.171824262928     2.331517841109    -1.475811632209     1.007825032230
         H           -0.221824262928    -1.835482158891    -0.398811632209     1.007825032230
         H            1.609175737072     2.723517841109     0.134188367791     1.007825032230
         H            1.506175737072    -1.401482158891     1.289188367791     1.007825032230
         H            3.424175737072     1.735517841109     1.443188367791     1.007825032230
         H            3.398175737072     0.037517841109     1.905188367791     1.007825032230
         H            2.448785737072     1.214923841109     2.844228367791     1.007825032230
         C           -3.194824262928    -1.594482158891     0.152188367791    12.000000000000
         C           -2.959824262928    -1.695482158891    -1.363811632209    12.000000000000
         H           -3.271824262928    -2.592482158891     0.584188367791     1.007825032230
         H           -2.358824262928    -1.084482158891     0.625188367791     1.007825032230
         H           -4.098824262928    -1.028482158891     0.372188367791     1.007825032230
         H           -2.109824262928    -2.341482158891    -1.562811632209     1.007825032230
         H           -2.755824262928    -0.697482158891    -1.716811632209     1.007825032230
         H           -3.837774262928    -2.005896158891    -1.949351632209     1.007825032230

  Running in c1 symmetry.

  Rotational constants: A =      0.10776  B =      0.02422  C =      0.02152 [cm^-1]
  Rotational constants: A =   3230.67864  B =    726.06964  C =    645.08791 [MHz]
  Nuclear repulsion =  413.620275381611691

  Charge       = 0
  Multiplicity = 1
  Electrons    = 68
  Nalpha       = 34
  Nbeta        = 34

  ==> Algorithm <==

  SCF Algorithm Type is PK.
  DIIS enabled.
  MOM disabled.
  Fractional occupation disabled.
  Guess Type is SAD.
  Energy threshold   = 1.00e-06
  Density threshold  = 1.00e-10
  Integral threshold = 0.00e+00

  ==> Primary Basis <==

  Basis Set: CC-PVDZ
    Blend: CC-PVDZ
    Number of shells: 96
    Number of basis function: 196
    Number of Cartesian functions: 205
    Spherical Harmonics?: true
    Max angular momentum: 2

  ==> Pre-Iterations <==

   -------------------------------------------------------
    Irrep   Nso     Nmo     Nalpha   Nbeta   Ndocc  Nsocc
   -------------------------------------------------------
     A        196     196       0       0       0       0
   -------------------------------------------------------
    Total     196     196      34      34      34       0
   -------------------------------------------------------

  ==> Integral Setup <==

  Using integral reordering PK algorithm.
  Sizing the integral batches needed.
  Building batch lookup table.
   Calculation information:
      Number of atoms:                  23
      Number of AO shells:              96
      Number of primitives:            268
      Number of atomic orbitals:       205
      Number of basis functions:       196

      Integral cutoff                 1.00e-12
      Number of threads:                 1

	Batch   1 pq = [       0,    9405] index = [             0,44231715] size =     44231715
	Batch   2 pq = [    9405,   13301] index = [      44231715,88464951] size =     44233236
	Batch   3 pq = [   13301,   16290] index = [      88464951,132690195] size =     44225244
	Batch   4 pq = [   16290,   18810] index = [     132690195,176917455] size =     44227260
	Batch   5 pq = [   18810,   19306] index = [     176917455,186370471] size =      9453016
  Task number: 17
  Buffer size: 11059200
  Buffer per thread: 2
  We computed 9799391 shell quartets total.
  Whereas there are 10841496 unique shell quartets.

  ==> DiskJK: Disk-Based J/K Matrices <==

    J tasked:                  Yes
    K tasked:                  Yes
    wK tasked:                  No
    Memory [MiB]:              375
    Schwarz Cutoff:          1E-12

    OpenMP threads:              1

  Minimum eigenvalue in the overlap matrix is 3.2761126969E-04.
  Using Symmetric Orthogonalization.

  SCF Guess: Superposition of Atomic Densities via on-the-fly atomic UHF.

  ==> Iterations <==

                        Total Energy        Delta E     RMS |[F,P]|

   @RHF iter SAD:  -347.89347399182520   -3.47893e+02   0.00000e+00
   @RHF iter   1:  -348.75911147839986   -8.65637e-01   2.86232e-03 DIIS
   @RHF iter   2:  -348.95009513268445   -1.90984e-01   1.16008e-03 DIIS
   @RHF iter   3:  -348.97854065629701   -2.84455e-02   2.56989e-04 DIIS
   @RHF iter   4:  -348.98099567441079   -2.45502e-03   4.92483e-05 DIIS
   @RHF iter   5:  -348.98106127789094   -6.56035e-05   1.69604e-05 DIIS
   @RHF iter   6:  -348.98106845476599   -7.17688e-06   4.64779e-06 DIIS
   @RHF iter   7:  -348.98106910703808   -6.52272e-07   1.39175e-06 DIIS
   @RHF iter   8:  -348.98106918771697   -8.06789e-08   4.25025e-07 DIIS
   @RHF iter   9:  -348.98106920507263   -1.73557e-08   2.02178e-07 DIIS
   @RHF iter  10:  -348.98106920979404   -4.72141e-09   9.17920e-08 DIIS
   @RHF iter  11:  -348.98106921106785   -1.27380e-09   2.81033e-08 DIIS
   @RHF iter  12:  -348.98106921115692   -8.90736e-11   9.89734e-09 DIIS
   @RHF iter  13:  -348.98106921116204   -5.11591e-12   3.70822e-09 DIIS
   @RHF iter  14:  -348.98106921116107    9.66338e-13   9.24930e-10 DIIS
   @RHF iter  15:  -348.98106921116403   -2.95586e-12   4.74148e-10 DIIS
   @RHF iter  16:  -348.98106921116289    1.13687e-12   2.47190e-10 DIIS
   @RHF iter  17:  -348.98106921116300   -1.13687e-13   9.85347e-11 DIIS
  Energy and wave function converged.

  ==> Post-Iterations <==

    Orbital Energies [Eh]
    ---------------------

    Doubly Occupied:

       1A    -11.242818     2A    -11.238454     3A    -11.233598
       4A    -11.232320     5A    -11.231289     6A    -11.230371
       7A    -11.229742     8A    -11.214839     9A    -11.211926
      10A     -1.148674    11A     -1.040077    12A     -1.016635
      13A     -1.011226    14A     -0.929576    15A     -0.839458
      16A     -0.822488    17A     -0.798786    18A     -0.692045
      19A     -0.635749    20A     -0.629106    21A     -0.601172
      22A     -0.591877    23A     -0.582729    24A     -0.574329
      25A     -0.559223    26A     -0.535099    27A     -0.500597
      28A     -0.492758    29A     -0.490433    30A     -0.482939
      31A     -0.478910    32A     -0.469340    33A     -0.333880
      34A     -0.316811

    Virtual:

      35A      0.133954    36A      0.137224    37A      0.182068
      38A      0.195131    39A      0.210732    40A      0.225191
      41A      0.233553    42A      0.243142    43A      0.251894
      44A      0.262776    45A      0.273403    46A      0.280529
      47A      0.289540    48A      0.307758    49A      0.324861
      50A      0.341697    51A      0.364241    52A      0.379261
      53A      0.399300    54A      0.451351    55A      0.467470
      56A      0.480330    57A      0.487448    58A      0.558789
      59A      0.595396    60A      0.601605    61A      0.613541
      62A      0.628157    63A      0.638281    64A      0.662740
      65A      0.678121    66A      0.679842    67A      0.705909
      68A      0.716141    69A      0.736503    70A      0.741215
      71A      0.745691    72A      0.760247    73A      0.768871
      74A      0.782726    75A      0.786523    76A      0.829105
      77A      0.834250    78A      0.858722    79A      0.867815
      80A      0.877435    81A      0.879634    82A      0.885141
      83A      0.899076    84A      0.901363    85A      0.910236
      86A      0.915757    87A      0.922804    88A      0.932106
      89A      0.940854    90A      0.953583    91A      0.967513
      92A      0.990861    93A      0.994383    94A      1.003332
      95A      1.036611    96A      1.076350    97A      1.100890
      98A      1.109222    99A      1.148770   100A      1.151883
     101A      1.167336   102A      1.190855   103A      1.208205
     104A      1.229746   105A      1.236071   106A      1.251858
     107A      1.266740   108A      1.279622   109A      1.307806
     110A      1.317817   111A      1.324091   112A      1.339425
     113A      1.425160   114A      1.468927   115A      1.480092
     116A      1.514398   117A      1.527775   118A      1.548782
     119A      1.599721   120A      1.654166   121A      1.682642
     122A      1.685671   123A      1.702367   124A      1.724161
     125A      1.742686   126A      1.750726   127A      1.765529
     128A      1.786441   129A      1.807765   130A      1.859393
     131A      1.871148   132A      1.883306   133A      1.888718
     134A      1.903530   135A      1.905187   136A      1.916544
     137A      1.924511   138A      1.933552   139A      1.935885
     140A      1.949247   141A      1.953869   142A      1.957704
     143A      1.959918   144A      1.971509   145A      1.987088
     146A      2.001548   147A      2.005534   148A      2.023796
     149A      2.045428   150A      2.057777   151A      2.071083
     152A      2.091380   153A      2.121931   154A      2.145329
     155A      2.153692   156A      2.171971   157A      2.181004
     158A      2.191385   159A      2.216410   160A      2.256823
     161A      2.281023   162A      2.293366   163A      2.297008
     164A      2.311362   165A      2.330685   166A      2.341143
     167A      2.350382   168A      2.452199   169A      2.463881
     170A      2.479416   171A      2.494261   172A      2.510251
     173A      2.541807   174A      2.567534   175A      2.611583
     176A      2.634976   177A      2.750584   178A      2.755402
     179A      2.770301   180A      2.785911   181A      2.796126
     182A      2.808396   183A      2.823012   184A      2.852578
     185A      2.863498   186A      2.875168   187A      2.898259
     188A      2.961974   189A      2.984121   190A      2.991443
     191A      3.003473   192A      3.035426   193A      3.149798
     194A      3.200110   195A      3.302028   196A      3.946485

    Final Occupation by Irrep:
              A
    DOCC [    34 ]

  @RHF Final Energy:  -348.98106921116300

   => Energetics <=

    Nuclear Repulsion Energy =            413.6202753816116910
    One-Electron Energy =               -1289.9241433234230954
    Two-Electron Energy =                 527.3227987306484010
    Total Energy =                       -348.9810692111630033

Computation Completed

Properties will be evaluated at   0.000000,   0.000000,   0.000000 [a0]

Properties computed using the SCF density matrix

  Nuclear Dipole Moment: [e a0]
     X:    -6.9606      Y:    -4.5727      Z:     0.1820

  Electronic Dipole Moment: [e a0]
     X:     7.1284      Y:     4.6461      Z:    -0.1272

  Dipole Moment: [e a0]
     X:     0.1678      Y:     0.0733      Z:     0.0548     Total:     0.1911

  Dipole Moment: [D]
     X:     0.4264      Y:     0.1864      Z:     0.1392     Total:     0.4857

*** tstop() called on ds3 at Sun Apr 26 17:54:55 2020
Module time:
	user time   =      73.37 seconds =       1.22 minutes
	system time =      31.28 seconds =       0.52 minutes
	total time  =        101 seconds =       1.68 minutes
Total time:
	user time   =      73.37 seconds =       1.22 minutes
	system time =      31.28 seconds =       0.52 minutes
	total time  =        101 seconds =       1.68 minutes
                                     G D M A

                                 by Anthony Stone

                           version 2.2.06, 22 June 2011

               Distributed Multipoles from Gaussian wavefunctions

Starting at 17:54:55 on 26 Apr 2020

Using SCF density matrix from file ./SSI/SSI-058PHE-101ILE-1-dimer.test.1807.fchk

                         Distributed Multipole Analysis

Standard DMA

Positions and radii in angstrom
Multipole moments in atomic units, ea_0^k for rank k

C          x =  2.790176  y =  0.940518  z =  1.835188 angstrom
           Maximum rank =  0   Radius =  0.650 angstrom
                   Q00  =  -0.196458

C          x = -0.340824  y =  0.233518  z = -1.060812 angstrom
           Maximum rank =  0   Radius =  0.650 angstrom
                   Q00  =  -0.104743

C          x =  0.182176  y =  1.519518  z = -0.889812 angstrom
           Maximum rank =  0   Radius =  0.650 angstrom
                   Q00  =  -0.062389

C          x =  0.139176  y = -0.829482  z = -0.247812 angstrom
           Maximum rank =  0   Radius =  0.650 angstrom
                   Q00  =  -0.089521

C          x =  1.196176  y =  1.732518  z =  0.032188 angstrom
           Maximum rank =  0   Radius =  0.650 angstrom
                   Q00  =  -0.004459

C          x =  1.135176  y = -0.590482  z =  0.687188 angstrom
           Maximum rank =  0   Radius =  0.650 angstrom
                   Q00  =  -0.044626

C          x =  1.676176  y =  0.693518  z =  0.839188 angstrom
           Maximum rank =  0   Radius =  0.650 angstrom
                   Q00  =  -0.116629

H          x = -0.984824  y =  0.066518  z = -1.899812 angstrom
           Maximum rank =  0   Radius =  0.325 angstrom
                   Q00  =   0.072243

H          x = -0.171824  y =  2.331518  z = -1.475812 angstrom
           Maximum rank =  0   Radius =  0.325 angstrom
                   Q00  =   0.065713

H          x = -0.221824  y = -1.835482  z = -0.398812 angstrom
           Maximum rank =  0   Radius =  0.325 angstrom
                   Q00  =   0.068129

H          x =  1.609176  y =  2.723518  z =  0.134188 angstrom
           Maximum rank =  0   Radius =  0.325 angstrom
                   Q00  =   0.054496

H          x =  1.506176  y = -1.401482  z =  1.289188 angstrom
           Maximum rank =  0   Radius =  0.325 angstrom
                   Q00  =   0.057239

H          x =  3.424176  y =  1.735518  z =  1.443188 angstrom
           Maximum rank =  0   Radius =  0.325 angstrom
                   Q00  =   0.098473

H          x =  3.398176  y =  0.037518  z =  1.905188 angstrom
           Maximum rank =  0   Radius =  0.325 angstrom
                   Q00  =   0.097294

H          x =  2.448786  y =  1.214924  z =  2.844228 angstrom
           Maximum rank =  0   Radius =  0.325 angstrom
                   Q00  =   0.105664

C          x = -3.194824  y = -1.594482  z =  0.152188 angstrom
           Maximum rank =  0   Radius =  0.650 angstrom
                   Q00  =  -0.238132

C          x = -2.959824  y = -1.695482  z = -1.363812 angstrom
           Maximum rank =  0   Radius =  0.650 angstrom
                   Q00  =  -0.244553

H          x = -3.271824  y = -2.592482  z =  0.584188 angstrom
           Maximum rank =  0   Radius =  0.325 angstrom
                   Q00  =   0.073773

H          x = -2.358824  y = -1.084482  z =  0.625188 angstrom
           Maximum rank =  0   Radius =  0.325 angstrom
                   Q00  =   0.096043

H          x = -4.098824  y = -1.028482  z =  0.372188 angstrom
           Maximum rank =  0   Radius =  0.325 angstrom
                   Q00  =   0.081964

H          x = -2.109824  y = -2.341482  z = -1.562812 angstrom
           Maximum rank =  0   Radius =  0.325 angstrom
                   Q00  =   0.074856

H          x = -2.755824  y = -0.697482  z = -1.716812 angstrom
           Maximum rank =  0   Radius =  0.325 angstrom
                   Q00  =   0.072999

H          x = -3.837774  y = -2.005896  z = -1.949352 angstrom
           Maximum rank =  0   Radius =  0.325 angstrom
                   Q00  =   0.082622

Total multipoles referred to origin at
           x =   0.000000,  y =    0.000000,  z =    0.000000 angstrom
                   Q00  =  -0.000000

Finished at 17:54:55 on 26 Apr 2020

  DMA results are available in the Python driver through the
	  variable('DMA DISTRIBUTED MULTIPOLES')
  and
	  variable('DMA TOTAL MULTIPOLES')
  commands.

    Psi4 stopped on: Sunday, 26 April 2020 05:54PM
    Psi4 wall time for execution: 0:01:41.29

*** Psi4 exiting successfully. Buy a developer a beer!
