                               Psi4 1.3.2 release

  ==> Input File <==

--------------------------------------------------------------------------
import numpy as np
set {scf_type pk
basis cc-pvdz
d_convergence 10
gdma_switch   0
gdma_limit    0
gdma_origin   [ 0.0,  0.0,  0.0 ]
}
molecule test {
    units Angstrom
    0 1
    --
    0 1
    C               -0.693301367416746    -1.681789331268948    -0.021390692362446
    C               -0.115301367416746    -2.659789331268948     1.046609307637554
    C                0.273698632583254    -0.610789331268948    -0.463390692362446
    C                0.816698632583253    -0.498789331268948    -1.688390692362446
    C                0.765698632583254     0.504210668731052     0.307609307637554
    C                1.622698632583254     1.276210668731052    -0.535390692362446
    C                0.562698632583254     0.933210668731052     1.639609307637554
    C                2.264698632583254     2.439210668731052    -0.091390692362446
    C                1.203698632583254     2.097210668731052     2.090609307637554
    C                2.044698632583254     2.845210668731053     1.231609307637554
    N                1.637698632583254     0.632210668731052    -1.760390692362446
    H               -1.027301367416746    -2.211789331268947    -0.918390692362446
    H               -1.552301367416746    -1.169789331268948     0.416609307637554
    H                0.100698632583254    -2.093789331268948     1.957609307637554
    H                0.561698632583254    -1.250789331268948    -2.426390692362446
    H                2.162698632583254     0.943210668731052    -2.572390692362446
    H               -0.080301367416746     0.391210668731052     2.326609307637554
    H                2.904698632583254     2.985210668731052    -0.772390692362446
    H                1.036698632583254     2.410210668731052     3.116609307637555
    H                2.522698632583254     3.744210668731053     1.600609307637554
    H                0.812128632583254    -3.105169331268947     0.657369307637554
    H               -0.885571367416746    -3.389059331268947     1.337889307637554
    C               -4.182301367416746    -2.437789331268948    -1.358390692362446
    C               -4.770301367416746    -1.680789331268948    -0.128390692362446
    H               -4.988301367416747    -2.748789331268948    -2.022390692362446
    H               -3.502301367416746    -1.784789331268948    -1.908390692362446
    H               -3.634301367416747    -3.321789331268948    -1.024390692362446
    H               -5.307301367416746    -0.793789331268948    -0.470390692362446
    H               -3.951301367416746    -1.365789331268948     0.522609307637554
    H               -5.466950367416746    -2.280249331268948     0.476029307637554

}
e, wfn = energy('scf', return_wfn=True)
gdma(wfn)
dmavals = variable('DMA DISTRIBUTED MULTIPOLES')
charges = np.array(dmavals)
print(charges)
np.save('SSI-045TRP-049ILE-1-dimer.npy', np.array(charges))--------------------------------------------------------------------------

*** tstart() called on ds3
*** at Tue Apr 28 15:36:19 2020

   => Loading Basis Set <=

    Name: CC-PVDZ
    Role: ORBITAL
    Keyword: BASIS
    atoms 1-10, 23-24  entry C          line   138 file /theoryfs2/ds/metcalf/miniconda2/envs/tf2gpu/share/psi4/basis/cc-pvdz.gbs
    atoms 11           entry N          line   168 file /theoryfs2/ds/metcalf/miniconda2/envs/tf2gpu/share/psi4/basis/cc-pvdz.gbs
    atoms 12-22, 25-30 entry H          line    22 file /theoryfs2/ds/metcalf/miniconda2/envs/tf2gpu/share/psi4/basis/cc-pvdz.gbs

         ---------------------------------------------------------
                                   SCF
               by Justin Turney, Rob Parrish, Andy Simmonett
                          and Daniel G. A. Smith
                              RHF Reference
                        1 Threads,    500 MiB Core
         ---------------------------------------------------------

  ==> Geometry <==

    Molecular point group: c1
    Full point group: C1

    Geometry (in Angstrom), charge = 0, multiplicity = 1:

       Center              X                  Y                   Z               Mass
    ------------   -----------------  -----------------  -----------------  -----------------
         C           -0.693301367417    -1.681789331269    -0.021390692362    12.000000000000
         C           -0.115301367417    -2.659789331269     1.046609307638    12.000000000000
         C            0.273698632583    -0.610789331269    -0.463390692362    12.000000000000
         C            0.816698632583    -0.498789331269    -1.688390692362    12.000000000000
         C            0.765698632583     0.504210668731     0.307609307638    12.000000000000
         C            1.622698632583     1.276210668731    -0.535390692362    12.000000000000
         C            0.562698632583     0.933210668731     1.639609307638    12.000000000000
         C            2.264698632583     2.439210668731    -0.091390692362    12.000000000000
         C            1.203698632583     2.097210668731     2.090609307638    12.000000000000
         C            2.044698632583     2.845210668731     1.231609307638    12.000000000000
         N            1.637698632583     0.632210668731    -1.760390692362    14.003074004430
         H           -1.027301367417    -2.211789331269    -0.918390692362     1.007825032230
         H           -1.552301367417    -1.169789331269     0.416609307638     1.007825032230
         H            0.100698632583    -2.093789331269     1.957609307638     1.007825032230
         H            0.561698632583    -1.250789331269    -2.426390692362     1.007825032230
         H            2.162698632583     0.943210668731    -2.572390692362     1.007825032230
         H           -0.080301367417     0.391210668731     2.326609307638     1.007825032230
         H            2.904698632583     2.985210668731    -0.772390692362     1.007825032230
         H            1.036698632583     2.410210668731     3.116609307638     1.007825032230
         H            2.522698632583     3.744210668731     1.600609307638     1.007825032230
         H            0.812128632583    -3.105169331269     0.657369307638     1.007825032230
         H           -0.885571367417    -3.389059331269     1.337889307638     1.007825032230
         C           -4.182301367417    -2.437789331269    -1.358390692362    12.000000000000
         C           -4.770301367417    -1.680789331269    -0.128390692362    12.000000000000
         H           -4.988301367417    -2.748789331269    -2.022390692362     1.007825032230
         H           -3.502301367417    -1.784789331269    -1.908390692362     1.007825032230
         H           -3.634301367417    -3.321789331269    -1.024390692362     1.007825032230
         H           -5.307301367417    -0.793789331269    -0.470390692362     1.007825032230
         H           -3.951301367417    -1.365789331269     0.522609307638     1.007825032230
         H           -5.466950367417    -2.280249331269     0.476029307638     1.007825032230

  Running in c1 symmetry.

  Rotational constants: A =      0.03962  B =      0.01166  C =      0.01083 [cm^-1]
  Rotational constants: A =   1187.86004  B =    349.56208  C =    324.76875 [MHz]
  Nuclear repulsion =  734.949113500986755

  Charge       = 0
  Multiplicity = 1
  Electrons    = 96
  Nalpha       = 48
  Nbeta        = 48

  ==> Algorithm <==

  SCF Algorithm Type is PK.
  DIIS enabled.
  MOM disabled.
  Fractional occupation disabled.
  Guess Type is SAD.
  Energy threshold   = 1.00e-06
  Density threshold  = 1.00e-10
  Integral threshold = 0.00e+00

  ==> Primary Basis <==

  Basis Set: CC-PVDZ
    Blend: CC-PVDZ
    Number of shells: 129
    Number of basis function: 267
    Number of Cartesian functions: 280
    Spherical Harmonics?: true
    Max angular momentum: 2

  ==> Pre-Iterations <==

   -------------------------------------------------------
    Irrep   Nso     Nmo     Nalpha   Nbeta   Ndocc  Nsocc
   -------------------------------------------------------
     A        267     267       0       0       0       0
   -------------------------------------------------------
    Total     267     267      48      48      48       0
   -------------------------------------------------------

  ==> Integral Setup <==

  Using integral reordering PK algorithm.
  Sizing the integral batches needed.
  Building batch lookup table.
   Calculation information:
      Number of atoms:                  30
      Number of AO shells:             129
      Number of primitives:            371
      Number of atomic orbitals:       280
      Number of basis functions:       267

      Integral cutoff                 1.00e-12
      Number of threads:                 1

	Batch   1 pq = [       0,    9405] index = [             0,44231715] size =     44231715
	Batch   2 pq = [    9405,   13301] index = [      44231715,88464951] size =     44233236
	Batch   3 pq = [   13301,   16290] index = [      88464951,132690195] size =     44225244
	Batch   4 pq = [   16290,   18810] index = [     132690195,176917455] size =     44227260
	Batch   5 pq = [   18810,   21030] index = [     176917455,221140965] size =     44223510
	Batch   6 pq = [   21030,   23037] index = [     221140965,265363203] size =     44222238
	Batch   7 pq = [   23037,   24883] index = [     265363203,309594286] size =     44231083
	Batch   8 pq = [   24883,   26601] index = [     309594286,353819901] size =     44225615
	Batch   9 pq = [   26601,   28214] index = [     353819901,398029005] size =     44209104
	Batch  10 pq = [   28214,   29740] index = [     398029005,442248670] size =     44219665
	Batch  11 pq = [   29740,   31191] index = [     442248670,486454836] size =     44206166
	Batch  12 pq = [   31191,   32578] index = [     486454836,530679331] size =     44224495
	Batch  13 pq = [   32578,   33908] index = [     530679331,574893186] size =     44213855
	Batch  14 pq = [   33908,   35188] index = [     574893186,619115266] size =     44222080
	Batch  15 pq = [   35188,   35778] index = [     619115266,640050531] size =     20935265
  Task number: 58
  Buffer size: 11059200
  Buffer per thread: 2
  We computed 31610804 shell quartets total.
  Whereas there are 35158305 unique shell quartets.

  ==> DiskJK: Disk-Based J/K Matrices <==

    J tasked:                  Yes
    K tasked:                  Yes
    wK tasked:                  No
    Memory [MiB]:              375
    Schwarz Cutoff:          1E-12

    OpenMP threads:              1

  Minimum eigenvalue in the overlap matrix is 2.5359169605E-04.
  Using Symmetric Orthogonalization.

  SCF Guess: Superposition of Atomic Densities via on-the-fly atomic UHF.

  ==> Iterations <==

                        Total Energy        Delta E     RMS |[F,P]|

   @RHF iter SAD:  -517.72229332031031   -5.17722e+02   0.00000e+00
   @RHF iter   1:  -518.49926546781342   -7.76972e-01   2.43919e-03 DIIS
   @RHF iter   2:  -518.74764668366879   -2.48381e-01   1.08701e-03 DIIS
   @RHF iter   3:  -518.79226103606675   -4.46144e-02   2.93797e-04 DIIS
   @RHF iter   4:  -518.79653865553473   -4.27762e-03   1.36483e-04 DIIS
   @RHF iter   5:  -518.79728989955947   -7.51244e-04   1.86803e-05 DIIS
   @RHF iter   6:  -518.79732195113843   -3.20516e-05   8.49021e-06 DIIS
   @RHF iter   7:  -518.79732823041047   -6.27927e-06   3.70901e-06 DIIS
   @RHF iter   8:  -518.79733014679243   -1.91638e-06   1.42381e-06 DIIS
   @RHF iter   9:  -518.79733053134464   -3.84552e-07   6.49564e-07 DIIS
   @RHF iter  10:  -518.79733060882552   -7.74809e-08   3.02626e-07 DIIS
   @RHF iter  11:  -518.79733062750222   -1.86767e-08   1.10324e-07 DIIS
   @RHF iter  12:  -518.79733063004994   -2.54772e-09   4.15556e-08 DIIS
   @RHF iter  13:  -518.79733063026003   -2.10093e-10   1.34592e-08 DIIS
   @RHF iter  14:  -518.79733063027720   -1.71667e-11   5.16881e-09 DIIS
   @RHF iter  15:  -518.79733063028596   -8.75389e-12   2.40930e-09 DIIS
   @RHF iter  16:  -518.79733063027800    7.95808e-12   1.02692e-09 DIIS
   @RHF iter  17:  -518.79733063027652    1.47793e-12   3.97603e-10 DIIS
   @RHF iter  18:  -518.79733063028232   -5.79803e-12   1.57881e-10 DIIS
   @RHF iter  19:  -518.79733063028948   -7.16227e-12   6.13321e-11 DIIS
  Energy and wave function converged.

  ==> Post-Iterations <==

    Orbital Energies [Eh]
    ---------------------

    Doubly Occupied:

       1A    -15.602086     2A    -11.268920     3A    -11.263410
       4A    -11.235874     5A    -11.234849     6A    -11.234491
       7A    -11.231185     8A    -11.225085     9A    -11.224080
      10A    -11.222362    11A    -11.220925    12A    -11.220298
      13A    -11.214577    14A     -1.283921    15A     -1.120106
      16A     -1.081335    17A     -1.010755    18A     -1.007922
      19A     -0.987522    20A     -0.968525    21A     -0.855992
      22A     -0.841023    23A     -0.832912    24A     -0.803756
      25A     -0.743609    26A     -0.713694    27A     -0.665537
      28A     -0.637078    29A     -0.612215    30A     -0.600594
      31A     -0.592931    32A     -0.590752    33A     -0.588719
      34A     -0.576241    35A     -0.570595    36A     -0.539136
      37A     -0.510703    38A     -0.506578    39A     -0.500866
      40A     -0.497644    41A     -0.491168    42A     -0.486403
      43A     -0.482303    44A     -0.461522    45A     -0.456229
      46A     -0.371006    47A     -0.293417    48A     -0.278169

    Virtual:

      49A      0.123253    50A      0.164130    51A      0.167042
      52A      0.183122    53A      0.195768    54A      0.203064
      55A      0.209002    56A      0.220902    57A      0.235366
      58A      0.241606    59A      0.244895    60A      0.251223
      61A      0.264002    62A      0.265395    63A      0.275845
      64A      0.282579    65A      0.299269    66A      0.307796
      67A      0.326355    68A      0.354502    69A      0.371383
      70A      0.380864    71A      0.387232    72A      0.399741
      73A      0.419100    74A      0.440332    75A      0.443124
      76A      0.464917    77A      0.482414    78A      0.506197
      79A      0.509776    80A      0.576804    81A      0.588780
      82A      0.603575    83A      0.612771    84A      0.614500
      85A      0.623594    86A      0.634659    87A      0.657281
      88A      0.659626    89A      0.667056    90A      0.693872
      91A      0.699070    92A      0.705129    93A      0.720657
      94A      0.724822    95A      0.730349    96A      0.739342
      97A      0.748828    98A      0.755713    99A      0.765050
     100A      0.779557   101A      0.782189   102A      0.791037
     103A      0.811943   104A      0.825324   105A      0.842570
     106A      0.844894   107A      0.853899   108A      0.876201
     109A      0.878908   110A      0.885010   111A      0.892856
     112A      0.894456   113A      0.899362   114A      0.908382
     115A      0.910949   116A      0.911780   117A      0.930227
     118A      0.936234   119A      0.941336   120A      0.955009
     121A      0.958222   122A      0.966630   123A      0.975908
     124A      0.977211   125A      0.980252   126A      0.986588
     127A      1.022812   128A      1.052055   129A      1.073768
     130A      1.078690   131A      1.089402   132A      1.120046
     133A      1.123804   134A      1.126860   135A      1.142091
     136A      1.152254   137A      1.157610   138A      1.165560
     139A      1.196645   140A      1.213623   141A      1.231853
     142A      1.232826   143A      1.249584   144A      1.256485
     145A      1.263531   146A      1.286394   147A      1.288119
     148A      1.319050   149A      1.334811   150A      1.353178
     151A      1.355371   152A      1.380101   153A      1.427815
     154A      1.438120   155A      1.449416   156A      1.455441
     157A      1.476704   158A      1.508151   159A      1.528039
     160A      1.566460   161A      1.576978   162A      1.591171
     163A      1.629664   164A      1.645631   165A      1.659772
     166A      1.682925   167A      1.695594   168A      1.697476
     169A      1.719753   170A      1.732129   171A      1.747476
     172A      1.755812   173A      1.776487   174A      1.789282
     175A      1.811844   176A      1.839208   177A      1.856423
     178A      1.864675   179A      1.875149   180A      1.876959
     181A      1.884154   182A      1.890701   183A      1.898091
     184A      1.904859   185A      1.913322   186A      1.918576
     187A      1.927066   188A      1.931205   189A      1.941829
     190A      1.942775   191A      1.946086   192A      1.950005
     193A      1.956740   194A      1.961072   195A      1.983291
     196A      1.990904   197A      1.993940   198A      2.004970
     199A      2.012005   200A      2.029503   201A      2.041486
     202A      2.067896   203A      2.069347   204A      2.080001
     205A      2.086242   206A      2.095864   207A      2.100022
     208A      2.110919   209A      2.125116   210A      2.135970
     211A      2.146382   212A      2.149105   213A      2.159137
     214A      2.179008   215A      2.226509   216A      2.246710
     217A      2.262220   218A      2.285827   219A      2.294675
     220A      2.304138   221A      2.319279   222A      2.322948
     223A      2.331300   224A      2.336965   225A      2.371658
     226A      2.387044   227A      2.439338   228A      2.444527
     229A      2.455971   230A      2.478227   231A      2.514141
     232A      2.528633   233A      2.543404   234A      2.549378
     235A      2.569447   236A      2.574960   237A      2.595998
     238A      2.635273   239A      2.645213   240A      2.672869
     241A      2.720375   242A      2.753251   243A      2.767138
     244A      2.767291   245A      2.773323   246A      2.775744
     247A      2.790567   248A      2.795132   249A      2.852572
     250A      2.854033   251A      2.860352   252A      2.874297
     253A      2.900391   254A      2.917516   255A      2.941333
     256A      2.949606   257A      2.961790   258A      2.991050
     259A      3.000050   260A      3.049631   261A      3.075836
     262A      3.096812   263A      3.189354   264A      3.279216
     265A      3.352016   266A      3.721416   267A      3.906356

    Final Occupation by Irrep:
              A
    DOCC [    48 ]

  @RHF Final Energy:  -518.79733063028948

   => Energetics <=

    Nuclear Repulsion Energy =            734.9491135009867548
    One-Electron Energy =               -2159.5748469099689828
    Two-Electron Energy =                 905.8284027786928618
    Total Energy =                       -518.7973306302894798

Computation Completed

Properties will be evaluated at   0.000000,   0.000000,   0.000000 [a0]

Properties computed using the SCF density matrix

  Nuclear Dipole Moment: [e a0]
     X:   -19.0303      Y:   -14.1028      Z:     0.2834

  Electronic Dipole Moment: [e a0]
     X:    19.1787      Y:    13.9808      Z:    -0.9872

  Dipole Moment: [e a0]
     X:     0.1483      Y:    -0.1220      Z:    -0.7038     Total:     0.7295

  Dipole Moment: [D]
     X:     0.3771      Y:    -0.3102      Z:    -1.7888     Total:     1.8543

*** tstop() called on ds3 at Tue Apr 28 15:45:47 2020
Module time:
	user time   =     249.23 seconds =       4.15 minutes
	system time =      98.44 seconds =       1.64 minutes
	total time  =        568 seconds =       9.47 minutes
Total time:
	user time   =     249.23 seconds =       4.15 minutes
	system time =      98.44 seconds =       1.64 minutes
	total time  =        568 seconds =       9.47 minutes
                                     G D M A

                                 by Anthony Stone

                           version 2.2.06, 22 June 2011

               Distributed Multipoles from Gaussian wavefunctions

Starting at 15:45:47 on 28 Apr 2020

Using SCF density matrix from file ./SSI/SSI-045TRP-049ILE-1-dimer.test.4719.fchk

                         Distributed Multipole Analysis

Standard DMA

Positions and radii in angstrom
Multipole moments in atomic units, ea_0^k for rank k

C          x = -0.693301  y = -1.681789  z = -0.021391 angstrom
           Maximum rank =  0   Radius =  0.650 angstrom
                   Q00  =  -0.032376

C          x = -0.115301  y = -2.659789  z =  1.046609 angstrom
           Maximum rank =  0   Radius =  0.650 angstrom
                   Q00  =  -0.227315

C          x =  0.273699  y = -0.610789  z = -0.463391 angstrom
           Maximum rank =  0   Radius =  0.650 angstrom
                   Q00  =  -0.122529

C          x =  0.816699  y = -0.498789  z = -1.688391 angstrom
           Maximum rank =  0   Radius =  0.650 angstrom
                   Q00  =   0.078756

C          x =  0.765699  y =  0.504211  z =  0.307609 angstrom
           Maximum rank =  0   Radius =  0.650 angstrom
                   Q00  =  -0.060002

C          x =  1.622699  y =  1.276211  z = -0.535391 angstrom
           Maximum rank =  0   Radius =  0.650 angstrom
                   Q00  =   0.291461

C          x =  0.562699  y =  0.933211  z =  1.639609 angstrom
           Maximum rank =  0   Radius =  0.650 angstrom
                   Q00  =  -0.101258

C          x =  2.264699  y =  2.439211  z = -0.091391 angstrom
           Maximum rank =  0   Radius =  0.650 angstrom
                   Q00  =  -0.121814

C          x =  1.203699  y =  2.097211  z =  2.090609 angstrom
           Maximum rank =  0   Radius =  0.650 angstrom
                   Q00  =  -0.085227

C          x =  2.044699  y =  2.845211  z =  1.231609 angstrom
           Maximum rank =  0   Radius =  0.650 angstrom
                   Q00  =  -0.072591

N          x =  1.637699  y =  0.632211  z = -1.760391 angstrom
           Maximum rank =  0   Radius =  0.650 angstrom
                   Q00  =  -0.520814

H          x = -1.027301  y = -2.211789  z = -0.918391 angstrom
           Maximum rank =  0   Radius =  0.325 angstrom
                   Q00  =   0.072064

H          x = -1.552301  y = -1.169789  z =  0.416609 angstrom
           Maximum rank =  0   Radius =  0.325 angstrom
                   Q00  =   0.067697

H          x =  0.100699  y = -2.093789  z =  1.957609 angstrom
           Maximum rank =  0   Radius =  0.325 angstrom
                   Q00  =   0.085556

H          x =  0.561699  y = -1.250789  z = -2.426391 angstrom
           Maximum rank =  0   Radius =  0.325 angstrom
                   Q00  =   0.106168

H          x =  2.162699  y =  0.943211  z = -2.572391 angstrom
           Maximum rank =  0   Radius =  0.325 angstrom
                   Q00  =   0.219267

H          x = -0.080301  y =  0.391211  z =  2.326609 angstrom
           Maximum rank =  0   Radius =  0.325 angstrom
                   Q00  =   0.069179

H          x =  2.904699  y =  2.985211  z = -0.772391 angstrom
           Maximum rank =  0   Radius =  0.325 angstrom
                   Q00  =   0.075610

H          x =  1.036699  y =  2.410211  z =  3.116609 angstrom
           Maximum rank =  0   Radius =  0.325 angstrom
                   Q00  =   0.063643

H          x =  2.522699  y =  3.744211  z =  1.600609 angstrom
           Maximum rank =  0   Radius =  0.325 angstrom
                   Q00  =   0.069351

H          x =  0.812129  y = -3.105169  z =  0.657369 angstrom
           Maximum rank =  0   Radius =  0.325 angstrom
                   Q00  =   0.073950

H          x = -0.885571  y = -3.389059  z =  1.337889 angstrom
           Maximum rank =  0   Radius =  0.325 angstrom
                   Q00  =   0.072901

C          x = -4.182301  y = -2.437789  z = -1.358391 angstrom
           Maximum rank =  0   Radius =  0.650 angstrom
                   Q00  =  -0.244096

C          x = -4.770301  y = -1.680789  z = -0.128391 angstrom
           Maximum rank =  0   Radius =  0.650 angstrom
                   Q00  =  -0.251937

H          x = -4.988301  y = -2.748789  z = -2.022391 angstrom
           Maximum rank =  0   Radius =  0.325 angstrom
                   Q00  =   0.082299

H          x = -3.502301  y = -1.784789  z = -1.908391 angstrom
           Maximum rank =  0   Radius =  0.325 angstrom
                   Q00  =   0.084708

H          x = -3.634301  y = -3.321789  z = -1.024391 angstrom
           Maximum rank =  0   Radius =  0.325 angstrom
                   Q00  =   0.080601

H          x = -5.307301  y = -0.793789  z = -0.470391 angstrom
           Maximum rank =  0   Radius =  0.325 angstrom
                   Q00  =   0.082177

H          x = -3.951301  y = -1.365789  z =  0.522609 angstrom
           Maximum rank =  0   Radius =  0.325 angstrom
                   Q00  =   0.082077

H          x = -5.466950  y = -2.280249  z =  0.476029 angstrom
           Maximum rank =  0   Radius =  0.325 angstrom
                   Q00  =   0.082494

Total multipoles referred to origin at
           x =   0.000000,  y =    0.000000,  z =    0.000000 angstrom
                   Q00  =  -0.000000

Finished at 15:45:47 on 28 Apr 2020

  DMA results are available in the Python driver through the
	  variable('DMA DISTRIBUTED MULTIPOLES')
  and
	  variable('DMA TOTAL MULTIPOLES')
  commands.

    Psi4 stopped on: Tuesday, 28 April 2020 03:45PM
    Psi4 wall time for execution: 0:09:28.53

*** Psi4 exiting successfully. Buy a developer a beer!
