                               Psi4 1.3.2 release

  ==> Input File <==

--------------------------------------------------------------------------
import numpy as np
set {scf_type pk
basis cc-pvdz
d_convergence 10
gdma_switch   0
gdma_limit    0
gdma_origin   [ 0.0,  0.0,  0.0 ]
}
molecule test {
    units Angstrom
    0 1
    --
    0 1
    C                1.823787888361937    -0.647422032913686     1.889053864183315
    C                2.912787888361936    -1.657422032913686     2.248053864183316
    C                2.306787888361936     0.780577967086314     1.799053864183316
    C                2.963787888361936     1.239577967086314     0.651053864183315
    C                2.103787888361937     1.666577967086314     2.862053864183316
    C                3.415787888361936     2.559577967086314     0.566053864183315
    C                2.549787888361936     2.990577967086315     2.784053864183316
    C                3.205787888361936     3.435577967086314     1.635053864183315
    O                3.650787888361937     4.722577967086313     1.559053864183315
    H                1.390787888361937    -0.938422032913686     0.938053864183315
    H                1.027787888361936    -0.710422032913686     2.633053864183315
    H                2.435787888361936    -2.629422032913686     2.225053864183315
    H                3.116787888361936     0.572577967086314    -0.186946135816685
    H                1.599787888361937     1.324577967086314     3.757053864183316
    H                3.911787888361937     2.895577967086314    -0.332946135816685
    H                2.388787888361936     3.676577967086314     3.604053864183316
    H                4.254787888361936     4.830577967086313     0.827053864183315
    H                3.316717888361936    -1.453572032913686     3.250693864183316
    H                3.698917888361936    -1.688492032913686     1.479263864183316
    C               -5.524212111638064    -1.485422032913686    -1.091946135816684
    C               -2.920212111638063    -1.371422032913686    -1.384946135816685
    C               -4.220212111638063    -1.892422032913686    -1.713946135816685
    C               -1.974212111638063    -2.023422032913686    -2.224946135816685
    C               -4.023212111638063    -2.809422032913686    -2.703946135816684
    C               -1.086212111638063    -0.140422032913686    -0.405946135816685
    C               -0.176212111638063    -0.801422032913686    -1.251946135816685
    C               -2.456212111638064    -0.417422032913686    -0.463946135816685
    C               -0.608212111638064    -1.748422032913686    -2.166946135816684
    N               -2.683212111638063    -2.890422032913686    -3.015946135816685
    H               -0.718212111638064     0.599577967086314     0.292053864183315
    H                0.875787888361936    -0.555422032913686    -1.206946135816684
    H               -3.153212111638064     0.093577967086314     0.184053864183315
    H                0.087787888361937    -2.254422032913686    -2.816946135816685
    H               -5.557212111638063    -0.396422032913686    -1.061946135816685
    H               -5.505212111638063    -1.820422032913686    -0.063946135816685
    H               -4.803212111638064    -3.379422032913686    -3.191946135816685
    H               -2.289212111638064    -3.452422032913686    -3.766946135816684
    H               -6.418142111638065    -1.854652032913686    -1.615926135816685

}
e, wfn = energy('scf', return_wfn=True)
gdma(wfn)
dmavals = variable('DMA DISTRIBUTED MULTIPOLES')
charges = np.array(dmavals)
print(charges)
np.save('SSI-079TYR-153TRP-1-dimer.npy', np.array(charges))--------------------------------------------------------------------------

*** tstart() called on ds3
*** at Sun Apr 26 21:32:08 2020

   => Loading Basis Set <=

    Name: CC-PVDZ
    Role: ORBITAL
    Keyword: BASIS
    atoms 1-8, 20-28   entry C          line   138 file /theoryfs2/ds/metcalf/miniconda2/envs/tf2gpu/share/psi4/basis/cc-pvdz.gbs
    atoms 9            entry O          line   198 file /theoryfs2/ds/metcalf/miniconda2/envs/tf2gpu/share/psi4/basis/cc-pvdz.gbs
    atoms 10-19, 30-38 entry H          line    22 file /theoryfs2/ds/metcalf/miniconda2/envs/tf2gpu/share/psi4/basis/cc-pvdz.gbs
    atoms 29           entry N          line   168 file /theoryfs2/ds/metcalf/miniconda2/envs/tf2gpu/share/psi4/basis/cc-pvdz.gbs

         ---------------------------------------------------------
                                   SCF
               by Justin Turney, Rob Parrish, Andy Simmonett
                          and Daniel G. A. Smith
                              RHF Reference
                        1 Threads,    500 MiB Core
         ---------------------------------------------------------

  ==> Geometry <==

    Molecular point group: c1
    Full point group: C1

    Geometry (in Angstrom), charge = 0, multiplicity = 1:

       Center              X                  Y                   Z               Mass
    ------------   -----------------  -----------------  -----------------  -----------------
         C            1.823787888362    -0.647422032914     1.889053864183    12.000000000000
         C            2.912787888362    -1.657422032914     2.248053864183    12.000000000000
         C            2.306787888362     0.780577967086     1.799053864183    12.000000000000
         C            2.963787888362     1.239577967086     0.651053864183    12.000000000000
         C            2.103787888362     1.666577967086     2.862053864183    12.000000000000
         C            3.415787888362     2.559577967086     0.566053864183    12.000000000000
         C            2.549787888362     2.990577967086     2.784053864183    12.000000000000
         C            3.205787888362     3.435577967086     1.635053864183    12.000000000000
         O            3.650787888362     4.722577967086     1.559053864183    15.994914619570
         H            1.390787888362    -0.938422032914     0.938053864183     1.007825032230
         H            1.027787888362    -0.710422032914     2.633053864183     1.007825032230
         H            2.435787888362    -2.629422032914     2.225053864183     1.007825032230
         H            3.116787888362     0.572577967086    -0.186946135817     1.007825032230
         H            1.599787888362     1.324577967086     3.757053864183     1.007825032230
         H            3.911787888362     2.895577967086    -0.332946135817     1.007825032230
         H            2.388787888362     3.676577967086     3.604053864183     1.007825032230
         H            4.254787888362     4.830577967086     0.827053864183     1.007825032230
         H            3.316717888362    -1.453572032914     3.250693864183     1.007825032230
         H            3.698917888362    -1.688492032914     1.479263864183     1.007825032230
         C           -5.524212111638    -1.485422032914    -1.091946135817    12.000000000000
         C           -2.920212111638    -1.371422032914    -1.384946135817    12.000000000000
         C           -4.220212111638    -1.892422032914    -1.713946135817    12.000000000000
         C           -1.974212111638    -2.023422032914    -2.224946135817    12.000000000000
         C           -4.023212111638    -2.809422032914    -2.703946135817    12.000000000000
         C           -1.086212111638    -0.140422032914    -0.405946135817    12.000000000000
         C           -0.176212111638    -0.801422032914    -1.251946135817    12.000000000000
         C           -2.456212111638    -0.417422032914    -0.463946135817    12.000000000000
         C           -0.608212111638    -1.748422032914    -2.166946135817    12.000000000000
         N           -2.683212111638    -2.890422032914    -3.015946135817    14.003074004430
         H           -0.718212111638     0.599577967086     0.292053864183     1.007825032230
         H            0.875787888362    -0.555422032914    -1.206946135817     1.007825032230
         H           -3.153212111638     0.093577967086     0.184053864183     1.007825032230
         H            0.087787888362    -2.254422032914    -2.816946135817     1.007825032230
         H           -5.557212111638    -0.396422032914    -1.061946135817     1.007825032230
         H           -5.505212111638    -1.820422032914    -0.063946135817     1.007825032230
         H           -4.803212111638    -3.379422032914    -3.191946135817     1.007825032230
         H           -2.289212111638    -3.452422032914    -3.766946135817     1.007825032230
         H           -6.418142111638    -1.854652032914    -1.615926135817     1.007825032230

  Running in c1 symmetry.

  Rotational constants: A =      0.02532  B =      0.00414  C =      0.00400 [cm^-1]
  Rotational constants: A =    759.03153  B =    124.19339  C =    120.00630 [MHz]
  Nuclear repulsion = 1252.399770311338216

  Charge       = 0
  Multiplicity = 1
  Electrons    = 136
  Nalpha       = 68
  Nbeta        = 68

  ==> Algorithm <==

  SCF Algorithm Type is PK.
  DIIS enabled.
  MOM disabled.
  Fractional occupation disabled.
  Guess Type is SAD.
  Energy threshold   = 1.00e-06
  Density threshold  = 1.00e-10
  Integral threshold = 0.00e+00

  ==> Primary Basis <==

  Basis Set: CC-PVDZ
    Blend: CC-PVDZ
    Number of shells: 171
    Number of basis function: 361
    Number of Cartesian functions: 380
    Spherical Harmonics?: true
    Max angular momentum: 2

  ==> Pre-Iterations <==

   -------------------------------------------------------
    Irrep   Nso     Nmo     Nalpha   Nbeta   Ndocc  Nsocc
   -------------------------------------------------------
     A        361     361       0       0       0       0
   -------------------------------------------------------
    Total     361     361      68      68      68       0
   -------------------------------------------------------

  ==> Integral Setup <==

  Using Yoshimine PK algorithm.
  Sizing the integral batches needed.
  Building batch lookup table.
   Calculation information:
      Number of atoms:                  38
      Number of AO shells:             171
      Number of primitives:            513
      Number of atomic orbitals:       380
      Number of basis functions:       361

      Integral cutoff                 1.00e-12
      Number of threads:                 1

	Batch   1 pq = [       0,    9405] index = [             0,44231715] size =     44231715
	Batch   2 pq = [    9405,   13301] index = [      44231715,88464951] size =     44233236
	Batch   3 pq = [   13301,   16290] index = [      88464951,132690195] size =     44225244
	Batch   4 pq = [   16290,   18810] index = [     132690195,176917455] size =     44227260
	Batch   5 pq = [   18810,   21030] index = [     176917455,221140965] size =     44223510
	Batch   6 pq = [   21030,   23037] index = [     221140965,265363203] size =     44222238
	Batch   7 pq = [   23037,   24883] index = [     265363203,309594286] size =     44231083
	Batch   8 pq = [   24883,   26601] index = [     309594286,353819901] size =     44225615
	Batch   9 pq = [   26601,   28214] index = [     353819901,398029005] size =     44209104
	Batch  10 pq = [   28214,   29740] index = [     398029005,442248670] size =     44219665
	Batch  11 pq = [   29740,   31191] index = [     442248670,486454836] size =     44206166
	Batch  12 pq = [   31191,   32578] index = [     486454836,530679331] size =     44224495
	Batch  13 pq = [   32578,   33908] index = [     530679331,574893186] size =     44213855
	Batch  14 pq = [   33908,   35188] index = [     574893186,619115266] size =     44222080
	Batch  15 pq = [   35188,   36423] index = [     619115266,663335676] size =     44220410
	Batch  16 pq = [   36423,   37617] index = [     663335676,707538153] size =     44202477
	Batch  17 pq = [   37617,   38775] index = [     707538153,751769700] size =     44231547
	Batch  18 pq = [   38775,   39899] index = [     751769700,795985050] size =     44215350
	Batch  19 pq = [   39899,   40992] index = [     795985050,840192528] size =     44207478
	Batch  20 pq = [   40992,   42057] index = [     840192528,884416653] size =     44224125
	Batch  21 pq = [   42057,   43095] index = [     884416653,928611060] size =     44194407
	Batch  22 pq = [   43095,   44109] index = [     928611060,972823995] size =     44212935
	Batch  23 pq = [   44109,   45100] index = [     972823995,1017027550] size =     44203555
	Batch  24 pq = [   45100,   46070] index = [    1017027550,1061245485] size =     44217935
	Batch  25 pq = [   46070,   47020] index = [    1061245485,1105463710] size =     44218225
	Batch  26 pq = [   47020,   47951] index = [    1105463710,1149673176] size =     44209466
	Batch  27 pq = [   47951,   48864] index = [    1149673176,1193869680] size =     44196504
	Batch  28 pq = [   48864,   49761] index = [    1193869680,1238103441] size =     44233761
	Batch  29 pq = [   49761,   50642] index = [    1238103441,1282331403] size =     44227962
	Batch  30 pq = [   50642,   51508] index = [    1282331403,1326562786] size =     44231383
	Batch  31 pq = [   51508,   52359] index = [    1326562786,1370758620] size =     44195834
	Batch  32 pq = [   52359,   53197] index = [    1370758620,1414987003] size =     44228383
	Batch  33 pq = [   53197,   54022] index = [    1414987003,1459215253] size =     44228250
	Batch  34 pq = [   54022,   54834] index = [    1459215253,1503411195] size =     44195942
	Batch  35 pq = [   54834,   55634] index = [    1503411195,1547598795] size =     44187600
	Batch  36 pq = [   55634,   56423] index = [    1547598795,1591805676] size =     44206881
	Batch  37 pq = [   56423,   57201] index = [    1591805676,1636005801] size =     44200125
	Batch  38 pq = [   57201,   57969] index = [    1636005801,1680231465] size =     44225664
	Batch  39 pq = [   57969,   58727] index = [    1680231465,1724459628] size =     44228163
	Batch  40 pq = [   58727,   59475] index = [    1724459628,1768667550] size =     44207922
	Batch  41 pq = [   59475,   60214] index = [    1768667550,1812893005] size =     44225455
	Batch  42 pq = [   60214,   60944] index = [    1812893005,1857116040] size =     44223035
	Batch  43 pq = [   60944,   61665] index = [    1857116040,1901316945] size =     44200905
	Batch  44 pq = [   61665,   62378] index = [    1901316945,1945538631] size =     44221686
	Batch  45 pq = [   62378,   63083] index = [    1945538631,1989763986] size =     44225355
	Batch  46 pq = [   63083,   63780] index = [    1989763986,2033976090] size =     44212104
	Batch  47 pq = [   63780,   64469] index = [    2033976090,2078158215] size =     44182125
	Batch  48 pq = [   64469,   65151] index = [    2078158215,2122358976] size =     44200761
	Batch  49 pq = [   65151,   65341] index = [    2122358976,2134755811] size =     12396835
  ==> DiskJK: Disk-Based J/K Matrices <==

    J tasked:                  Yes
    K tasked:                  Yes
    wK tasked:                  No
    Memory [MiB]:              375
    Schwarz Cutoff:          1E-12

    OpenMP threads:              1

  Minimum eigenvalue in the overlap matrix is 2.4413688114E-04.
  Using Symmetric Orthogonalization.

  SCF Guess: Superposition of Atomic Densities via on-the-fly atomic UHF.

  ==> Iterations <==

                        Total Energy        Delta E     RMS |[F,P]|

   @RHF iter SAD:  -783.27121150422090   -7.83271e+02   0.00000e+00
   @RHF iter   1:  -783.79432230797363   -5.23111e-01   2.12197e-03 DIIS
   @RHF iter   2:  -784.13070827074614   -3.36386e-01   9.23738e-04 DIIS
   @RHF iter   3:  -784.18734309396041   -5.66348e-02   2.48453e-04 DIIS
   @RHF iter   4:  -784.19281455929558   -5.47147e-03   1.11681e-04 DIIS
   @RHF iter   5:  -784.19374523670490   -9.30677e-04   1.58899e-05 DIIS
   @RHF iter   6:  -784.19378477790224   -3.95412e-05   7.16602e-06 DIIS
   @RHF iter   7:  -784.19379207251598   -7.29461e-06   2.84268e-06 DIIS
   @RHF iter   8:  -784.19379394694874   -1.87443e-06   1.15831e-06 DIIS
   @RHF iter   9:  -784.19379434019390   -3.93245e-07   5.21924e-07 DIIS
   @RHF iter  10:  -784.19379442517595   -8.49820e-08   2.60645e-07 DIIS
   @RHF iter  11:  -784.19379444983224   -2.46563e-08   1.04915e-07 DIIS
   @RHF iter  12:  -784.19379445367190   -3.83966e-09   4.06950e-08 DIIS
   @RHF iter  13:  -784.19379445411801   -4.46107e-10   1.44980e-08 DIIS
   @RHF iter  14:  -784.19379445416075   -4.27463e-11   5.01206e-09 DIIS
   @RHF iter  15:  -784.19379445416064    1.13687e-13   1.96222e-09 DIIS
   @RHF iter  16:  -784.19379445415245    8.18545e-12   9.56394e-10 DIIS
   @RHF iter  17:  -784.19379445416496   -1.25056e-11   4.78350e-10 DIIS
   @RHF iter  18:  -784.19379445416325    1.70530e-12   1.86530e-10 DIIS
   @RHF iter  19:  -784.19379445417405   -1.08002e-11   8.60765e-11 DIIS
  Energy and wave function converged.

  ==> Post-Iterations <==

    Orbital Energies [Eh]
    ---------------------

    Doubly Occupied:

       1A    -20.580646     2A    -15.600769     3A    -11.298398
       4A    -11.264895     5A    -11.263665     6A    -11.238890
       7A    -11.237381     8A    -11.233393     9A    -11.231923
      10A    -11.231679    11A    -11.230251    12A    -11.229806
      13A    -11.229508    14A    -11.226639    15A    -11.221776
      16A    -11.221662    17A    -11.220871    18A    -11.219105
      19A    -11.217316    20A     -1.399415    21A     -1.292617
      22A     -1.146810    23A     -1.125556    24A     -1.072579
      25A     -1.053783    26A     -1.014182    27A     -0.995280
      28A     -0.985951    29A     -0.973710    30A     -0.932482
      31A     -0.856828    32A     -0.840589    33A     -0.838520
      34A     -0.802542    35A     -0.787718    36A     -0.751827
      37A     -0.729785    38A     -0.718534    39A     -0.667723
      40A     -0.662446    41A     -0.646347    42A     -0.639107
      43A     -0.613306    44A     -0.603039    45A     -0.592473
      46A     -0.592000    47A     -0.587866    48A     -0.584088
      49A     -0.581230    50A     -0.569976    51A     -0.567843
      52A     -0.551447    53A     -0.540202    54A     -0.536513
      55A     -0.528346    56A     -0.516390    57A     -0.495468
      58A     -0.494372    59A     -0.475500    60A     -0.472355
      61A     -0.469857    62A     -0.461247    63A     -0.456424
      64A     -0.371364    65A     -0.335734    66A     -0.299288
      67A     -0.292857    68A     -0.275256

    Virtual:

      69A      0.123976    70A      0.129656    71A      0.154488
      72A      0.167014    73A      0.175763    74A      0.181794
      75A      0.185165    76A      0.191149    77A      0.207314
      78A      0.215672    79A      0.218094    80A      0.229664
      81A      0.233365    82A      0.237128    83A      0.253643
      84A      0.257280    85A      0.264407    86A      0.274151
      87A      0.284233    88A      0.290178    89A      0.292943
      90A      0.299555    91A      0.317714    92A      0.347917
      93A      0.361931    94A      0.372219    95A      0.380188
      96A      0.387422    97A      0.404105    98A      0.417939
      99A      0.427952   100A      0.431549   101A      0.440268
     102A      0.465503   103A      0.478412   104A      0.479661
     105A      0.487319   106A      0.494985   107A      0.506600
     108A      0.509075   109A      0.519839   110A      0.595534
     111A      0.599585   112A      0.604021   113A      0.614690
     114A      0.623375   115A      0.634238   116A      0.640445
     117A      0.653744   118A      0.661121   119A      0.673421
     120A      0.677254   121A      0.695576   122A      0.697277
     123A      0.705031   124A      0.710134   125A      0.718409
     126A      0.723235   127A      0.732213   128A      0.735805
     129A      0.736595   130A      0.740760   131A      0.742720
     132A      0.746248   133A      0.755801   134A      0.757960
     135A      0.763407   136A      0.770089   137A      0.782016
     138A      0.787438   139A      0.793082   140A      0.803058
     141A      0.813500   142A      0.822388   143A      0.831449
     144A      0.839329   145A      0.848081   146A      0.858741
     147A      0.867436   148A      0.874484   149A      0.876531
     150A      0.882002   151A      0.882946   152A      0.888969
     153A      0.893651   154A      0.897918   155A      0.899842
     156A      0.909502   157A      0.914622   158A      0.922905
     159A      0.933150   160A      0.943218   161A      0.947586
     162A      0.955413   163A      0.957907   164A      0.962102
     165A      0.966814   166A      0.977375   167A      0.980698
     168A      0.991919   169A      1.009318   170A      1.011916
     171A      1.017691   172A      1.028566   173A      1.039817
     174A      1.063340   175A      1.076224   176A      1.093545
     177A      1.102949   178A      1.117515   179A      1.129975
     180A      1.136925   181A      1.144891   182A      1.147249
     183A      1.164166   184A      1.166529   185A      1.178215
     186A      1.193287   187A      1.205593   188A      1.218615
     189A      1.223802   190A      1.230854   191A      1.234299
     192A      1.245035   193A      1.249173   194A      1.266646
     195A      1.271280   196A      1.275366   197A      1.282438
     198A      1.293432   199A      1.298921   200A      1.302306
     201A      1.306639   202A      1.311474   203A      1.332842
     204A      1.339306   205A      1.352650   206A      1.361197
     207A      1.362716   208A      1.374765   209A      1.383703
     210A      1.404561   211A      1.432051   212A      1.447989
     213A      1.451341   214A      1.492601   215A      1.500273
     216A      1.528089   217A      1.547156   218A      1.572532
     219A      1.584216   220A      1.589060   221A      1.597949
     222A      1.624159   223A      1.630415   224A      1.635581
     225A      1.639286   226A      1.655444   227A      1.686860
     228A      1.687785   229A      1.689322   230A      1.698576
     231A      1.727055   232A      1.736575   233A      1.740339
     234A      1.768495   235A      1.771357   236A      1.774636
     237A      1.784487   238A      1.795584   239A      1.812376
     240A      1.820533   241A      1.834804   242A      1.845364
     243A      1.857021   244A      1.876970   245A      1.880941
     246A      1.885149   247A      1.886699   248A      1.890527
     249A      1.895429   250A      1.904587   251A      1.907233
     252A      1.913833   253A      1.917869   254A      1.920764
     255A      1.925219   256A      1.934283   257A      1.944338
     258A      1.953373   259A      1.957940   260A      1.959836
     261A      1.967546   262A      1.981126   263A      1.990086
     264A      1.991690   265A      2.003633   266A      2.011565
     267A      2.017351   268A      2.026791   269A      2.035142
     270A      2.046803   271A      2.054767   272A      2.062306
     273A      2.071066   274A      2.076494   275A      2.083872
     276A      2.085257   277A      2.096499   278A      2.099190
     279A      2.109446   280A      2.115562   281A      2.124754
     282A      2.136656   283A      2.142018   284A      2.147265
     285A      2.154187   286A      2.163094   287A      2.178699
     288A      2.193720   289A      2.198390   290A      2.224796
     291A      2.229722   292A      2.230669   293A      2.259819
     294A      2.270228   295A      2.288890   296A      2.301251
     297A      2.312108   298A      2.314911   299A      2.329954
     300A      2.340277   301A      2.347818   302A      2.361303
     303A      2.374321   304A      2.393401   305A      2.442201
     306A      2.448290   307A      2.449904   308A      2.460803
     309A      2.467287   310A      2.474311   311A      2.483793
     312A      2.511499   313A      2.528729   314A      2.536071
     315A      2.551721   316A      2.569899   317A      2.580475
     318A      2.599729   319A      2.634092   320A      2.635400
     321A      2.646588   322A      2.660862   323A      2.675180
     324A      2.707605   325A      2.751782   326A      2.775488
     327A      2.780725   328A      2.783780   329A      2.785785
     330A      2.792058   331A      2.799580   332A      2.808181
     333A      2.815129   334A      2.859565   335A      2.869556
     336A      2.873510   337A      2.875387   338A      2.908716
     339A      2.937571   340A      2.961229   341A      2.974385
     342A      2.996376   343A      3.016773   344A      3.041002
     345A      3.050996   346A      3.078410   347A      3.084868
     348A      3.114734   349A      3.177763   350A      3.202275
     351A      3.267338   352A      3.278812   353A      3.301235
     354A      3.352682   355A      3.372074   356A      3.572797
     357A      3.675390   358A      3.731544   359A      3.937859
     360A      3.961249   361A      4.188729

    Final Occupation by Irrep:
              A
    DOCC [    68 ]

  @RHF Final Energy:  -784.19379445417405

   => Energetics <=

    Nuclear Repulsion Energy =           1252.3997703113382158
    One-Electron Energy =               -3551.1924417795871705
    Two-Electron Energy =                1514.5988770140747874
    Total Energy =                       -784.1937944541741672

Computation Completed

Properties will be evaluated at   0.000000,   0.000000,   0.000000 [a0]

Properties computed using the SCF density matrix

  Nuclear Dipole Moment: [e a0]
     X:    -0.2924      Y:    -6.6629      Z:     4.6529

  Electronic Dipole Moment: [e a0]
     X:     0.3083      Y:     5.8325      Z:    -5.6540

  Dipole Moment: [e a0]
     X:     0.0159      Y:    -0.8304      Z:    -1.0011     Total:     1.3007

  Dipole Moment: [D]
     X:     0.0404      Y:    -2.1106      Z:    -2.5445     Total:     3.3062

*** tstop() called on ds3 at Mon Apr 27 03:42:31 2020
Module time:
	user time   =     511.40 seconds =       8.52 minutes
	system time =     631.34 seconds =      10.52 minutes
	total time  =      22223 seconds =     370.38 minutes
Total time:
	user time   =     511.40 seconds =       8.52 minutes
	system time =     631.34 seconds =      10.52 minutes
	total time  =      22223 seconds =     370.38 minutes
                                     G D M A

                                 by Anthony Stone

                           version 2.2.06, 22 June 2011

               Distributed Multipoles from Gaussian wavefunctions

Starting at 3:42:31 on 27 Apr 2020

Using SCF density matrix from file ./SSI/SSI-079TYR-153TRP-1-dimer.test.23180.fchk

                         Distributed Multipole Analysis

Standard DMA

Positions and radii in angstrom
Multipole moments in atomic units, ea_0^k for rank k

C          x =  1.823788  y = -0.647422  z =  1.889054 angstrom
           Maximum rank =  0   Radius =  0.650 angstrom
                   Q00  =  -0.008150

C          x =  2.912788  y = -1.657422  z =  2.248054 angstrom
           Maximum rank =  0   Radius =  0.650 angstrom
                   Q00  =  -0.247215

C          x =  2.306788  y =  0.780578  z =  1.799054 angstrom
           Maximum rank =  0   Radius =  0.650 angstrom
                   Q00  =  -0.149901

C          x =  2.963788  y =  1.239578  z =  0.651054 angstrom
           Maximum rank =  0   Radius =  0.650 angstrom
                   Q00  =  -0.040085

C          x =  2.103788  y =  1.666578  z =  2.862054 angstrom
           Maximum rank =  0   Radius =  0.650 angstrom
                   Q00  =   0.032941

C          x =  3.415788  y =  2.559578  z =  0.566054 angstrom
           Maximum rank =  0   Radius =  0.650 angstrom
                   Q00  =  -0.177799

C          x =  2.549788  y =  2.990578  z =  2.784054 angstrom
           Maximum rank =  0   Radius =  0.650 angstrom
                   Q00  =  -0.112802

C          x =  3.205788  y =  3.435578  z =  1.635054 angstrom
           Maximum rank =  0   Radius =  0.650 angstrom
                   Q00  =   0.299200

O          x =  3.650788  y =  4.722578  z =  1.559054 angstrom
           Maximum rank =  0   Radius =  0.650 angstrom
                   Q00  =  -0.665710

H          x =  1.390788  y = -0.938422  z =  0.938054 angstrom
           Maximum rank =  0   Radius =  0.325 angstrom
                   Q00  =   0.076247

H          x =  1.027788  y = -0.710422  z =  2.633054 angstrom
           Maximum rank =  0   Radius =  0.325 angstrom
                   Q00  =   0.064479

H          x =  2.435788  y = -2.629422  z =  2.225054 angstrom
           Maximum rank =  0   Radius =  0.325 angstrom
                   Q00  =   0.080215

H          x =  3.116788  y =  0.572578  z = -0.186946 angstrom
           Maximum rank =  0   Radius =  0.325 angstrom
                   Q00  =   0.066997

H          x =  1.599788  y =  1.324578  z =  3.757054 angstrom
           Maximum rank =  0   Radius =  0.325 angstrom
                   Q00  =   0.064235

H          x =  3.911788  y =  2.895578  z = -0.332946 angstrom
           Maximum rank =  0   Radius =  0.325 angstrom
                   Q00  =   0.072856

H          x =  2.388788  y =  3.676578  z =  3.604054 angstrom
           Maximum rank =  0   Radius =  0.325 angstrom
                   Q00  =   0.081172

H          x =  4.254788  y =  4.830578  z =  0.827054 angstrom
           Maximum rank =  0   Radius =  0.325 angstrom
                   Q00  =   0.402834

H          x =  3.316718  y = -1.453572  z =  3.250694 angstrom
           Maximum rank =  0   Radius =  0.325 angstrom
                   Q00  =   0.082912

H          x =  3.698918  y = -1.688492  z =  1.479264 angstrom
           Maximum rank =  0   Radius =  0.325 angstrom
                   Q00  =   0.078911

C          x = -5.524212  y = -1.485422  z = -1.091946 angstrom
           Maximum rank =  0   Radius =  0.650 angstrom
                   Q00  =  -0.202081

C          x = -2.920212  y = -1.371422  z = -1.384946 angstrom
           Maximum rank =  0   Radius =  0.650 angstrom
                   Q00  =  -0.059912

C          x = -4.220212  y = -1.892422  z = -1.713946 angstrom
           Maximum rank =  0   Radius =  0.650 angstrom
                   Q00  =  -0.122487

C          x = -1.974212  y = -2.023422  z = -2.224946 angstrom
           Maximum rank =  0   Radius =  0.650 angstrom
                   Q00  =   0.296994

C          x = -4.023212  y = -2.809422  z = -2.703946 angstrom
           Maximum rank =  0   Radius =  0.650 angstrom
                   Q00  =   0.071449

C          x = -1.086212  y = -0.140422  z = -0.405946 angstrom
           Maximum rank =  0   Radius =  0.650 angstrom
                   Q00  =  -0.089620

C          x = -0.176212  y = -0.801422  z = -1.251946 angstrom
           Maximum rank =  0   Radius =  0.650 angstrom
                   Q00  =  -0.073856

C          x = -2.456212  y = -0.417422  z = -0.463946 angstrom
           Maximum rank =  0   Radius =  0.650 angstrom
                   Q00  =  -0.094651

C          x = -0.608212  y = -1.748422  z = -2.166946 angstrom
           Maximum rank =  0   Radius =  0.650 angstrom
                   Q00  =  -0.119531

N          x = -2.683212  y = -2.890422  z = -3.015946 angstrom
           Maximum rank =  0   Radius =  0.650 angstrom
                   Q00  =  -0.501747

H          x = -0.718212  y =  0.599578  z =  0.292054 angstrom
           Maximum rank =  0   Radius =  0.325 angstrom
                   Q00  =   0.069417

H          x =  0.875788  y = -0.555422  z = -1.206946 angstrom
           Maximum rank =  0   Radius =  0.325 angstrom
                   Q00  =   0.059230

H          x = -3.153212  y =  0.093578  z =  0.184054 angstrom
           Maximum rank =  0   Radius =  0.325 angstrom
                   Q00  =   0.070938

H          x =  0.087788  y = -2.254422  z = -2.816946 angstrom
           Maximum rank =  0   Radius =  0.325 angstrom
                   Q00  =   0.071650

H          x = -5.557212  y = -0.396422  z = -1.061946 angstrom
           Maximum rank =  0   Radius =  0.325 angstrom
                   Q00  =   0.098237

H          x = -5.505212  y = -1.820422  z = -0.063946 angstrom
           Maximum rank =  0   Radius =  0.325 angstrom
                   Q00  =   0.099448

H          x = -4.803212  y = -3.379422  z = -3.191946 angstrom
           Maximum rank =  0   Radius =  0.325 angstrom
                   Q00  =   0.101529

H          x = -2.289212  y = -3.452422  z = -3.766946 angstrom
           Maximum rank =  0   Radius =  0.325 angstrom
                   Q00  =   0.216863

H          x = -6.418142  y = -1.854652  z = -1.615926 angstrom
           Maximum rank =  0   Radius =  0.325 angstrom
                   Q00  =   0.106792

Total multipoles referred to origin at
           x =   0.000000,  y =    0.000000,  z =    0.000000 angstrom
                   Q00  =  -0.000000

Finished at 3:42:31 on 27 Apr 2020

  DMA results are available in the Python driver through the
	  variable('DMA DISTRIBUTED MULTIPOLES')
  and
	  variable('DMA TOTAL MULTIPOLES')
  commands.

    Psi4 stopped on: Monday, 27 April 2020 03:42AM
    Psi4 wall time for execution: 6:10:23.90

*** Psi4 exiting successfully. Buy a developer a beer!
