                               Psi4 1.3.2 release

  ==> Input File <==

--------------------------------------------------------------------------
import numpy as np
set {scf_type pk
basis cc-pvdz
d_convergence 10
gdma_switch   0
gdma_limit    0
gdma_origin   [ 0.0,  0.0,  0.0 ]
}
molecule test {
    units Angstrom
    0 1
    --
    0 1
    C                1.593548830599953     1.449229717225422    -2.367096143066903
    C                1.481548830599953     0.390229717225422    -1.304096143066903
    C                1.654548830599953     0.705229717225422     0.046903856933097
    C                1.208548830599953    -0.928770282774578    -1.654096143066903
    C                1.574548830599953    -0.284770282774578     1.028903856933097
    C                1.154548830599953    -1.915770282774578    -0.683096143066903
    C                1.327548830599953    -1.589770282774578     0.650903856933097
    O                1.264548830599953    -2.561770282774578     1.590903856933097
    H                1.338548830599953     2.416229717225422    -1.931096143066903
    H                0.864548830599953     1.246229717225422    -3.150096143066903
    H                1.844548830599953     1.729229717225422     0.338903856933097
    H                1.061548830599953    -1.196770282774578    -2.692096143066903
    H                1.695548830599953    -0.054770282774578     2.072903856933097
    H                0.985548830599953    -2.946770282774577    -0.952096143066903
    H                1.389548830599953    -2.222770282774578     2.483903856933097
    H                2.594478830599953     1.506343717225422    -2.819726143066903
    C               -1.927451169400047     0.650229717225422    -0.010096143066903
    C               -2.997451169400046     0.614229717225422    -1.099096143066903
    S               -2.469451169400047     1.488229717225422     1.499903856933096
    H               -1.628451169400047    -0.372770282774578     0.233903856933097
    H               -1.049451169400047     1.176229717225422    -0.392096143066903
    H               -3.359451169400047     1.634229717225422    -1.248096143066903
    H               -1.452451169400047     1.091229717225422     2.274903856933097
    H               -3.845621169400047    -0.026610282774578    -0.816376143066903
    H               -2.534651169400047     0.299955717225422    -2.046226143066903

}
e, wfn = energy('scf', return_wfn=True)
gdma(wfn)
dmavals = variable('DMA DISTRIBUTED MULTIPOLES')
charges = np.array(dmavals)
print(charges)
np.save('SSI-003TYR-073CYS-2-dimer.npy', np.array(charges))--------------------------------------------------------------------------

*** tstart() called on ds3
*** at Mon Apr 27 13:07:18 2020

   => Loading Basis Set <=

    Name: CC-PVDZ
    Role: ORBITAL
    Keyword: BASIS
    atoms 1-7, 17-18  entry C          line   138 file /theoryfs2/ds/metcalf/miniconda2/envs/tf2gpu/share/psi4/basis/cc-pvdz.gbs
    atoms 8           entry O          line   198 file /theoryfs2/ds/metcalf/miniconda2/envs/tf2gpu/share/psi4/basis/cc-pvdz.gbs
    atoms 9-16, 20-25 entry H          line    22 file /theoryfs2/ds/metcalf/miniconda2/envs/tf2gpu/share/psi4/basis/cc-pvdz.gbs
    atoms 19          entry S          line   598 file /theoryfs2/ds/metcalf/miniconda2/envs/tf2gpu/share/psi4/basis/cc-pvdz.gbs

         ---------------------------------------------------------
                                   SCF
               by Justin Turney, Rob Parrish, Andy Simmonett
                          and Daniel G. A. Smith
                              RHF Reference
                        1 Threads,    500 MiB Core
         ---------------------------------------------------------

  ==> Geometry <==

    Molecular point group: c1
    Full point group: C1

    Geometry (in Angstrom), charge = 0, multiplicity = 1:

       Center              X                  Y                   Z               Mass
    ------------   -----------------  -----------------  -----------------  -----------------
         C            1.593548830600     1.449229717225    -2.367096143067    12.000000000000
         C            1.481548830600     0.390229717225    -1.304096143067    12.000000000000
         C            1.654548830600     0.705229717225     0.046903856933    12.000000000000
         C            1.208548830600    -0.928770282775    -1.654096143067    12.000000000000
         C            1.574548830600    -0.284770282775     1.028903856933    12.000000000000
         C            1.154548830600    -1.915770282775    -0.683096143067    12.000000000000
         C            1.327548830600    -1.589770282775     0.650903856933    12.000000000000
         O            1.264548830600    -2.561770282775     1.590903856933    15.994914619570
         H            1.338548830600     2.416229717225    -1.931096143067     1.007825032230
         H            0.864548830600     1.246229717225    -3.150096143067     1.007825032230
         H            1.844548830600     1.729229717225     0.338903856933     1.007825032230
         H            1.061548830600    -1.196770282775    -2.692096143067     1.007825032230
         H            1.695548830600    -0.054770282775     2.072903856933     1.007825032230
         H            0.985548830600    -2.946770282775    -0.952096143067     1.007825032230
         H            1.389548830600    -2.222770282775     2.483903856933     1.007825032230
         H            2.594478830600     1.506343717225    -2.819726143067     1.007825032230
         C           -1.927451169400     0.650229717225    -0.010096143067    12.000000000000
         C           -2.997451169400     0.614229717225    -1.099096143067    12.000000000000
         S           -2.469451169400     1.488229717225     1.499903856933    31.972071174400
         H           -1.628451169400    -0.372770282775     0.233903856933     1.007825032230
         H           -1.049451169400     1.176229717225    -0.392096143067     1.007825032230
         H           -3.359451169400     1.634229717225    -1.248096143067     1.007825032230
         H           -1.452451169400     1.091229717225     2.274903856933     1.007825032230
         H           -3.845621169400    -0.026610282775    -0.816376143067     1.007825032230
         H           -2.534651169400     0.299955717225    -2.046226143067     1.007825032230

  Running in c1 symmetry.

  Rotational constants: A =      0.03300  B =      0.01868  C =      0.01506 [cm^-1]
  Rotational constants: A =    989.27877  B =    560.03674  C =    451.50870 [MHz]
  Nuclear repulsion =  670.845656661524231

  Charge       = 0
  Multiplicity = 1
  Electrons    = 92
  Nalpha       = 46
  Nbeta        = 46

  ==> Algorithm <==

  SCF Algorithm Type is PK.
  DIIS enabled.
  MOM disabled.
  Fractional occupation disabled.
  Guess Type is SAD.
  Energy threshold   = 1.00e-06
  Density threshold  = 1.00e-10
  Integral threshold = 0.00e+00

  ==> Primary Basis <==

  Basis Set: CC-PVDZ
    Blend: CC-PVDZ
    Number of shells: 110
    Number of basis function: 228
    Number of Cartesian functions: 239
    Spherical Harmonics?: true
    Max angular momentum: 2

  ==> Pre-Iterations <==

   -------------------------------------------------------
    Irrep   Nso     Nmo     Nalpha   Nbeta   Ndocc  Nsocc
   -------------------------------------------------------
     A        228     228       0       0       0       0
   -------------------------------------------------------
    Total     228     228      46      46      46       0
   -------------------------------------------------------

  ==> Integral Setup <==

  Using integral reordering PK algorithm.
  Sizing the integral batches needed.
  Building batch lookup table.
   Calculation information:
      Number of atoms:                  25
      Number of AO shells:             110
      Number of primitives:            340
      Number of atomic orbitals:       239
      Number of basis functions:       228

      Integral cutoff                 1.00e-12
      Number of threads:                 1

	Batch   1 pq = [       0,    9405] index = [             0,44231715] size =     44231715
	Batch   2 pq = [    9405,   13301] index = [      44231715,88464951] size =     44233236
	Batch   3 pq = [   13301,   16290] index = [      88464951,132690195] size =     44225244
	Batch   4 pq = [   16290,   18810] index = [     132690195,176917455] size =     44227260
	Batch   5 pq = [   18810,   21030] index = [     176917455,221140965] size =     44223510
	Batch   6 pq = [   21030,   23037] index = [     221140965,265363203] size =     44222238
	Batch   7 pq = [   23037,   24883] index = [     265363203,309594286] size =     44231083
	Batch   8 pq = [   24883,   26106] index = [     309594286,340774671] size =     31180385
  Task number: 31
  Buffer size: 11059200
  Buffer per thread: 2
  We computed 19233808 shell quartets total.
  Whereas there are 18638565 unique shell quartets.
     3.19 percent of shell quartets recomputed by reordering.

  ==> DiskJK: Disk-Based J/K Matrices <==

    J tasked:                  Yes
    K tasked:                  Yes
    wK tasked:                  No
    Memory [MiB]:              375
    Schwarz Cutoff:          1E-12

    OpenMP threads:              1

  Minimum eigenvalue in the overlap matrix is 3.1559052638E-04.
  Using Symmetric Orthogonalization.

  SCF Guess: Superposition of Atomic Densities via on-the-fly atomic UHF.

  ==> Iterations <==

                        Total Energy        Delta E     RMS |[F,P]|

   @RHF iter SAD:  -820.39399734781182   -8.20394e+02   0.00000e+00
   @RHF iter   1:  -821.12975279093484   -7.35755e-01   2.70137e-03 DIIS
   @RHF iter   2:  -821.34704560473756   -2.17293e-01   1.12930e-03 DIIS
   @RHF iter   3:  -821.38066951629230   -3.36239e-02   2.76700e-04 DIIS
   @RHF iter   4:  -821.38380957104130   -3.14005e-03   1.08762e-04 DIIS
   @RHF iter   5:  -821.38418152603026   -3.71955e-04   2.11759e-05 DIIS
   @RHF iter   6:  -821.38420188343139   -2.03574e-05   7.06332e-06 DIIS
   @RHF iter   7:  -821.38420417927205   -2.29584e-06   2.12180e-06 DIIS
   @RHF iter   8:  -821.38420448274769   -3.03476e-07   7.69587e-07 DIIS
   @RHF iter   9:  -821.38420453281333   -5.00656e-08   3.42109e-07 DIIS
   @RHF iter  10:  -821.38420454308789   -1.02746e-08   1.57513e-07 DIIS
   @RHF iter  11:  -821.38420454661377   -3.52588e-09   7.08759e-08 DIIS
   @RHF iter  12:  -821.38420454733307   -7.19297e-10   2.75606e-08 DIIS
   @RHF iter  13:  -821.38420454742243   -8.93579e-11   8.23773e-09 DIIS
   @RHF iter  14:  -821.38420454742334   -9.09495e-13   2.58797e-09 DIIS
   @RHF iter  15:  -821.38420454742788   -4.54747e-12   7.87478e-10 DIIS
   @RHF iter  16:  -821.38420454742459    3.29692e-12   3.26612e-10 DIIS
   @RHF iter  17:  -821.38420454742447    1.13687e-13   1.49371e-10 DIIS
   @RHF iter  18:  -821.38420454742788   -3.41061e-12   7.69187e-11 DIIS
  Energy and wave function converged.

  ==> Post-Iterations <==

    Orbital Energies [Eh]
    ---------------------

    Doubly Occupied:

       1A    -91.935837     2A    -20.588118     3A    -11.303049
       4A    -11.250629     5A    -11.246082     6A    -11.243864
       7A    -11.238941     8A    -11.238178     9A    -11.234343
      10A    -11.232935    11A    -11.228816    12A     -8.939318
      13A     -6.621460    14A     -6.620002    15A     -6.617639
      16A     -1.409353    17A     -1.159394    18A     -1.061168
      19A     -1.045271    20A     -1.025790    21A     -0.937535
      22A     -0.932898    23A     -0.853899    24A     -0.809079
      25A     -0.802587    26A     -0.740043    27A     -0.675623
      28A     -0.649084    29A     -0.620485    30A     -0.613287
      31A     -0.607006    32A     -0.594492    33A     -0.593071
      34A     -0.576954    35A     -0.573084    36A     -0.531328
      37A     -0.528125    38A     -0.505725    39A     -0.505065
      40A     -0.492858    41A     -0.490884    42A     -0.473402
      43A     -0.434069    44A     -0.346789    45A     -0.343118
      46A     -0.307343

    Virtual:

      47A      0.120540    48A      0.146982    49A      0.154831
      50A      0.168707    51A      0.192555    52A      0.201318
      53A      0.208589    54A      0.226218    55A      0.236372
      56A      0.248858    57A      0.255980    58A      0.260824
      59A      0.265029    60A      0.284172    61A      0.287087
      62A      0.293613    63A      0.303559    64A      0.364518
      65A      0.367828    66A      0.372742    67A      0.428262
      68A      0.454178    69A      0.472355    70A      0.493256
      71A      0.501404    72A      0.521159    73A      0.572920
      74A      0.588967    75A      0.595577    76A      0.608247
      77A      0.638568    78A      0.640545    79A      0.655706
      80A      0.667479    81A      0.676108    82A      0.680274
      83A      0.691496    84A      0.703104    85A      0.720337
      86A      0.723320    87A      0.736216    88A      0.748111
      89A      0.758932    90A      0.762425    91A      0.775319
      92A      0.784733    93A      0.799466    94A      0.802807
      95A      0.827360    96A      0.843074    97A      0.846946
      98A      0.860256    99A      0.870642   100A      0.873371
     101A      0.879297   102A      0.885997   103A      0.893156
     104A      0.897728   105A      0.906187   106A      0.917092
     107A      0.921596   108A      0.932447   109A      0.935409
     110A      0.942480   111A      0.958980   112A      0.966961
     113A      0.980328   114A      1.002749   115A      1.005223
     116A      1.016545   117A      1.043856   118A      1.071731
     119A      1.120696   120A      1.141334   121A      1.163115
     122A      1.168367   123A      1.196223   124A      1.213949
     125A      1.233067   126A      1.246331   127A      1.250361
     128A      1.260647   129A      1.281652   130A      1.294401
     131A      1.302559   132A      1.306667   133A      1.317765
     134A      1.331437   135A      1.351457   136A      1.359180
     137A      1.384516   138A      1.415417   139A      1.472551
     140A      1.484759   141A      1.499710   142A      1.527577
     143A      1.553553   144A      1.609517   145A      1.615092
     146A      1.619105   147A      1.643210   148A      1.675547
     149A      1.680318   150A      1.698722   151A      1.717734
     152A      1.723053   153A      1.738829   154A      1.753126
     155A      1.774355   156A      1.803706   157A      1.818919
     158A      1.861347   159A      1.866864   160A      1.877270
     161A      1.889686   162A      1.891573   163A      1.905903
     164A      1.911689   165A      1.915844   166A      1.922320
     167A      1.933396   168A      1.941837   169A      1.957362
     170A      1.959206   171A      1.974723   172A      1.990026
     173A      1.993912   174A      2.014240   175A      2.033323
     176A      2.038148   177A      2.056846   178A      2.067271
     179A      2.080996   180A      2.099976   181A      2.125306
     182A      2.138626   183A      2.148917   184A      2.160889
     185A      2.208348   186A      2.224220   187A      2.230805
     188A      2.257056   189A      2.270842   190A      2.280886
     191A      2.300317   192A      2.317240   193A      2.331633
     194A      2.367612   195A      2.414838   196A      2.426219
     197A      2.447841   198A      2.460853   199A      2.476701
     200A      2.489533   201A      2.530260   202A      2.537509
     203A      2.555624   204A      2.576528   205A      2.600436
     206A      2.660783   207A      2.755170   208A      2.764733
     209A      2.772064   210A      2.787033   211A      2.802145
     212A      2.807419   213A      2.830204   214A      2.837911
     215A      2.886386   216A      2.903706   217A      2.951086
     218A      3.007386   219A      3.010477   220A      3.092176
     221A      3.108814   222A      3.246762   223A      3.285809
     224A      3.349729   225A      3.579641   226A      3.676146
     227A      3.985940   228A      4.194841

    Final Occupation by Irrep:
              A
    DOCC [    46 ]

  @RHF Final Energy:  -821.38420454742788

   => Energetics <=

    Nuclear Repulsion Energy =            670.8456566615242309
    One-Electron Energy =               -2456.9036865731868602
    Two-Electron Energy =                 964.6738253642348582
    Total Energy =                       -821.3842045474278848

Computation Completed

Properties will be evaluated at   0.000000,   0.000000,   0.000000 [a0]

Properties computed using the SCF density matrix

  Nuclear Dipole Moment: [e a0]
     X:    -2.0238      Y:     4.0386      Z:    -8.0557

  Electronic Dipole Moment: [e a0]
     X:     2.7018      Y:    -4.0262      Z:     7.9174

  Dipole Moment: [e a0]
     X:     0.6780      Y:     0.0124      Z:    -0.1382     Total:     0.6921

  Dipole Moment: [D]
     X:     1.7234      Y:     0.0314      Z:    -0.3514     Total:     1.7591

*** tstop() called on ds3 at Mon Apr 27 13:11:09 2020
Module time:
	user time   =     169.38 seconds =       2.82 minutes
	system time =      68.63 seconds =       1.14 minutes
	total time  =        231 seconds =       3.85 minutes
Total time:
	user time   =     169.38 seconds =       2.82 minutes
	system time =      68.63 seconds =       1.14 minutes
	total time  =        231 seconds =       3.85 minutes
                                     G D M A

                                 by Anthony Stone

                           version 2.2.06, 22 June 2011

               Distributed Multipoles from Gaussian wavefunctions

Starting at 13:11:9 on 27 Apr 2020

Using SCF density matrix from file ./SSI/SSI-003TYR-073CYS-2-dimer.test.5443.fchk

                         Distributed Multipole Analysis

Standard DMA

Positions and radii in angstrom
Multipole moments in atomic units, ea_0^k for rank k

C          x =  1.593549  y =  1.449230  z = -2.367096 angstrom
           Maximum rank =  0   Radius =  0.650 angstrom
                   Q00  =  -0.195792

C          x =  1.481549  y =  0.390230  z = -1.304096 angstrom
           Maximum rank =  0   Radius =  0.650 angstrom
                   Q00  =  -0.136412

C          x =  1.654549  y =  0.705230  z =  0.046904 angstrom
           Maximum rank =  0   Radius =  0.650 angstrom
                   Q00  =   0.009008

C          x =  1.208549  y = -0.928770  z = -1.654096 angstrom
           Maximum rank =  0   Radius =  0.650 angstrom
                   Q00  =  -0.054619

C          x =  1.574549  y = -0.284770  z =  1.028904 angstrom
           Maximum rank =  0   Radius =  0.650 angstrom
                   Q00  =  -0.185141

C          x =  1.154549  y = -1.915770  z = -0.683096 angstrom
           Maximum rank =  0   Radius =  0.650 angstrom
                   Q00  =  -0.100083

C          x =  1.327549  y = -1.589770  z =  0.650904 angstrom
           Maximum rank =  0   Radius =  0.650 angstrom
                   Q00  =   0.352258

O          x =  1.264549  y = -2.561770  z =  1.590904 angstrom
           Maximum rank =  0   Radius =  0.650 angstrom
                   Q00  =  -0.674330

H          x =  1.338549  y =  2.416230  z = -1.931096 angstrom
           Maximum rank =  0   Radius =  0.325 angstrom
                   Q00  =   0.095738

H          x =  0.864549  y =  1.246230  z = -3.150096 angstrom
           Maximum rank =  0   Radius =  0.325 angstrom
                   Q00  =   0.094453

H          x =  1.844549  y =  1.729230  z =  0.338904 angstrom
           Maximum rank =  0   Radius =  0.325 angstrom
                   Q00  =   0.071556

H          x =  1.061549  y = -1.196770  z = -2.692096 angstrom
           Maximum rank =  0   Radius =  0.325 angstrom
                   Q00  =   0.063693

H          x =  1.695549  y = -0.054770  z =  2.072904 angstrom
           Maximum rank =  0   Radius =  0.325 angstrom
                   Q00  =   0.071454

H          x =  0.985549  y = -2.946770  z = -0.952096 angstrom
           Maximum rank =  0   Radius =  0.325 angstrom
                   Q00  =   0.081706

H          x =  1.389549  y = -2.222770  z =  2.483904 angstrom
           Maximum rank =  0   Radius =  0.325 angstrom
                   Q00  =   0.407261

H          x =  2.594479  y =  1.506344  z = -2.819726 angstrom
           Maximum rank =  0   Radius =  0.325 angstrom
                   Q00  =   0.103617

C          x = -1.927451  y =  0.650230  z = -0.010096 angstrom
           Maximum rank =  0   Radius =  0.650 angstrom
                   Q00  =  -0.178088

C          x = -2.997451  y =  0.614230  z = -1.099096 angstrom
           Maximum rank =  0   Radius =  0.650 angstrom
                   Q00  =  -0.216436

S          x = -2.469451  y =  1.488230  z =  1.499904 angstrom
           Maximum rank =  0   Radius =  0.650 angstrom
                   Q00  =  -0.126505

H          x = -1.628451  y = -0.372770  z =  0.233904 angstrom
           Maximum rank =  0   Radius =  0.325 angstrom
                   Q00  =   0.078679

H          x = -1.049451  y =  1.176230  z = -0.392096 angstrom
           Maximum rank =  0   Radius =  0.325 angstrom
                   Q00  =   0.068328

H          x = -3.359451  y =  1.634230  z = -1.248096 angstrom
           Maximum rank =  0   Radius =  0.325 angstrom
                   Q00  =   0.080035

H          x = -1.452451  y =  1.091230  z =  2.274904 angstrom
           Maximum rank =  0   Radius =  0.325 angstrom
                   Q00  =   0.106846

H          x = -3.845621  y = -0.026610  z = -0.816376 angstrom
           Maximum rank =  0   Radius =  0.325 angstrom
                   Q00  =   0.090672

H          x = -2.534651  y =  0.299956  z = -2.046226 angstrom
           Maximum rank =  0   Radius =  0.325 angstrom
                   Q00  =   0.092101

Total multipoles referred to origin at
           x =   0.000000,  y =    0.000000,  z =    0.000000 angstrom
                   Q00  =  -0.000000

Finished at 13:11:9 on 27 Apr 2020

  DMA results are available in the Python driver through the
	  variable('DMA DISTRIBUTED MULTIPOLES')
  and
	  variable('DMA TOTAL MULTIPOLES')
  commands.

    Psi4 stopped on: Monday, 27 April 2020 01:11PM
    Psi4 wall time for execution: 0:03:50.78

*** Psi4 exiting successfully. Buy a developer a beer!
