                               Psi4 1.3.2 release

  ==> Input File <==

--------------------------------------------------------------------------
import numpy as np
set {scf_type pk
basis cc-pvdz
d_convergence 10
gdma_switch   0
gdma_limit    0
gdma_origin   [ 0.0,  0.0,  0.0 ]
}
molecule test {
    units Angstrom
    -1 1
    --
    -1 1
    C               -3.900961729842180     0.774745860286025    -1.520404921689061
    C               -1.424961729842180     0.326745860286025    -0.930404921689061
    C               -2.738961729842180    -0.011254139713975    -1.002404921689061
    C               -1.650961729842180    -1.715254139713976    -0.140404921689061
    N               -0.766961729842180    -0.754254139713975    -0.386404921689061
    N               -2.857961729842180    -1.296254139713975    -0.510404921689061
    H               -0.981961729842180     1.255745860286025    -1.260404921689061
    H                0.238038270157820    -0.824254139713975    -0.210404921689061
    H               -4.403961729842179     0.180745860286025    -2.284404921689061
    H               -3.511961729842180     1.676745860286025    -1.996404921689061
    H               -1.418961729842180    -2.685254139713976     0.283595078310939
    H               -4.627980729842180     1.062385860286025    -0.746644921689061
    C                1.872038270157820     1.325745860286024     0.568595078310939
    C                2.585038270157820     2.444745860286025     1.316595078310939
    C                2.503038270157820    -0.065254139713975     0.742595078310939
    O                3.574038270157819    -0.232254139713975     1.377595078310939
    O                1.910038270157820    -1.024254139713975     0.209595078310939
    H                0.846038270157820     1.283745860286025     0.937595078310939
    H                1.817038270157820     1.579745860286024    -0.491404921689061
    H                2.892038270157820     2.109745860286025     2.308595078310939
    H                1.856038270157820     3.243745860286025     1.461595078310939
    H                3.437348270157820     2.873415860286024     0.769045078310939

}
e, wfn = energy('scf', return_wfn=True)
gdma(wfn)
dmavals = variable('DMA DISTRIBUTED MULTIPOLES')
charges = np.array(dmavals)
print(charges)
np.save('SSI-044HIE-086GLU-1-dimer.npy', np.array(charges))--------------------------------------------------------------------------

*** tstart() called on ds3
*** at Tue Apr 28 19:58:16 2020

   => Loading Basis Set <=

    Name: CC-PVDZ
    Role: ORBITAL
    Keyword: BASIS
    atoms 1-4, 13-15  entry C          line   138 file /theoryfs2/ds/metcalf/miniconda2/envs/tf2gpu/share/psi4/basis/cc-pvdz.gbs
    atoms 5-6         entry N          line   168 file /theoryfs2/ds/metcalf/miniconda2/envs/tf2gpu/share/psi4/basis/cc-pvdz.gbs
    atoms 7-12, 18-22 entry H          line    22 file /theoryfs2/ds/metcalf/miniconda2/envs/tf2gpu/share/psi4/basis/cc-pvdz.gbs
    atoms 16-17       entry O          line   198 file /theoryfs2/ds/metcalf/miniconda2/envs/tf2gpu/share/psi4/basis/cc-pvdz.gbs

         ---------------------------------------------------------
                                   SCF
               by Justin Turney, Rob Parrish, Andy Simmonett
                          and Daniel G. A. Smith
                              RHF Reference
                        1 Threads,    500 MiB Core
         ---------------------------------------------------------

  ==> Geometry <==

    Molecular point group: c1
    Full point group: C1

    Geometry (in Angstrom), charge = -1, multiplicity = 1:

       Center              X                  Y                   Z               Mass
    ------------   -----------------  -----------------  -----------------  -----------------
         C           -3.900961729842     0.774745860286    -1.520404921689    12.000000000000
         C           -1.424961729842     0.326745860286    -0.930404921689    12.000000000000
         C           -2.738961729842    -0.011254139714    -1.002404921689    12.000000000000
         C           -1.650961729842    -1.715254139714    -0.140404921689    12.000000000000
         N           -0.766961729842    -0.754254139714    -0.386404921689    14.003074004430
         N           -2.857961729842    -1.296254139714    -0.510404921689    14.003074004430
         H           -0.981961729842     1.255745860286    -1.260404921689     1.007825032230
         H            0.238038270158    -0.824254139714    -0.210404921689     1.007825032230
         H           -4.403961729842     0.180745860286    -2.284404921689     1.007825032230
         H           -3.511961729842     1.676745860286    -1.996404921689     1.007825032230
         H           -1.418961729842    -2.685254139714     0.283595078311     1.007825032230
         H           -4.627980729842     1.062385860286    -0.746644921689     1.007825032230
         C            1.872038270158     1.325745860286     0.568595078311    12.000000000000
         C            2.585038270158     2.444745860286     1.316595078311    12.000000000000
         C            2.503038270158    -0.065254139714     0.742595078311    12.000000000000
         O            3.574038270158    -0.232254139714     1.377595078311    15.994914619570
         O            1.910038270158    -1.024254139714     0.209595078311    15.994914619570
         H            0.846038270158     1.283745860286     0.937595078311     1.007825032230
         H            1.817038270158     1.579745860286    -0.491404921689     1.007825032230
         H            2.892038270158     2.109745860286     2.308595078311     1.007825032230
         H            1.856038270158     3.243745860286     1.461595078311     1.007825032230
         H            3.437348270158     2.873415860286     0.769045078311     1.007825032230

  Running in c1 symmetry.

  Rotational constants: A =      0.07444  B =      0.01458  C =      0.01255 [cm^-1]
  Rotational constants: A =   2231.65329  B =    437.05455  C =    376.16360 [MHz]
  Nuclear repulsion =  575.512514276280626

  Charge       = -1
  Multiplicity = 1
  Electrons    = 84
  Nalpha       = 42
  Nbeta        = 42

  ==> Algorithm <==

  SCF Algorithm Type is PK.
  DIIS enabled.
  MOM disabled.
  Fractional occupation disabled.
  Guess Type is SAD.
  Energy threshold   = 1.00e-06
  Density threshold  = 1.00e-10
  Integral threshold = 0.00e+00

  ==> Primary Basis <==

  Basis Set: CC-PVDZ
    Blend: CC-PVDZ
    Number of shells: 99
    Number of basis function: 209
    Number of Cartesian functions: 220
    Spherical Harmonics?: true
    Max angular momentum: 2

  ==> Pre-Iterations <==

   -------------------------------------------------------
    Irrep   Nso     Nmo     Nalpha   Nbeta   Ndocc  Nsocc
   -------------------------------------------------------
     A        209     209       0       0       0       0
   -------------------------------------------------------
    Total     209     209      42      42      42       0
   -------------------------------------------------------

  ==> Integral Setup <==

  Using integral reordering PK algorithm.
  Sizing the integral batches needed.
  Building batch lookup table.
   Calculation information:
      Number of atoms:                  22
      Number of AO shells:              99
      Number of primitives:            297
      Number of atomic orbitals:       220
      Number of basis functions:       209

      Integral cutoff                 1.00e-12
      Number of threads:                 1

	Batch   1 pq = [       0,    9405] index = [             0,44231715] size =     44231715
	Batch   2 pq = [    9405,   13301] index = [      44231715,88464951] size =     44233236
	Batch   3 pq = [   13301,   16290] index = [      88464951,132690195] size =     44225244
	Batch   4 pq = [   16290,   18810] index = [     132690195,176917455] size =     44227260
	Batch   5 pq = [   18810,   21030] index = [     176917455,221140965] size =     44223510
	Batch   6 pq = [   21030,   21945] index = [     221140965,240802485] size =     19661520
  Task number: 22
  Buffer size: 11059200
  Buffer per thread: 2
  We computed 9695354 shell quartets total.
  Whereas there are 12253725 unique shell quartets.

  ==> DiskJK: Disk-Based J/K Matrices <==

    J tasked:                  Yes
    K tasked:                  Yes
    wK tasked:                  No
    Memory [MiB]:              375
    Schwarz Cutoff:          1E-12

    OpenMP threads:              1

  Minimum eigenvalue in the overlap matrix is 1.1602345374E-03.
  Using Symmetric Orthogonalization.

  SCF Guess: Superposition of Atomic Densities via on-the-fly atomic UHF.

  ==> Iterations <==

                        Total Energy        Delta E     RMS |[F,P]|

   @RHF iter SAD:  -528.79307951582996   -5.28793e+02   0.00000e+00
   @RHF iter   1:  -529.86029465038803   -1.06722e+00   3.76784e-03 DIIS
   @RHF iter   2:  -530.10580288621179   -2.45508e-01   2.12576e-03 DIIS
   @RHF iter   3:  -530.18139871832125   -7.55958e-02   3.84677e-04 DIIS
   @RHF iter   4:  -530.18534321485629   -3.94450e-03   1.59151e-04 DIIS
   @RHF iter   5:  -530.18599863458087   -6.55420e-04   3.08928e-05 DIIS
   @RHF iter   6:  -530.18602813188943   -2.94973e-05   1.32147e-05 DIIS
   @RHF iter   7:  -530.18603367881724   -5.54693e-06   3.44313e-06 DIIS
   @RHF iter   8:  -530.18603455839036   -8.79573e-07   1.79568e-06 DIIS
   @RHF iter   9:  -530.18603479718990   -2.38800e-07   7.13225e-07 DIIS
   @RHF iter  10:  -530.18603484570019   -4.85103e-08   2.11800e-07 DIIS
   @RHF iter  11:  -530.18603484895391   -3.25372e-09   6.20518e-08 DIIS
   @RHF iter  12:  -530.18603484916810   -2.14186e-10   2.66593e-08 DIIS
   @RHF iter  13:  -530.18603484920413   -3.60387e-11   9.90458e-09 DIIS
   @RHF iter  14:  -530.18603484920618   -2.04636e-12   4.27483e-09 DIIS
   @RHF iter  15:  -530.18603484920754   -1.36424e-12   1.63308e-09 DIIS
   @RHF iter  16:  -530.18603484920686    6.82121e-13   7.17714e-10 DIIS
   @RHF iter  17:  -530.18603484920800   -1.13687e-12   2.43640e-10 DIIS
   @RHF iter  18:  -530.18603484920845   -4.54747e-13   7.89068e-11 DIIS
  Energy and wave function converged.

  ==> Post-Iterations <==

    Orbital Energies [Eh]
    ---------------------

    Doubly Occupied:

       1A    -20.303632     2A    -20.294584     3A    -15.466805
       4A    -15.406211     5A    -11.164557     6A    -11.152080
       7A    -11.130689     8A    -11.127745     9A    -11.122904
      10A    -11.089926    11A    -11.081834    12A     -1.206853
      13A     -1.190440    14A     -1.073972    15A     -1.020685
      16A     -0.917998    17A     -0.895403    18A     -0.828373
      19A     -0.726266    20A     -0.683662    21A     -0.636627
      22A     -0.614446    23A     -0.538133    24A     -0.495029
      25A     -0.486502    26A     -0.481684    27A     -0.473109
      28A     -0.462500    29A     -0.441195    30A     -0.431273
      31A     -0.421576    32A     -0.415675    33A     -0.385066
      34A     -0.382264    35A     -0.357172    36A     -0.331729
      37A     -0.293159    38A     -0.249046    39A     -0.220916
      40A     -0.208044    41A     -0.200265    42A     -0.189760

    Virtual:

      43A      0.288860    44A      0.307496    45A      0.317819
      46A      0.324379    47A      0.333555    48A      0.336358
      49A      0.352123    50A      0.359333    51A      0.392770
      52A      0.398521    53A      0.404742    54A      0.410685
      55A      0.460691    56A      0.475645    57A      0.486677
      58A      0.516732    59A      0.529580    60A      0.564114
      61A      0.592802    62A      0.599301    63A      0.621745
      64A      0.679854    65A      0.703442    66A      0.724045
      67A      0.736886    68A      0.736987    69A      0.754645
      70A      0.775413    71A      0.807518    72A      0.819932
      73A      0.822763    74A      0.859145    75A      0.871800
      76A      0.890696    77A      0.900273    78A      0.922442
      79A      0.939313    80A      0.944876    81A      0.954645
      82A      0.966355    83A      0.982168    84A      0.985912
      85A      0.996446    86A      1.007393    87A      1.016336
      88A      1.024004    89A      1.030324    90A      1.037244
      91A      1.041926    92A      1.052235    93A      1.069948
      94A      1.076212    95A      1.094325    96A      1.096630
      97A      1.124986    98A      1.177605    99A      1.203120
     100A      1.211286   101A      1.226341   102A      1.246923
     103A      1.252939   104A      1.263830   105A      1.282136
     106A      1.297887   107A      1.307022   108A      1.384901
     109A      1.396733   110A      1.422742   111A      1.431739
     112A      1.448529   113A      1.455972   114A      1.485977
     115A      1.494075   116A      1.523371   117A      1.550738
     118A      1.576069   119A      1.587911   120A      1.606121
     121A      1.608543   122A      1.631658   123A      1.648618
     124A      1.695858   125A      1.699659   126A      1.716027
     127A      1.746433   128A      1.777816   129A      1.809401
     130A      1.818482   131A      1.825556   132A      1.833119
     133A      1.878571   134A      1.905897   135A      1.919074
     136A      1.937648   137A      1.950556   138A      1.988198
     139A      1.997567   140A      2.003101   141A      2.006190
     142A      2.040990   143A      2.047939   144A      2.053857
     145A      2.068528   146A      2.091025   147A      2.102530
     148A      2.110746   149A      2.121080   150A      2.132770
     151A      2.141413   152A      2.176885   153A      2.199014
     154A      2.201833   155A      2.219932   156A      2.227809
     157A      2.234753   158A      2.285319   159A      2.297015
     160A      2.322418   161A      2.339559   162A      2.368184
     163A      2.379182   164A      2.414364   165A      2.451115
     166A      2.464628   167A      2.495767   168A      2.502394
     169A      2.525083   170A      2.563331   171A      2.576619
     172A      2.598649   173A      2.610337   174A      2.663635
     175A      2.680752   176A      2.716921   177A      2.740020
     178A      2.745763   179A      2.794113   180A      2.820459
     181A      2.845200   182A      2.870644   183A      2.884929
     184A      2.897343   185A      2.930484   186A      2.936871
     187A      2.957910   188A      2.973728   189A      3.004956
     190A      3.007178   191A      3.035813   192A      3.050969
     193A      3.076031   194A      3.088836   195A      3.191630
     196A      3.219219   197A      3.260225   198A      3.296040
     199A      3.315147   200A      3.363685   201A      3.445044
     202A      3.599566   203A      3.615081   204A      3.724188
     205A      3.779601   206A      3.967797   207A      4.039987
     208A      4.089641   209A      4.176569

    Final Occupation by Irrep:
              A
    DOCC [    42 ]

  @RHF Final Energy:  -530.18603484920845

   => Energetics <=

    Nuclear Repulsion Energy =            575.5125142762806263
    One-Electron Energy =               -1878.1975218740144555
    Two-Electron Energy =                 772.4989727485253752
    Total Energy =                       -530.1860348492084540

Computation Completed

Properties will be evaluated at   0.000000,   0.000000,   0.000000 [a0]

Properties computed using the SCF density matrix

  Nuclear Dipole Moment: [e a0]
     X:    -3.5801      Y:    11.0213      Z:    -1.1421

  Electronic Dipole Moment: [e a0]
     X:     0.8806      Y:    -9.4538      Z:     0.0600

  Dipole Moment: [e a0]
     X:    -2.6995      Y:     1.5674      Z:    -1.0822     Total:     3.3038

  Dipole Moment: [D]
     X:    -6.8615      Y:     3.9840      Z:    -2.7506     Total:     8.3975

*** tstop() called on ds3 at Tue Apr 28 20:00:10 2020
Module time:
	user time   =      80.02 seconds =       1.33 minutes
	system time =      38.69 seconds =       0.64 minutes
	total time  =        114 seconds =       1.90 minutes
Total time:
	user time   =      80.02 seconds =       1.33 minutes
	system time =      38.69 seconds =       0.64 minutes
	total time  =        114 seconds =       1.90 minutes
                                     G D M A

                                 by Anthony Stone

                           version 2.2.06, 22 June 2011

               Distributed Multipoles from Gaussian wavefunctions

Starting at 20:0:10 on 28 Apr 2020

Using SCF density matrix from file ./SSI/SSI-044HIE-086GLU-1-dimer.test.32275.fchk

                         Distributed Multipole Analysis

Standard DMA

Positions and radii in angstrom
Multipole moments in atomic units, ea_0^k for rank k

C          x = -3.900962  y =  0.774746  z = -1.520405 angstrom
           Maximum rank =  0   Radius =  0.650 angstrom
                   Q00  =  -0.185640

C          x = -1.424962  y =  0.326746  z = -0.930405 angstrom
           Maximum rank =  0   Radius =  0.650 angstrom
                   Q00  =   0.040201

C          x = -2.738962  y = -0.011254  z = -1.002405 angstrom
           Maximum rank =  0   Radius =  0.650 angstrom
                   Q00  =   0.182205

C          x = -1.650962  y = -1.715254  z = -0.140405 angstrom
           Maximum rank =  0   Radius =  0.650 angstrom
                   Q00  =   0.482710

N          x = -0.766962  y = -0.754254  z = -0.386405 angstrom
           Maximum rank =  0   Radius =  0.650 angstrom
                   Q00  =  -0.524428

N          x = -2.857962  y = -1.296254  z = -0.510405 angstrom
           Maximum rank =  0   Radius =  0.650 angstrom
                   Q00  =  -0.801498

H          x = -0.981962  y =  1.255746  z = -1.260405 angstrom
           Maximum rank =  0   Radius =  0.325 angstrom
                   Q00  =   0.078849

H          x =  0.238038  y = -0.824254  z = -0.210405 angstrom
           Maximum rank =  0   Radius =  0.325 angstrom
                   Q00  =   0.338112

H          x = -4.403962  y =  0.180746  z = -2.284405 angstrom
           Maximum rank =  0   Radius =  0.325 angstrom
                   Q00  =   0.090158

H          x = -3.511962  y =  1.676746  z = -1.996405 angstrom
           Maximum rank =  0   Radius =  0.325 angstrom
                   Q00  =   0.078992

H          x = -1.418962  y = -2.685254  z =  0.283595 angstrom
           Maximum rank =  0   Radius =  0.325 angstrom
                   Q00  =   0.111635

H          x = -4.627981  y =  1.062386  z = -0.746645 angstrom
           Maximum rank =  0   Radius =  0.325 angstrom
                   Q00  =   0.086393

C          x =  1.872038  y =  1.325746  z =  0.568595 angstrom
           Maximum rank =  0   Radius =  0.650 angstrom
                   Q00  =  -0.177438

C          x =  2.585038  y =  2.444746  z =  1.316595 angstrom
           Maximum rank =  0   Radius =  0.650 angstrom
                   Q00  =  -0.227037

C          x =  2.503038  y = -0.065254  z =  0.742595 angstrom
           Maximum rank =  0   Radius =  0.650 angstrom
                   Q00  =   0.978329

O          x =  3.574038  y = -0.232254  z =  1.377595 angstrom
           Maximum rank =  0   Radius =  0.650 angstrom
                   Q00  =  -0.926845

O          x =  1.910038  y = -1.024254  z =  0.209595 angstrom
           Maximum rank =  0   Radius =  0.650 angstrom
                   Q00  =  -0.942733

H          x =  0.846038  y =  1.283746  z =  0.937595 angstrom
           Maximum rank =  0   Radius =  0.325 angstrom
                   Q00  =   0.063878

H          x =  1.817038  y =  1.579746  z = -0.491405 angstrom
           Maximum rank =  0   Radius =  0.325 angstrom
                   Q00  =   0.057329

H          x =  2.892038  y =  2.109746  z =  2.308595 angstrom
           Maximum rank =  0   Radius =  0.325 angstrom
                   Q00  =   0.098401

H          x =  1.856038  y =  3.243746  z =  1.461595 angstrom
           Maximum rank =  0   Radius =  0.325 angstrom
                   Q00  =   0.031246

H          x =  3.437348  y =  2.873416  z =  0.769045 angstrom
           Maximum rank =  0   Radius =  0.325 angstrom
                   Q00  =   0.067182

Total multipoles referred to origin at
           x =   0.000000,  y =    0.000000,  z =    0.000000 angstrom
                   Q00  =  -1.000000

Finished at 20:0:10 on 28 Apr 2020

  DMA results are available in the Python driver through the
	  variable('DMA DISTRIBUTED MULTIPOLES')
  and
	  variable('DMA TOTAL MULTIPOLES')
  commands.

    Psi4 stopped on: Tuesday, 28 April 2020 08:00PM
    Psi4 wall time for execution: 0:01:54.17

*** Psi4 exiting successfully. Buy a developer a beer!
