                               Psi4 1.3.2 release

  ==> Input File <==

--------------------------------------------------------------------------
import numpy as np
set {scf_type pk
basis cc-pvdz
d_convergence 10
gdma_switch   0
gdma_limit    0
gdma_origin   [ 0.0,  0.0,  0.0 ]
}
molecule test {
    units Angstrom
    1 1
    --
    1 1
    C                1.426254693828098     2.346726482776519     2.626974294134089
    C                1.437254693828098     0.771726482776519    -0.821025705865911
    C                1.357254693828098     1.709726482776519     0.205974294134089
    C                1.751254693828098    -0.546273517223481    -0.493025705865911
    C                1.579254693828098     1.340726482776519     1.538974294134089
    C                1.983254693828098    -0.928273517223481     0.830974294134089
    C                1.860254693828098     0.019726482776519     1.850974294134089
    O                1.825254693828098    -1.505273517223481    -1.453025705865911
    H                1.255254693828098     1.062726482776519    -1.846025705865911
    H                1.105254693828098     2.731726482776519    -0.025025705865911
    H                1.647254693828098    -1.159273517223481    -2.333025705865911
    H                2.192254693828098    -1.963273517223481     1.060974294134089
    H                1.831254693828098     3.300726482776519     2.286974294134089
    H                2.001254693828098     2.031726482776519     3.495974294134089
    H                1.878254693828098    -0.276273517223481     2.888974294134089
    H                0.368674693828098     2.479728482776519     2.898694294134089
    C               -2.301745306171902     1.033726482776519    -1.138025705865911
    C               -3.794745306171902     0.866726482776519    -1.438025705865911
    C               -1.519745306171902    -1.140273517223481    -0.275025705865911
    N               -1.828745306171902     0.125726482776519    -0.092025705865911
    N               -1.125745306171902    -1.870273517223481     0.746974294134089
    N               -1.582745306171902    -1.665273517223481    -1.485025705865911
    H               -1.726745306171902     0.901726482776519    -2.056025705865911
    H               -2.122745306171902     2.060726482776519    -0.813025705865911
    H               -3.950745306171902    -0.101273517223481    -1.913025705865911
    H               -4.106745306171902     1.631726482776519    -2.148025705865911
    H               -1.741745306171902     0.481726482776519     0.854974294134089
    H               -1.062745306171902    -1.436273517223481     1.655974294134089
    H               -0.863745306171902    -2.834273517223481     0.620974294134089
    H               -1.871745306171902    -1.101273517223481    -2.264025705865911
    H               -1.328745306171902    -2.629273517223481    -1.633025705865911
    H               -4.420432306171902     0.904538482776519    -0.534095705865911

}
e, wfn = energy('scf', return_wfn=True)
gdma(wfn)
dmavals = variable('DMA DISTRIBUTED MULTIPOLES')
charges = np.array(dmavals)
print(charges)
np.save('SSI-129TYR-133ARG-1-dimer.npy', np.array(charges))--------------------------------------------------------------------------

*** tstart() called on ds3
*** at Tue Apr 28 13:36:25 2020

   => Loading Basis Set <=

    Name: CC-PVDZ
    Role: ORBITAL
    Keyword: BASIS
    atoms 1-7, 17-19  entry C          line   138 file /theoryfs2/ds/metcalf/miniconda2/envs/tf2gpu/share/psi4/basis/cc-pvdz.gbs
    atoms 8           entry O          line   198 file /theoryfs2/ds/metcalf/miniconda2/envs/tf2gpu/share/psi4/basis/cc-pvdz.gbs
    atoms 9-16, 23-32 entry H          line    22 file /theoryfs2/ds/metcalf/miniconda2/envs/tf2gpu/share/psi4/basis/cc-pvdz.gbs
    atoms 20-22       entry N          line   168 file /theoryfs2/ds/metcalf/miniconda2/envs/tf2gpu/share/psi4/basis/cc-pvdz.gbs

         ---------------------------------------------------------
                                   SCF
               by Justin Turney, Rob Parrish, Andy Simmonett
                          and Daniel G. A. Smith
                              RHF Reference
                        1 Threads,    500 MiB Core
         ---------------------------------------------------------

  ==> Geometry <==

    Molecular point group: c1
    Full point group: C1

    Geometry (in Angstrom), charge = 1, multiplicity = 1:

       Center              X                  Y                   Z               Mass
    ------------   -----------------  -----------------  -----------------  -----------------
         C            1.426254693828     2.346726482777     2.626974294134    12.000000000000
         C            1.437254693828     0.771726482777    -0.821025705866    12.000000000000
         C            1.357254693828     1.709726482777     0.205974294134    12.000000000000
         C            1.751254693828    -0.546273517223    -0.493025705866    12.000000000000
         C            1.579254693828     1.340726482777     1.538974294134    12.000000000000
         C            1.983254693828    -0.928273517223     0.830974294134    12.000000000000
         C            1.860254693828     0.019726482777     1.850974294134    12.000000000000
         O            1.825254693828    -1.505273517223    -1.453025705866    15.994914619570
         H            1.255254693828     1.062726482777    -1.846025705866     1.007825032230
         H            1.105254693828     2.731726482777    -0.025025705866     1.007825032230
         H            1.647254693828    -1.159273517223    -2.333025705866     1.007825032230
         H            2.192254693828    -1.963273517223     1.060974294134     1.007825032230
         H            1.831254693828     3.300726482777     2.286974294134     1.007825032230
         H            2.001254693828     2.031726482777     3.495974294134     1.007825032230
         H            1.878254693828    -0.276273517223     2.888974294134     1.007825032230
         H            0.368674693828     2.479728482777     2.898694294134     1.007825032230
         C           -2.301745306172     1.033726482777    -1.138025705866    12.000000000000
         C           -3.794745306172     0.866726482777    -1.438025705866    12.000000000000
         C           -1.519745306172    -1.140273517223    -0.275025705866    12.000000000000
         N           -1.828745306172     0.125726482777    -0.092025705866    14.003074004430
         N           -1.125745306172    -1.870273517223     0.746974294134    14.003074004430
         N           -1.582745306172    -1.665273517223    -1.485025705866    14.003074004430
         H           -1.726745306172     0.901726482777    -2.056025705866     1.007825032230
         H           -2.122745306172     2.060726482777    -0.813025705866     1.007825032230
         H           -3.950745306172    -0.101273517223    -1.913025705866     1.007825032230
         H           -4.106745306172     1.631726482777    -2.148025705866     1.007825032230
         H           -1.741745306172     0.481726482777     0.854974294134     1.007825032230
         H           -1.062745306172    -1.436273517223     1.655974294134     1.007825032230
         H           -0.863745306172    -2.834273517223     0.620974294134     1.007825032230
         H           -1.871745306172    -1.101273517223    -2.264025705866     1.007825032230
         H           -1.328745306172    -2.629273517223    -1.633025705866     1.007825032230
         H           -4.420432306172     0.904538482777    -0.534095705866     1.007825032230

  Running in c1 symmetry.

  Rotational constants: A =      0.02860  B =      0.01597  C =      0.01323 [cm^-1]
  Rotational constants: A =    857.27207  B =    478.81529  C =    396.75150 [MHz]
  Nuclear repulsion =  938.444368759929148

  Charge       = 1
  Multiplicity = 1
  Electrons    = 106
  Nalpha       = 53
  Nbeta        = 53

  ==> Algorithm <==

  SCF Algorithm Type is PK.
  DIIS enabled.
  MOM disabled.
  Fractional occupation disabled.
  Guess Type is SAD.
  Energy threshold   = 1.00e-06
  Density threshold  = 1.00e-10
  Integral threshold = 0.00e+00

  ==> Primary Basis <==

  Basis Set: CC-PVDZ
    Blend: CC-PVDZ
    Number of shells: 138
    Number of basis function: 286
    Number of Cartesian functions: 300
    Spherical Harmonics?: true
    Max angular momentum: 2

  ==> Pre-Iterations <==

   -------------------------------------------------------
    Irrep   Nso     Nmo     Nalpha   Nbeta   Ndocc  Nsocc
   -------------------------------------------------------
     A        286     286       0       0       0       0
   -------------------------------------------------------
    Total     286     286      53      53      53       0
   -------------------------------------------------------

  ==> Integral Setup <==

  Using integral reordering PK algorithm.
  Sizing the integral batches needed.
  Building batch lookup table.
   Calculation information:
      Number of atoms:                  32
      Number of AO shells:             138
      Number of primitives:            398
      Number of atomic orbitals:       300
      Number of basis functions:       286

      Integral cutoff                 1.00e-12
      Number of threads:                 1

	Batch   1 pq = [       0,    9405] index = [             0,44231715] size =     44231715
	Batch   2 pq = [    9405,   13301] index = [      44231715,88464951] size =     44233236
	Batch   3 pq = [   13301,   16290] index = [      88464951,132690195] size =     44225244
	Batch   4 pq = [   16290,   18810] index = [     132690195,176917455] size =     44227260
	Batch   5 pq = [   18810,   21030] index = [     176917455,221140965] size =     44223510
	Batch   6 pq = [   21030,   23037] index = [     221140965,265363203] size =     44222238
	Batch   7 pq = [   23037,   24883] index = [     265363203,309594286] size =     44231083
	Batch   8 pq = [   24883,   26601] index = [     309594286,353819901] size =     44225615
	Batch   9 pq = [   26601,   28214] index = [     353819901,398029005] size =     44209104
	Batch  10 pq = [   28214,   29740] index = [     398029005,442248670] size =     44219665
	Batch  11 pq = [   29740,   31191] index = [     442248670,486454836] size =     44206166
	Batch  12 pq = [   31191,   32578] index = [     486454836,530679331] size =     44224495
	Batch  13 pq = [   32578,   33908] index = [     530679331,574893186] size =     44213855
	Batch  14 pq = [   33908,   35188] index = [     574893186,619115266] size =     44222080
	Batch  15 pq = [   35188,   36423] index = [     619115266,663335676] size =     44220410
	Batch  16 pq = [   36423,   37617] index = [     663335676,707538153] size =     44202477
	Batch  17 pq = [   37617,   38775] index = [     707538153,751769700] size =     44231547
	Batch  18 pq = [   38775,   39899] index = [     751769700,795985050] size =     44215350
	Batch  19 pq = [   39899,   41041] index = [     795985050,842202361] size =     46217311
  Task number: 77
  Buffer size: 11059200
  Buffer per thread: 2
  We computed 53502354 shell quartets total.
  Whereas there are 45998436 unique shell quartets.
    16.31 percent of shell quartets recomputed by reordering.

  ==> DiskJK: Disk-Based J/K Matrices <==

    J tasked:                  Yes
    K tasked:                  Yes
    wK tasked:                  No
    Memory [MiB]:              375
    Schwarz Cutoff:          1E-12

    OpenMP threads:              1

  Minimum eigenvalue in the overlap matrix is 3.3125290282E-04.
  Using Symmetric Orthogonalization.

  SCF Guess: Superposition of Atomic Densities via on-the-fly atomic UHF.

  ==> Iterations <==

                        Total Energy        Delta E     RMS |[F,P]|

   @RHF iter SAD:  -626.53499257439739   -6.26535e+02   0.00000e+00
   @RHF iter   1:  -626.92077008055708   -3.85778e-01   2.55315e-03 DIIS
   @RHF iter   2:  -627.20397205807012   -2.83202e-01   1.02412e-03 DIIS
   @RHF iter   3:  -627.24525271941525   -4.12807e-02   2.59885e-04 DIIS
   @RHF iter   4:  -627.24920903890597   -3.95632e-03   9.85634e-05 DIIS
   @RHF iter   5:  -627.24967105880273   -4.62020e-04   1.95672e-05 DIIS
   @RHF iter   6:  -627.24970057956125   -2.95208e-05   6.59677e-06 DIIS
   @RHF iter   7:  -627.24970345201029   -2.87245e-06   1.84444e-06 DIIS
   @RHF iter   8:  -627.24970379490912   -3.42899e-07   6.43830e-07 DIIS
   @RHF iter   9:  -627.24970382389904   -2.89899e-08   1.96591e-07 DIIS
   @RHF iter  10:  -627.24970382702907   -3.13003e-09   5.96200e-08 DIIS
   @RHF iter  11:  -627.24970382749348   -4.64411e-10   2.47191e-08 DIIS
   @RHF iter  12:  -627.24970382759705   -1.03569e-10   1.17882e-08 DIIS
   @RHF iter  13:  -627.24970382763115   -3.41061e-11   5.83471e-09 DIIS
   @RHF iter  14:  -627.24970382764332   -1.21645e-11   1.97813e-09 DIIS
   @RHF iter  15:  -627.24970382764536   -2.04636e-12   7.10438e-10 DIIS
   @RHF iter  16:  -627.24970382764172    3.63798e-12   2.64474e-10 DIIS
   @RHF iter  17:  -627.24970382764354   -1.81899e-12   9.16770e-11 DIIS
  Energy and wave function converged.

  ==> Post-Iterations <==

    Orbital Energies [Eh]
    ---------------------

    Doubly Occupied:

       1A    -20.697643     2A    -15.776109     3A    -15.771515
       4A    -15.769785     5A    -11.573636     6A    -11.432678
       7A    -11.412813     8A    -11.365140     9A    -11.349926
      10A    -11.348403    11A    -11.348262    12A    -11.344126
      13A    -11.341493    14A    -11.324334    15A     -1.534994
      16A     -1.516369    17A     -1.390983    18A     -1.380707
      19A     -1.263393    20A     -1.180303    21A     -1.148768
      22A     -1.131276    23A     -1.052576    24A     -1.031258
      25A     -1.002378    26A     -0.966515    27A     -0.958237
      28A     -0.923200    29A     -0.912464    30A     -0.847948
      31A     -0.845895    32A     -0.845467    33A     -0.815538
      34A     -0.786900    35A     -0.779016    36A     -0.753856
      37A     -0.752249    38A     -0.717046    39A     -0.704840
      40A     -0.700314    41A     -0.694777    42A     -0.677696
      43A     -0.676470    44A     -0.670517    45A     -0.646121
      46A     -0.629087    47A     -0.607057    48A     -0.605698
      49A     -0.596678    50A     -0.576657    51A     -0.565968
      52A     -0.451622    53A     -0.412258

    Virtual:

      54A     -0.001858    55A      0.008427    56A      0.024294
      57A      0.032260    58A      0.037968    59A      0.054659
      60A      0.069128    61A      0.072904    62A      0.081287
      63A      0.099146    64A      0.110936    65A      0.118933
      66A      0.128618    67A      0.134235    68A      0.136682
      69A      0.147491    70A      0.165954    71A      0.174114
      72A      0.184380    73A      0.194025    74A      0.199340
      75A      0.225402    76A      0.233331    77A      0.262399
      78A      0.273410    79A      0.290636    80A      0.317095
      81A      0.342803    82A      0.349206    83A      0.361929
      84A      0.371542    85A      0.389568    86A      0.395885
      87A      0.434506    88A      0.448010    89A      0.464984
      90A      0.481034    91A      0.500411    92A      0.520939
      93A      0.525735    94A      0.537743    95A      0.541267
      96A      0.545007    97A      0.555636    98A      0.560909
      99A      0.568719   100A      0.577889   101A      0.595228
     102A      0.610072   103A      0.622826   104A      0.631322
     105A      0.646170   106A      0.661362   107A      0.661995
     108A      0.674827   109A      0.679276   110A      0.700810
     111A      0.708036   112A      0.718612   113A      0.723895
     114A      0.740486   115A      0.742177   116A      0.752276
     117A      0.759850   118A      0.767858   119A      0.779734
     120A      0.783146   121A      0.787609   122A      0.790685
     123A      0.793421   124A      0.812922   125A      0.818114
     126A      0.821291   127A      0.830441   128A      0.836324
     129A      0.851031   130A      0.866201   131A      0.869621
     132A      0.880820   133A      0.897709   134A      0.910597
     135A      0.916690   136A      0.929467   137A      0.940328
     138A      0.949550   139A      0.960007   140A      0.976482
     141A      0.997294   142A      1.021800   143A      1.032608
     144A      1.055199   145A      1.060346   146A      1.081520
     147A      1.109832   148A      1.111440   149A      1.116915
     150A      1.136787   151A      1.141244   152A      1.159394
     153A      1.165199   154A      1.175741   155A      1.194768
     156A      1.201443   157A      1.211734   158A      1.224842
     159A      1.247250   160A      1.248685   161A      1.252604
     162A      1.269499   163A      1.279763   164A      1.301853
     165A      1.311748   166A      1.354943   167A      1.367717
     168A      1.379968   169A      1.408800   170A      1.429151
     171A      1.468970   172A      1.471859   173A      1.507708
     174A      1.515405   175A      1.536214   176A      1.550201
     177A      1.584712   178A      1.588007   179A      1.595430
     180A      1.614099   181A      1.630956   182A      1.635548
     183A      1.643076   184A      1.657185   185A      1.689201
     186A      1.691233   187A      1.703093   188A      1.703864
     189A      1.725747   190A      1.742827   191A      1.749557
     192A      1.751997   193A      1.759128   194A      1.768197
     195A      1.780003   196A      1.792165   197A      1.802911
     198A      1.806695   199A      1.808775   200A      1.821742
     201A      1.826350   202A      1.827941   203A      1.839954
     204A      1.848160   205A      1.867344   206A      1.871301
     207A      1.878775   208A      1.884587   209A      1.893687
     210A      1.915846   211A      1.928859   212A      1.936586
     213A      1.944978   214A      1.954967   215A      1.966611
     216A      1.969212   217A      1.983225   218A      2.022914
     219A      2.035086   220A      2.043904   221A      2.049318
     222A      2.070252   223A      2.089778   224A      2.092328
     225A      2.124377   226A      2.129884   227A      2.156485
     228A      2.163711   229A      2.171816   230A      2.199505
     231A      2.203097   232A      2.231014   233A      2.239445
     234A      2.267506   235A      2.271314   236A      2.290285
     237A      2.303664   238A      2.318438   239A      2.336031
     240A      2.342319   241A      2.361194   242A      2.369393
     243A      2.376027   244A      2.399168   245A      2.407006
     246A      2.417676   247A      2.444007   248A      2.453652
     249A      2.485560   250A      2.497443   251A      2.521609
     252A      2.539526   253A      2.602858   254A      2.621191
     255A      2.629821   256A      2.644585   257A      2.658396
     258A      2.679248   259A      2.688908   260A      2.695427
     261A      2.700377   262A      2.740304   263A      2.756695
     264A      2.791799   265A      2.800453   266A      2.803816
     267A      2.841996   268A      2.859488   269A      2.870811
     270A      2.897322   271A      2.912376   272A      2.964243
     273A      2.979835   274A      3.013597   275A      3.112724
     276A      3.134234   277A      3.147846   278A      3.164270
     279A      3.183485   280A      3.244463   281A      3.479213
     282A      3.571853   283A      3.600337   284A      3.683337
     285A      3.863250   286A      4.088257

    Final Occupation by Irrep:
              A
    DOCC [    53 ]

  @RHF Final Energy:  -627.24970382764354

   => Energetics <=

    Nuclear Repulsion Energy =            938.4443687599291479
    One-Electron Energy =               -2700.1702232415054823
    Two-Electron Energy =                1134.4761506539327911
    Total Energy =                       -627.2497038276435433

Computation Completed

Properties will be evaluated at   0.000000,   0.000000,   0.000000 [a0]

Properties computed using the SCF density matrix

  Nuclear Dipole Moment: [e a0]
     X:   -10.2121      Y:     5.7080      Z:     0.1812

  Electronic Dipole Moment: [e a0]
     X:     7.3301      Y:    -6.7638      Z:    -0.9122

  Dipole Moment: [e a0]
     X:    -2.8821      Y:    -1.0558      Z:    -0.7310     Total:     3.1552

  Dipole Moment: [D]
     X:    -7.3255      Y:    -2.6835      Z:    -1.8579     Total:     8.0197

*** tstop() called on ds3 at Tue Apr 28 13:48:17 2020
Module time:
	user time   =     431.83 seconds =       7.20 minutes
	system time =     136.54 seconds =       2.28 minutes
	total time  =        712 seconds =      11.87 minutes
Total time:
	user time   =     431.83 seconds =       7.20 minutes
	system time =     136.54 seconds =       2.28 minutes
	total time  =        712 seconds =      11.87 minutes
                                     G D M A

                                 by Anthony Stone

                           version 2.2.06, 22 June 2011

               Distributed Multipoles from Gaussian wavefunctions

Starting at 13:48:17 on 28 Apr 2020

Using SCF density matrix from file ./SSI/SSI-129TYR-133ARG-1-dimer.test.16423.fchk

                         Distributed Multipole Analysis

Standard DMA

Positions and radii in angstrom
Multipole moments in atomic units, ea_0^k for rank k

C          x =  1.426255  y =  2.346726  z =  2.626974 angstrom
           Maximum rank =  0   Radius =  0.650 angstrom
                   Q00  =  -0.179422

C          x =  1.437255  y =  0.771726  z = -0.821026 angstrom
           Maximum rank =  0   Radius =  0.650 angstrom
                   Q00  =  -0.213231

C          x =  1.357255  y =  1.709726  z =  0.205974 angstrom
           Maximum rank =  0   Radius =  0.650 angstrom
                   Q00  =   0.009920

C          x =  1.751255  y = -0.546274  z = -0.493026 angstrom
           Maximum rank =  0   Radius =  0.650 angstrom
                   Q00  =   0.324663

C          x =  1.579255  y =  1.340726  z =  1.538974 angstrom
           Maximum rank =  0   Radius =  0.650 angstrom
                   Q00  =  -0.141648

C          x =  1.983255  y = -0.928274  z =  0.830974 angstrom
           Maximum rank =  0   Radius =  0.650 angstrom
                   Q00  =  -0.128193

C          x =  1.860255  y =  0.019726  z =  1.850974 angstrom
           Maximum rank =  0   Radius =  0.650 angstrom
                   Q00  =  -0.061911

O          x =  1.825255  y = -1.505274  z = -1.453026 angstrom
           Maximum rank =  0   Radius =  0.650 angstrom
                   Q00  =  -0.666162

H          x =  1.255255  y =  1.062726  z = -1.846026 angstrom
           Maximum rank =  0   Radius =  0.325 angstrom
                   Q00  =   0.080502

H          x =  1.105255  y =  2.731726  z = -0.025026 angstrom
           Maximum rank =  0   Radius =  0.325 angstrom
                   Q00  =   0.080005

H          x =  1.647255  y = -1.159274  z = -2.333026 angstrom
           Maximum rank =  0   Radius =  0.325 angstrom
                   Q00  =   0.409774

H          x =  2.192255  y = -1.963274  z =  1.060974 angstrom
           Maximum rank =  0   Radius =  0.325 angstrom
                   Q00  =   0.084779

H          x =  1.831255  y =  3.300726  z =  2.286974 angstrom
           Maximum rank =  0   Radius =  0.325 angstrom
                   Q00  =   0.114267

H          x =  2.001255  y =  2.031726  z =  3.495974 angstrom
           Maximum rank =  0   Radius =  0.325 angstrom
                   Q00  =   0.112923

H          x =  1.878255  y = -0.276274  z =  2.888974 angstrom
           Maximum rank =  0   Radius =  0.325 angstrom
                   Q00  =   0.075607

H          x =  0.368675  y =  2.479728  z =  2.898694 angstrom
           Maximum rank =  0   Radius =  0.325 angstrom
                   Q00  =   0.084594

C          x = -2.301745  y =  1.033726  z = -1.138026 angstrom
           Maximum rank =  0   Radius =  0.650 angstrom
                   Q00  =   0.012561

C          x = -3.794745  y =  0.866726  z = -1.438026 angstrom
           Maximum rank =  0   Radius =  0.650 angstrom
                   Q00  =  -0.250236

C          x = -1.519745  y = -1.140274  z = -0.275026 angstrom
           Maximum rank =  0   Radius =  0.650 angstrom
                   Q00  =   1.064270

N          x = -1.828745  y =  0.125726  z = -0.092026 angstrom
           Maximum rank =  0   Radius =  0.650 angstrom
                   Q00  =  -0.474727

N          x = -1.125745  y = -1.870274  z =  0.746974 angstrom
           Maximum rank =  0   Radius =  0.650 angstrom
                   Q00  =  -0.572492

N          x = -1.582745  y = -1.665274  z = -1.485026 angstrom
           Maximum rank =  0   Radius =  0.650 angstrom
                   Q00  =  -0.582712

H          x = -1.726745  y =  0.901726  z = -2.056026 angstrom
           Maximum rank =  0   Radius =  0.325 angstrom
                   Q00  =   0.068111

H          x = -2.122745  y =  2.060726  z = -0.813026 angstrom
           Maximum rank =  0   Radius =  0.325 angstrom
                   Q00  =   0.133357

H          x = -3.950745  y = -0.101274  z = -1.913026 angstrom
           Maximum rank =  0   Radius =  0.325 angstrom
                   Q00  =   0.082332

H          x = -4.106745  y =  1.631726  z = -2.148026 angstrom
           Maximum rank =  0   Radius =  0.325 angstrom
                   Q00  =   0.124181

H          x = -1.741745  y =  0.481726  z =  0.854974 angstrom
           Maximum rank =  0   Radius =  0.325 angstrom
                   Q00  =   0.233633

H          x = -1.062745  y = -1.436274  z =  1.655974 angstrom
           Maximum rank =  0   Radius =  0.325 angstrom
                   Q00  =   0.264375

H          x = -0.863745  y = -2.834274  z =  0.620974 angstrom
           Maximum rank =  0   Radius =  0.325 angstrom
                   Q00  =   0.267100

H          x = -1.871745  y = -1.101274  z = -2.264026 angstrom
           Maximum rank =  0   Radius =  0.325 angstrom
                   Q00  =   0.264397

H          x = -1.328745  y = -2.629274  z = -1.633026 angstrom
           Maximum rank =  0   Radius =  0.325 angstrom
                   Q00  =   0.265550

H          x = -4.420432  y =  0.904538  z = -0.534096 angstrom
           Maximum rank =  0   Radius =  0.325 angstrom
                   Q00  =   0.113836

Total multipoles referred to origin at
           x =   0.000000,  y =    0.000000,  z =    0.000000 angstrom
                   Q00  =   1.000000

Finished at 13:48:17 on 28 Apr 2020

  DMA results are available in the Python driver through the
	  variable('DMA DISTRIBUTED MULTIPOLES')
  and
	  variable('DMA TOTAL MULTIPOLES')
  commands.

    Psi4 stopped on: Tuesday, 28 April 2020 01:48PM
    Psi4 wall time for execution: 0:11:51.91

*** Psi4 exiting successfully. Buy a developer a beer!
