                               Psi4 1.3.2 release

  ==> Input File <==

--------------------------------------------------------------------------
import numpy as np
set {scf_type pk
basis cc-pvdz
d_convergence 10
gdma_switch   0
gdma_limit    0
gdma_origin   [ 0.0,  0.0,  0.0 ]
}
molecule test {
    units Angstrom
    0 1
    --
    0 1
    C               -1.867943274424231    -1.600232390660425     2.408962592515004
    C               -0.456943274424231    -1.967232390660425     2.003962592515003
    O                0.148056725575769    -1.235232390660425     1.189962592515003
    O                0.034056725575769    -3.017232390660424     2.470962592515004
    H               -2.225943274424231    -0.778232390660424     1.784962592515003
    H               -1.853943274424231    -1.257232390660425     3.444962592515004
    H               -2.552273274424231    -2.457082390660424     2.322347292515003
    C               -0.497943274424231     1.664767609339576    -0.115037407484997
    C               -1.917943274424232     2.028767609339576    -0.495037407484997
    C                1.132056725575769     1.053767609339576    -1.857037407484997
    N                0.448056725575769     1.968767609339575    -1.189037407484997
    N                0.960056725575769    -0.229232390660424    -1.596037407484997
    N                1.981056725575769     1.429767609339575    -2.791037407484996
    H               -0.217943274424231     2.233767609339576     0.773962592515003
    H               -0.509943274424231     0.622767609339576     0.146962592515003
    H               -1.949943274424232     3.075767609339576    -0.779037407484997
    H               -2.537943274424231     1.881767609339575     0.388962592515003
    H                0.621056725575769     2.939767609339576    -1.399037407484996
    H                0.453056725575769    -0.494232390660424    -0.759037407484997
    H                1.372056725575769    -0.956232390660425    -2.164037407484996
    H                2.160056725575769     2.406767609339576    -2.958037407484996
    H                2.544056725575769     0.733767609339576    -3.251037407484996
    H               -2.314573274424231     1.454807609339575    -1.345480407484997

}
e, wfn = energy('scf', return_wfn=True)
gdma(wfn)
dmavals = variable('DMA DISTRIBUTED MULTIPOLES')
charges = np.array(dmavals)
print(charges)
np.save('SSI-062ASP-080ARG-1-dimer.npy', np.array(charges))--------------------------------------------------------------------------

*** tstart() called on ds3
*** at Mon Apr 27 16:03:53 2020

   => Loading Basis Set <=

    Name: CC-PVDZ
    Role: ORBITAL
    Keyword: BASIS
    atoms 1-2, 8-10  entry C          line   138 file /theoryfs2/ds/metcalf/miniconda2/envs/tf2gpu/share/psi4/basis/cc-pvdz.gbs
    atoms 3-4        entry O          line   198 file /theoryfs2/ds/metcalf/miniconda2/envs/tf2gpu/share/psi4/basis/cc-pvdz.gbs
    atoms 5-7, 14-23 entry H          line    22 file /theoryfs2/ds/metcalf/miniconda2/envs/tf2gpu/share/psi4/basis/cc-pvdz.gbs
    atoms 11-13      entry N          line   168 file /theoryfs2/ds/metcalf/miniconda2/envs/tf2gpu/share/psi4/basis/cc-pvdz.gbs

         ---------------------------------------------------------
                                   SCF
               by Justin Turney, Rob Parrish, Andy Simmonett
                          and Daniel G. A. Smith
                              RHF Reference
                        1 Threads,    500 MiB Core
         ---------------------------------------------------------

  ==> Geometry <==

    Molecular point group: c1
    Full point group: C1

    Geometry (in Angstrom), charge = 0, multiplicity = 1:

       Center              X                  Y                   Z               Mass
    ------------   -----------------  -----------------  -----------------  -----------------
         C           -1.867943274424    -1.600232390660     2.408962592515    12.000000000000
         C           -0.456943274424    -1.967232390660     2.003962592515    12.000000000000
         O            0.148056725576    -1.235232390660     1.189962592515    15.994914619570
         O            0.034056725576    -3.017232390660     2.470962592515    15.994914619570
         H           -2.225943274424    -0.778232390660     1.784962592515     1.007825032230
         H           -1.853943274424    -1.257232390660     3.444962592515     1.007825032230
         H           -2.552273274424    -2.457082390660     2.322347292515     1.007825032230
         C           -0.497943274424     1.664767609340    -0.115037407485    12.000000000000
         C           -1.917943274424     2.028767609340    -0.495037407485    12.000000000000
         C            1.132056725576     1.053767609340    -1.857037407485    12.000000000000
         N            0.448056725576     1.968767609340    -1.189037407485    14.003074004430
         N            0.960056725576    -0.229232390660    -1.596037407485    14.003074004430
         N            1.981056725576     1.429767609340    -2.791037407485    14.003074004430
         H           -0.217943274424     2.233767609340     0.773962592515     1.007825032230
         H           -0.509943274424     0.622767609340     0.146962592515     1.007825032230
         H           -1.949943274424     3.075767609340    -0.779037407485     1.007825032230
         H           -2.537943274424     1.881767609340     0.388962592515     1.007825032230
         H            0.621056725576     2.939767609340    -1.399037407485     1.007825032230
         H            0.453056725576    -0.494232390660    -0.759037407485     1.007825032230
         H            1.372056725576    -0.956232390660    -2.164037407485     1.007825032230
         H            2.160056725576     2.406767609340    -2.958037407485     1.007825032230
         H            2.544056725576     0.733767609340    -3.251037407485     1.007825032230
         H           -2.314573274424     1.454807609340    -1.345480407485     1.007825032230

  Running in c1 symmetry.

  Rotational constants: A =      0.06175  B =      0.01786  C =      0.01443 [cm^-1]
  Rotational constants: A =   1851.21831  B =    535.57288  C =    432.60454 [MHz]
  Nuclear repulsion =  537.041665219175911

  Charge       = 0
  Multiplicity = 1
  Electrons    = 80
  Nalpha       = 40
  Nbeta        = 40

  ==> Algorithm <==

  SCF Algorithm Type is PK.
  DIIS enabled.
  MOM disabled.
  Fractional occupation disabled.
  Guess Type is SAD.
  Energy threshold   = 1.00e-06
  Density threshold  = 1.00e-10
  Integral threshold = 0.00e+00

  ==> Primary Basis <==

  Basis Set: CC-PVDZ
    Blend: CC-PVDZ
    Number of shells: 99
    Number of basis function: 205
    Number of Cartesian functions: 215
    Spherical Harmonics?: true
    Max angular momentum: 2

  ==> Pre-Iterations <==

   -------------------------------------------------------
    Irrep   Nso     Nmo     Nalpha   Nbeta   Ndocc  Nsocc
   -------------------------------------------------------
     A        205     205       0       0       0       0
   -------------------------------------------------------
    Total     205     205      40      40      40       0
   -------------------------------------------------------

  ==> Integral Setup <==

  Using integral reordering PK algorithm.
  Sizing the integral batches needed.
  Building batch lookup table.
   Calculation information:
      Number of atoms:                  23
      Number of AO shells:              99
      Number of primitives:            285
      Number of atomic orbitals:       215
      Number of basis functions:       205

      Integral cutoff                 1.00e-12
      Number of threads:                 1

	Batch   1 pq = [       0,    9405] index = [             0,44231715] size =     44231715
	Batch   2 pq = [    9405,   13301] index = [      44231715,88464951] size =     44233236
	Batch   3 pq = [   13301,   16290] index = [      88464951,132690195] size =     44225244
	Batch   4 pq = [   16290,   18810] index = [     132690195,176917455] size =     44227260
	Batch   5 pq = [   18810,   21115] index = [     176917455,222932170] size =     46014715
  Task number: 21
  Buffer size: 11059200
  Buffer per thread: 2
  We computed 9771846 shell quartets total.
  Whereas there are 12253725 unique shell quartets.

  ==> DiskJK: Disk-Based J/K Matrices <==

    J tasked:                  Yes
    K tasked:                  Yes
    wK tasked:                  No
    Memory [MiB]:              375
    Schwarz Cutoff:          1E-12

    OpenMP threads:              1

  Minimum eigenvalue in the overlap matrix is 3.8701602811E-03.
  Using Symmetric Orthogonalization.

  SCF Guess: Superposition of Atomic Densities via on-the-fly atomic UHF.

  ==> Iterations <==

                        Total Energy        Delta E     RMS |[F,P]|

   @RHF iter SAD:  -508.74595290197567   -5.08746e+02   0.00000e+00
   @RHF iter   1:  -509.66135075431276   -9.15398e-01   3.96395e-03 DIIS
   @RHF iter   2:  -509.92684544486343   -2.65495e-01   2.06183e-03 DIIS
   @RHF iter   3:  -509.99293324657890   -6.60878e-02   3.79227e-04 DIIS
   @RHF iter   4:  -509.99683707021916   -3.90382e-03   1.37135e-04 DIIS
   @RHF iter   5:  -509.99732151858825   -4.84448e-04   2.61301e-05 DIIS
   @RHF iter   6:  -509.99734735956957   -2.58410e-05   1.30661e-05 DIIS
   @RHF iter   7:  -509.99735163907974   -4.27951e-06   3.40182e-06 DIIS
   @RHF iter   8:  -509.99735231069718   -6.71617e-07   1.67543e-06 DIIS
   @RHF iter   9:  -509.99735243450442   -1.23807e-07   5.89250e-07 DIIS
   @RHF iter  10:  -509.99735245840355   -2.38991e-08   2.02158e-07 DIIS
   @RHF iter  11:  -509.99735246079894   -2.39538e-09   5.11040e-08 DIIS
   @RHF iter  12:  -509.99735246093189   -1.32957e-10   1.58896e-08 DIIS
   @RHF iter  13:  -509.99735246094031   -8.41283e-12   4.92079e-09 DIIS
   @RHF iter  14:  -509.99735246093934    9.66338e-13   1.12399e-09 DIIS
   @RHF iter  15:  -509.99735246094440   -5.05906e-12   3.40550e-10 DIIS
   @RHF iter  16:  -509.99735246094087    3.52429e-12   1.33582e-10 DIIS
   @RHF iter  17:  -509.99735246094150   -6.25278e-13   4.91884e-11 DIIS
  Energy and wave function converged.

  ==> Post-Iterations <==

    Orbital Energies [Eh]
    ---------------------

    Doubly Occupied:

       1A    -20.398840     2A    -20.372697     3A    -15.676293
       4A    -15.660286     5A    -15.643548     6A    -11.463805
       7A    -11.294545     8A    -11.249060     9A    -11.237226
      10A    -11.156794    11A     -1.422129    12A     -1.284452
      13A     -1.276143    14A     -1.259445    15A     -1.160620
      16A     -1.065602    17A     -0.936584    18A     -0.906767
      19A     -0.884684    20A     -0.854607    21A     -0.814438
      22A     -0.740290    23A     -0.724489    24A     -0.694997
      25A     -0.672528    26A     -0.635710    27A     -0.619530
      28A     -0.581833    29A     -0.557139    30A     -0.535459
      31A     -0.522996    32A     -0.521010    33A     -0.513657
      34A     -0.491247    35A     -0.459796    36A     -0.451144
      37A     -0.425156    38A     -0.312844    39A     -0.289751
      40A     -0.286944

    Virtual:

      41A      0.096538    42A      0.134103    43A      0.144074
      44A      0.163636    45A      0.186516    46A      0.202408
      47A      0.217992    48A      0.242959    49A      0.249746
      50A      0.270868    51A      0.290657    52A      0.307284
      53A      0.321047    54A      0.347482    55A      0.367166
      56A      0.378389    57A      0.400992    58A      0.405800
      59A      0.456669    60A      0.474935    61A      0.488940
      62A      0.551965    63A      0.575395    64A      0.587886
      65A      0.609952    66A      0.617465    67A      0.628944
      68A      0.649023    69A      0.666044    70A      0.682004
      71A      0.689545    72A      0.698431    73A      0.716136
      74A      0.734718    75A      0.765871    76A      0.796125
      77A      0.819678    78A      0.834616    79A      0.848166
      80A      0.857865    81A      0.862574    82A      0.869019
      83A      0.877918    84A      0.902640    85A      0.909132
      86A      0.917439    87A      0.922333    88A      0.925304
      89A      0.933937    90A      0.943601    91A      0.961425
      92A      0.989643    93A      1.004068    94A      1.013072
      95A      1.037368    96A      1.039623    97A      1.079167
      98A      1.112703    99A      1.124340   100A      1.129223
     101A      1.191469   102A      1.225457   103A      1.233192
     104A      1.240337   105A      1.248995   106A      1.279369
     107A      1.289256   108A      1.316091   109A      1.333355
     110A      1.389864   111A      1.420671   112A      1.441433
     113A      1.458577   114A      1.467738   115A      1.477717
     116A      1.496020   117A      1.522449   118A      1.547486
     119A      1.562793   120A      1.578751   121A      1.598027
     122A      1.627424   123A      1.647735   124A      1.656971
     125A      1.670822   126A      1.689498   127A      1.735141
     128A      1.740613   129A      1.760938   130A      1.772362
     131A      1.779482   132A      1.821551   133A      1.839805
     134A      1.856450   135A      1.885317   136A      1.888968
     137A      1.923616   138A      1.927299   139A      1.933920
     140A      1.952863   141A      1.959670   142A      1.963022
     143A      1.973839   144A      1.986454   145A      1.998735
     146A      2.025915   147A      2.045164   148A      2.063396
     149A      2.096673   150A      2.107561   151A      2.129997
     152A      2.134303   153A      2.167429   154A      2.182755
     155A      2.236144   156A      2.248552   157A      2.282261
     158A      2.296055   159A      2.305825   160A      2.323590
     161A      2.338889   162A      2.380083   163A      2.384906
     164A      2.414826   165A      2.455108   166A      2.466030
     167A      2.475930   168A      2.508772   169A      2.514631
     170A      2.547775   171A      2.554836   172A      2.614884
     173A      2.620108   174A      2.627498   175A      2.663062
     176A      2.689019   177A      2.745987   178A      2.753879
     179A      2.776185   180A      2.823905   181A      2.832809
     182A      2.850113   183A      2.867369   184A      2.897551
     185A      2.902924   186A      2.908857   187A      2.931684
     188A      2.963348   189A      2.999159   190A      3.111813
     191A      3.132758   192A      3.163368   193A      3.172547
     194A      3.189681   195A      3.230692   196A      3.240707
     197A      3.269864   198A      3.507891   199A      3.671612
     200A      3.704555   201A      3.719064   202A      3.793079
     203A      3.953961   204A      3.993140   205A      4.079152

    Final Occupation by Irrep:
              A
    DOCC [    40 ]

  @RHF Final Energy:  -509.99735246094150

   => Energetics <=

    Nuclear Repulsion Energy =            537.0416652191759113
    One-Electron Energy =               -1761.9678618669745447
    Two-Electron Energy =                 714.9288441868571908
    Total Energy =                       -509.9973524609414426

Computation Completed

Properties will be evaluated at   0.000000,   0.000000,   0.000000 [a0]

Properties computed using the SCF density matrix

  Nuclear Dipole Moment: [e a0]
     X:    -6.5827      Y:     8.7884      Z:    -3.5225

  Electronic Dipole Moment: [e a0]
     X:     7.8289      Y:    -3.6449      Z:    -1.9775

  Dipole Moment: [e a0]
     X:     1.2462      Y:     5.1434      Z:    -5.5001     Total:     7.6327

  Dipole Moment: [D]
     X:     3.1676      Y:    13.0733      Z:   -13.9798     Total:    19.4005

*** tstop() called on ds3 at Mon Apr 27 16:05:41 2020
Module time:
	user time   =      77.09 seconds =       1.28 minutes
	system time =      35.81 seconds =       0.60 minutes
	total time  =        108 seconds =       1.80 minutes
Total time:
	user time   =      77.09 seconds =       1.28 minutes
	system time =      35.81 seconds =       0.60 minutes
	total time  =        108 seconds =       1.80 minutes
                                     G D M A

                                 by Anthony Stone

                           version 2.2.06, 22 June 2011

               Distributed Multipoles from Gaussian wavefunctions

Starting at 16:5:41 on 27 Apr 2020

Using SCF density matrix from file ./SSI/SSI-062ASP-080ARG-1-dimer.test.10735.fchk

                         Distributed Multipole Analysis

Standard DMA

Positions and radii in angstrom
Multipole moments in atomic units, ea_0^k for rank k

C          x = -1.867943  y = -1.600232  z =  2.408963 angstrom
           Maximum rank =  0   Radius =  0.650 angstrom
                   Q00  =  -0.280146

C          x = -0.456943  y = -1.967232  z =  2.003963 angstrom
           Maximum rank =  0   Radius =  0.650 angstrom
                   Q00  =   0.944065

O          x =  0.148057  y = -1.235232  z =  1.189963 angstrom
           Maximum rank =  0   Radius =  0.650 angstrom
                   Q00  =  -0.962522

O          x =  0.034057  y = -3.017232  z =  2.470963 angstrom
           Maximum rank =  0   Radius =  0.650 angstrom
                   Q00  =  -0.885174

H          x = -2.225943  y = -0.778232  z =  1.784963 angstrom
           Maximum rank =  0   Radius =  0.325 angstrom
                   Q00  =   0.035039

H          x = -1.853943  y = -1.257232  z =  3.444963 angstrom
           Maximum rank =  0   Radius =  0.325 angstrom
                   Q00  =   0.099678

H          x = -2.552273  y = -2.457082  z =  2.322347 angstrom
           Maximum rank =  0   Radius =  0.325 angstrom
                   Q00  =   0.095189

C          x = -0.497943  y =  1.664768  z = -0.115037 angstrom
           Maximum rank =  0   Radius =  0.650 angstrom
                   Q00  =   0.106173

C          x = -1.917943  y =  2.028768  z = -0.495037 angstrom
           Maximum rank =  0   Radius =  0.650 angstrom
                   Q00  =  -0.246790

C          x =  1.132057  y =  1.053768  z = -1.857037 angstrom
           Maximum rank =  0   Radius =  0.650 angstrom
                   Q00  =   1.075346

N          x =  0.448057  y =  1.968768  z = -1.189037 angstrom
           Maximum rank =  0   Radius =  0.650 angstrom
                   Q00  =  -0.506967

N          x =  0.960057  y = -0.229232  z = -1.596037 angstrom
           Maximum rank =  0   Radius =  0.650 angstrom
                   Q00  =  -0.554793

N          x =  1.981057  y =  1.429768  z = -2.791037 angstrom
           Maximum rank =  0   Radius =  0.650 angstrom
                   Q00  =  -0.588700

H          x = -0.217943  y =  2.233768  z =  0.773963 angstrom
           Maximum rank =  0   Radius =  0.325 angstrom
                   Q00  =   0.094050

H          x = -0.509943  y =  0.622768  z =  0.146963 angstrom
           Maximum rank =  0   Radius =  0.325 angstrom
                   Q00  =   0.061573

H          x = -1.949943  y =  3.075768  z = -0.779037 angstrom
           Maximum rank =  0   Radius =  0.325 angstrom
                   Q00  =   0.064453

H          x = -2.537943  y =  1.881768  z =  0.388963 angstrom
           Maximum rank =  0   Radius =  0.325 angstrom
                   Q00  =   0.117234

H          x =  0.621057  y =  2.939768  z = -1.399037 angstrom
           Maximum rank =  0   Radius =  0.325 angstrom
                   Q00  =   0.203871

H          x =  0.453057  y = -0.494232  z = -0.759037 angstrom
           Maximum rank =  0   Radius =  0.325 angstrom
                   Q00  =   0.289886

H          x =  1.372057  y = -0.956232  z = -2.164037 angstrom
           Maximum rank =  0   Radius =  0.325 angstrom
                   Q00  =   0.252191

H          x =  2.160057  y =  2.406768  z = -2.958037 angstrom
           Maximum rank =  0   Radius =  0.325 angstrom
                   Q00  =   0.245626

H          x =  2.544057  y =  0.733768  z = -3.251037 angstrom
           Maximum rank =  0   Radius =  0.325 angstrom
                   Q00  =   0.248679

H          x = -2.314573  y =  1.454808  z = -1.345480 angstrom
           Maximum rank =  0   Radius =  0.325 angstrom
                   Q00  =   0.092039

Total multipoles referred to origin at
           x =   0.000000,  y =    0.000000,  z =    0.000000 angstrom
                   Q00  =  -0.000000

Finished at 16:5:41 on 27 Apr 2020

  DMA results are available in the Python driver through the
	  variable('DMA DISTRIBUTED MULTIPOLES')
  and
	  variable('DMA TOTAL MULTIPOLES')
  commands.

    Psi4 stopped on: Monday, 27 April 2020 04:05PM
    Psi4 wall time for execution: 0:01:47.92

*** Psi4 exiting successfully. Buy a developer a beer!
