                               Psi4 1.3.2 release

  ==> Input File <==

--------------------------------------------------------------------------
import numpy as np
set {scf_type pk
basis cc-pvdz
d_convergence 10
gdma_switch   0
gdma_limit    0
gdma_origin   [ 0.0,  0.0,  0.0 ]
}
molecule test {
    units Angstrom
    0 1
    --
    0 1
    C               -1.421519920827595     0.411364854765553     1.870749186852249
    C               -1.629519920827595     1.725364854765553     2.604749186852249
    C               -0.325519920827596     0.488364854765553     0.860749186852249
    C               -0.491519920827596     1.273364854765553    -0.303250813147751
    C                0.864480079172404    -0.231635145234447     1.058749186852249
    C                0.542480079172404     1.381364854765553    -1.255250813147751
    C                1.884480079172404    -0.151635145234447     0.097749186852249
    C                1.730480079172404     0.659364854765553    -1.038250813147751
    O                2.743480079172405     0.731364854765553    -1.960250813147751
    H               -1.200519920827596    -0.367635145234447     2.599749186852249
    H               -2.332519920827596     0.129364854765553     1.339749186852249
    H               -1.789519920827596     2.501364854765553     1.854749186852249
    H               -1.417519920827595     1.813364854765553    -0.462250813147751
    H                0.993480079172404    -0.821635145234447     1.951749186852249
    H                0.416480079172404     1.993364854765553    -2.138250813147751
    H                2.803480079172405    -0.703635145234447     0.228749186852249
    H                2.537480079172405     1.333364854765553    -2.681250813147751
    H               -0.737980920827596     1.949174854765553     3.208957186852249
    H               -2.578369920827595     1.639494854765553     3.154577186852249
    C               -1.217519920827596    -2.631635145234447    -0.415250813147751
    C               -2.400519920827596    -3.216635145234448    -1.223250813147751
    H               -0.625519920827596    -1.967635145234447    -1.047250813147751
    H               -1.604519920827596    -2.066635145234447     0.430749186852249
    H               -0.581519920827596    -3.434635145234447    -0.044250813147751
    H               -2.993519920827595    -3.810635145234447    -0.529250813147751
    H               -2.024337920827596    -3.878895145234448    -2.016911813147751
    H               -3.065294120827595    -2.434465145234448    -1.618578813147751

}
e, wfn = energy('scf', return_wfn=True)
gdma(wfn)
dmavals = variable('DMA DISTRIBUTED MULTIPOLES')
charges = np.array(dmavals)
print(charges)
np.save('SSI-189TYR-232ALA-1-dimer.npy', np.array(charges))--------------------------------------------------------------------------

*** tstart() called on ds3
*** at Tue Apr 28 12:29:52 2020

   => Loading Basis Set <=

    Name: CC-PVDZ
    Role: ORBITAL
    Keyword: BASIS
    atoms 1-8, 20-21   entry C          line   138 file /theoryfs2/ds/metcalf/miniconda2/envs/tf2gpu/share/psi4/basis/cc-pvdz.gbs
    atoms 9            entry O          line   198 file /theoryfs2/ds/metcalf/miniconda2/envs/tf2gpu/share/psi4/basis/cc-pvdz.gbs
    atoms 10-19, 22-27 entry H          line    22 file /theoryfs2/ds/metcalf/miniconda2/envs/tf2gpu/share/psi4/basis/cc-pvdz.gbs

         ---------------------------------------------------------
                                   SCF
               by Justin Turney, Rob Parrish, Andy Simmonett
                          and Daniel G. A. Smith
                              RHF Reference
                        1 Threads,    500 MiB Core
         ---------------------------------------------------------

  ==> Geometry <==

    Molecular point group: c1
    Full point group: C1

    Geometry (in Angstrom), charge = 0, multiplicity = 1:

       Center              X                  Y                   Z               Mass
    ------------   -----------------  -----------------  -----------------  -----------------
         C           -1.421519920828     0.411364854766     1.870749186852    12.000000000000
         C           -1.629519920828     1.725364854766     2.604749186852    12.000000000000
         C           -0.325519920828     0.488364854766     0.860749186852    12.000000000000
         C           -0.491519920828     1.273364854766    -0.303250813148    12.000000000000
         C            0.864480079172    -0.231635145234     1.058749186852    12.000000000000
         C            0.542480079172     1.381364854766    -1.255250813148    12.000000000000
         C            1.884480079172    -0.151635145234     0.097749186852    12.000000000000
         C            1.730480079172     0.659364854766    -1.038250813148    12.000000000000
         O            2.743480079172     0.731364854766    -1.960250813148    15.994914619570
         H           -1.200519920828    -0.367635145234     2.599749186852     1.007825032230
         H           -2.332519920828     0.129364854766     1.339749186852     1.007825032230
         H           -1.789519920828     2.501364854766     1.854749186852     1.007825032230
         H           -1.417519920828     1.813364854766    -0.462250813148     1.007825032230
         H            0.993480079172    -0.821635145234     1.951749186852     1.007825032230
         H            0.416480079172     1.993364854766    -2.138250813148     1.007825032230
         H            2.803480079172    -0.703635145234     0.228749186852     1.007825032230
         H            2.537480079172     1.333364854766    -2.681250813148     1.007825032230
         H           -0.737980920828     1.949174854766     3.208957186852     1.007825032230
         H           -2.578369920828     1.639494854766     3.154577186852     1.007825032230
         C           -1.217519920828    -2.631635145234    -0.415250813148    12.000000000000
         C           -2.400519920828    -3.216635145234    -1.223250813148    12.000000000000
         H           -0.625519920828    -1.967635145234    -1.047250813148     1.007825032230
         H           -1.604519920828    -2.066635145234     0.430749186852     1.007825032230
         H           -0.581519920828    -3.434635145234    -0.044250813148     1.007825032230
         H           -2.993519920828    -3.810635145234    -0.529250813148     1.007825032230
         H           -2.024337920828    -3.878895145234    -2.016911813148     1.007825032230
         H           -3.065294120828    -2.434465145234    -1.618578813148     1.007825032230

  Running in c1 symmetry.

  Rotational constants: A =      0.03097  B =      0.02478  C =      0.01657 [cm^-1]
  Rotational constants: A =    928.55918  B =    743.01814  C =    496.85306 [MHz]
  Nuclear repulsion =  591.564611749847927

  Charge       = 0
  Multiplicity = 1
  Electrons    = 84
  Nalpha       = 42
  Nbeta        = 42

  ==> Algorithm <==

  SCF Algorithm Type is PK.
  DIIS enabled.
  MOM disabled.
  Fractional occupation disabled.
  Guess Type is SAD.
  Energy threshold   = 1.00e-06
  Density threshold  = 1.00e-10
  Integral threshold = 0.00e+00

  ==> Primary Basis <==

  Basis Set: CC-PVDZ
    Blend: CC-PVDZ
    Number of shells: 114
    Number of basis function: 234
    Number of Cartesian functions: 245
    Spherical Harmonics?: true
    Max angular momentum: 2

  ==> Pre-Iterations <==

   -------------------------------------------------------
    Irrep   Nso     Nmo     Nalpha   Nbeta   Ndocc  Nsocc
   -------------------------------------------------------
     A        234     234       0       0       0       0
   -------------------------------------------------------
    Total     234     234      42      42      42       0
   -------------------------------------------------------

  ==> Integral Setup <==

  Using integral reordering PK algorithm.
  Sizing the integral batches needed.
  Building batch lookup table.
   Calculation information:
      Number of atoms:                  27
      Number of AO shells:             114
      Number of primitives:            322
      Number of atomic orbitals:       245
      Number of basis functions:       234

      Integral cutoff                 1.00e-12
      Number of threads:                 1

	Batch   1 pq = [       0,    9405] index = [             0,44231715] size =     44231715
	Batch   2 pq = [    9405,   13301] index = [      44231715,88464951] size =     44233236
	Batch   3 pq = [   13301,   16290] index = [      88464951,132690195] size =     44225244
	Batch   4 pq = [   16290,   18810] index = [     132690195,176917455] size =     44227260
	Batch   5 pq = [   18810,   21030] index = [     176917455,221140965] size =     44223510
	Batch   6 pq = [   21030,   23037] index = [     221140965,265363203] size =     44222238
	Batch   7 pq = [   23037,   24883] index = [     265363203,309594286] size =     44231083
	Batch   8 pq = [   24883,   26601] index = [     309594286,353819901] size =     44225615
	Batch   9 pq = [   26601,   27495] index = [     353819901,378001260] size =     24181359
  Task number: 35
  Buffer size: 11059200
  Buffer per thread: 2
  We computed 21046979 shell quartets total.
  Whereas there are 21487290 unique shell quartets.

  ==> DiskJK: Disk-Based J/K Matrices <==

    J tasked:                  Yes
    K tasked:                  Yes
    wK tasked:                  No
    Memory [MiB]:              375
    Schwarz Cutoff:          1E-12

    OpenMP threads:              1

  Minimum eigenvalue in the overlap matrix is 3.5466900500E-04.
  Using Symmetric Orthogonalization.

  SCF Guess: Superposition of Atomic Densities via on-the-fly atomic UHF.

  ==> Iterations <==

                        Total Energy        Delta E     RMS |[F,P]|

   @RHF iter SAD:  -461.56976017910387   -4.61570e+02   0.00000e+00
   @RHF iter   1:  -462.60407827356602   -1.03432e+00   2.79404e-03 DIIS
   @RHF iter   2:  -462.84154085090472   -2.37463e-01   1.19596e-03 DIIS
   @RHF iter   3:  -462.88100754366224   -3.94667e-02   2.83950e-04 DIIS
   @RHF iter   4:  -462.88436995529287   -3.36241e-03   1.26534e-04 DIIS
   @RHF iter   5:  -462.88488482331172   -5.14868e-04   1.90859e-05 DIIS
   @RHF iter   6:  -462.88490435519878   -1.95319e-05   5.81157e-06 DIIS
   @RHF iter   7:  -462.88490591822961   -1.56303e-06   2.03591e-06 DIIS
   @RHF iter   8:  -462.88490613646684   -2.18237e-07   6.56460e-07 DIIS
   @RHF iter   9:  -462.88490616274203   -2.62752e-08   1.84081e-07 DIIS
   @RHF iter  10:  -462.88490616476372   -2.02169e-09   5.85042e-08 DIIS
   @RHF iter  11:  -462.88490616498990   -2.26180e-10   2.12917e-08 DIIS
   @RHF iter  12:  -462.88490616501906   -2.91607e-11   8.68249e-09 DIIS
   @RHF iter  13:  -462.88490616502662   -7.56017e-12   4.15891e-09 DIIS
   @RHF iter  14:  -462.88490616503287   -6.25278e-12   1.64611e-09 DIIS
   @RHF iter  15:  -462.88490616503276    1.13687e-13   6.88473e-10 DIIS
   @RHF iter  16:  -462.88490616503259    1.70530e-13   2.04940e-10 DIIS
   @RHF iter  17:  -462.88490616503395   -1.36424e-12   7.96459e-11 DIIS
  Energy and wave function converged.

  ==> Post-Iterations <==

    Orbital Energies [Eh]
    ---------------------

    Doubly Occupied:

       1A    -20.582118     2A    -11.303647     3A    -11.244132
       4A    -11.240562     5A    -11.239988     6A    -11.233298
       7A    -11.232266     8A    -11.225531     9A    -11.222243
      10A    -11.213968    11A    -11.207697    12A     -1.395479
      13A     -1.145899    14A     -1.060682    15A     -1.014687
      16A     -1.005751    17A     -0.973248    18A     -0.859242
      19A     -0.843155    20A     -0.830000    21A     -0.786807
      22A     -0.729288    23A     -0.669425    24A     -0.647188
      25A     -0.617617    26A     -0.596741    27A     -0.591314
      28A     -0.586810    29A     -0.585934    30A     -0.579790
      31A     -0.574534    32A     -0.537742    33A     -0.523157
      34A     -0.500674    35A     -0.489947    36A     -0.480962
      37A     -0.479424    38A     -0.476993    39A     -0.471299
      40A     -0.455057    41A     -0.336906    42A     -0.297622

    Virtual:

      43A      0.124650    44A      0.150106    45A      0.178705
      46A      0.180773    47A      0.195590    48A      0.206346
      49A      0.216881    50A      0.237241    51A      0.247968
      52A      0.253541    53A      0.257520    54A      0.267499
      55A      0.273616    56A      0.282786    57A      0.287647
      58A      0.301251    59A      0.312891    60A      0.327874
      61A      0.357354    62A      0.381620    63A      0.395593
      64A      0.411342    65A      0.426690    66A      0.472070
      67A      0.481401    68A      0.491749    69A      0.517457
      70A      0.577092    71A      0.595521    72A      0.604793
      73A      0.606446    74A      0.618598    75A      0.640658
      76A      0.644985    77A      0.658154    78A      0.664630
      79A      0.672414    80A      0.704956    81A      0.713085
      82A      0.719295    83A      0.731118    84A      0.741152
      85A      0.750489    86A      0.765321    87A      0.782994
      88A      0.799144    89A      0.807962    90A      0.826765
      91A      0.840299    92A      0.860785    93A      0.872109
      94A      0.879072    95A      0.882649    96A      0.891474
      97A      0.896589    98A      0.898182    99A      0.898269
     100A      0.912067   101A      0.916427   102A      0.921020
     103A      0.925578   104A      0.942679   105A      0.948978
     106A      0.954802   107A      0.955965   108A      0.983030
     109A      0.990954   110A      1.000895   111A      1.020788
     112A      1.039527   113A      1.055898   114A      1.085203
     115A      1.110970   116A      1.126303   117A      1.133093
     118A      1.142314   119A      1.152707   120A      1.185601
     121A      1.206921   122A      1.224785   123A      1.239324
     124A      1.262454   125A      1.276816   126A      1.288829
     127A      1.296703   128A      1.300218   129A      1.306220
     130A      1.353799   131A      1.362778   132A      1.381415
     133A      1.423860   134A      1.447434   135A      1.475689
     136A      1.480712   137A      1.492447   138A      1.503499
     139A      1.539838   140A      1.595410   141A      1.603426
     142A      1.623345   143A      1.637242   144A      1.669472
     145A      1.686665   146A      1.692867   147A      1.701929
     148A      1.726563   149A      1.754312   150A      1.761614
     151A      1.788224   152A      1.842140   153A      1.847187
     154A      1.860559   155A      1.868247   156A      1.871608
     157A      1.879750   158A      1.885548   159A      1.893752
     160A      1.900878   161A      1.908932   162A      1.917327
     163A      1.929348   164A      1.936171   165A      1.943807
     166A      1.951840   167A      1.960731   168A      1.967188
     169A      1.968418   170A      1.977882   171A      1.989570
     172A      2.008849   173A      2.015571   174A      2.023049
     175A      2.035465   176A      2.043066   177A      2.056010
     178A      2.074639   179A      2.093324   180A      2.104609
     181A      2.110060   182A      2.119624   183A      2.136192
     184A      2.150135   185A      2.181937   186A      2.192949
     187A      2.230930   188A      2.241550   189A      2.264032
     190A      2.293615   191A      2.309371   192A      2.315084
     193A      2.345783   194A      2.361783   195A      2.368170
     196A      2.430406   197A      2.452612   198A      2.454428
     199A      2.462777   200A      2.483951   201A      2.491864
     202A      2.516972   203A      2.526020   204A      2.534562
     205A      2.568942   206A      2.580015   207A      2.591699
     208A      2.628157   209A      2.645337   210A      2.739090
     211A      2.766106   212A      2.773123   213A      2.784885
     214A      2.796369   215A      2.818676   216A      2.847807
     217A      2.850077   218A      2.855512   219A      2.870470
     220A      2.907064   221A      2.938455   222A      2.957798
     223A      2.965943   224A      2.994079   225A      3.015096
     226A      3.064395   227A      3.161957   228A      3.243520
     229A      3.262077   230A      3.342333   231A      3.559371
     232A      3.653331   233A      3.948311   234A      4.183068

    Final Occupation by Irrep:
              A
    DOCC [    42 ]

  @RHF Final Energy:  -462.88490616503395

   => Energetics <=

    Nuclear Repulsion Energy =            591.5646117498479271
    One-Electron Energy =               -1800.7213842820488026
    Two-Electron Energy =                 746.2718663671669219
    Total Energy =                       -462.8849061650339536

Computation Completed

Properties will be evaluated at   0.000000,   0.000000,   0.000000 [a0]

Properties computed using the SCF density matrix

  Nuclear Dipole Moment: [e a0]
     X:   -13.2991      Y:    -7.6147      Z:     3.9570

  Electronic Dipole Moment: [e a0]
     X:    12.9142      Y:     8.0090      Z:    -4.0981

  Dipole Moment: [e a0]
     X:    -0.3849      Y:     0.3944      Z:    -0.1410     Total:     0.5688

  Dipole Moment: [D]
     X:    -0.9783      Y:     1.0024      Z:    -0.3584     Total:     1.4458

*** tstop() called on ds3 at Tue Apr 28 12:34:30 2020
Module time:
	user time   =     152.79 seconds =       2.55 minutes
	system time =      53.21 seconds =       0.89 minutes
	total time  =        278 seconds =       4.63 minutes
Total time:
	user time   =     152.79 seconds =       2.55 minutes
	system time =      53.21 seconds =       0.89 minutes
	total time  =        278 seconds =       4.63 minutes
                                     G D M A

                                 by Anthony Stone

                           version 2.2.06, 22 June 2011

               Distributed Multipoles from Gaussian wavefunctions

Starting at 12:34:30 on 28 Apr 2020

Using SCF density matrix from file ./SSI/SSI-189TYR-232ALA-1-dimer.test.14988.fchk

                         Distributed Multipole Analysis

Standard DMA

Positions and radii in angstrom
Multipole moments in atomic units, ea_0^k for rank k

C          x = -1.421520  y =  0.411365  z =  1.870749 angstrom
           Maximum rank =  0   Radius =  0.650 angstrom
                   Q00  =  -0.044036

C          x = -1.629520  y =  1.725365  z =  2.604749 angstrom
           Maximum rank =  0   Radius =  0.650 angstrom
                   Q00  =  -0.188578

C          x = -0.325520  y =  0.488365  z =  0.860749 angstrom
           Maximum rank =  0   Radius =  0.650 angstrom
                   Q00  =  -0.128937

C          x = -0.491520  y =  1.273365  z = -0.303251 angstrom
           Maximum rank =  0   Radius =  0.650 angstrom
                   Q00  =  -0.086514

C          x =  0.864480  y = -0.231635  z =  1.058749 angstrom
           Maximum rank =  0   Radius =  0.650 angstrom
                   Q00  =  -0.044394

C          x =  0.542480  y =  1.381365  z = -1.255251 angstrom
           Maximum rank =  0   Radius =  0.650 angstrom
                   Q00  =  -0.183318

C          x =  1.884480  y = -0.151635  z =  0.097749 angstrom
           Maximum rank =  0   Radius =  0.650 angstrom
                   Q00  =  -0.067554

C          x =  1.730480  y =  0.659365  z = -1.038251 angstrom
           Maximum rank =  0   Radius =  0.650 angstrom
                   Q00  =   0.379007

O          x =  2.743480  y =  0.731365  z = -1.960251 angstrom
           Maximum rank =  0   Radius =  0.650 angstrom
                   Q00  =  -0.674608

H          x = -1.200520  y = -0.367635  z =  2.599749 angstrom
           Maximum rank =  0   Radius =  0.325 angstrom
                   Q00  =   0.060582

H          x = -2.332520  y =  0.129365  z =  1.339749 angstrom
           Maximum rank =  0   Radius =  0.325 angstrom
                   Q00  =   0.060492

H          x = -1.789520  y =  2.501365  z =  1.854749 angstrom
           Maximum rank =  0   Radius =  0.325 angstrom
                   Q00  =   0.077452

H          x = -1.417520  y =  1.813365  z = -0.462251 angstrom
           Maximum rank =  0   Radius =  0.325 angstrom
                   Q00  =   0.071908

H          x =  0.993480  y = -0.821635  z =  1.951749 angstrom
           Maximum rank =  0   Radius =  0.325 angstrom
                   Q00  =   0.068404

H          x =  0.416480  y =  1.993365  z = -2.138251 angstrom
           Maximum rank =  0   Radius =  0.325 angstrom
                   Q00  =   0.076852

H          x =  2.803480  y = -0.703635  z =  0.228749 angstrom
           Maximum rank =  0   Radius =  0.325 angstrom
                   Q00  =   0.082518

H          x =  2.537480  y =  1.333365  z = -2.681251 angstrom
           Maximum rank =  0   Radius =  0.325 angstrom
                   Q00  =   0.406379

H          x = -0.737981  y =  1.949175  z =  3.208957 angstrom
           Maximum rank =  0   Radius =  0.325 angstrom
                   Q00  =   0.074656

H          x = -2.578370  y =  1.639495  z =  3.154577 angstrom
           Maximum rank =  0   Radius =  0.325 angstrom
                   Q00  =   0.067415

C          x = -1.217520  y = -2.631635  z = -0.415251 angstrom
           Maximum rank =  0   Radius =  0.650 angstrom
                   Q00  =  -0.235204

C          x = -2.400520  y = -3.216635  z = -1.223251 angstrom
           Maximum rank =  0   Radius =  0.650 angstrom
                   Q00  =  -0.244201

H          x = -0.625520  y = -1.967635  z = -1.047251 angstrom
           Maximum rank =  0   Radius =  0.325 angstrom
                   Q00  =   0.087923

H          x = -1.604520  y = -2.066635  z =  0.430749 angstrom
           Maximum rank =  0   Radius =  0.325 angstrom
                   Q00  =   0.075487

H          x = -0.581520  y = -3.434635  z = -0.044251 angstrom
           Maximum rank =  0   Radius =  0.325 angstrom
                   Q00  =   0.076525

H          x = -2.993520  y = -3.810635  z = -0.529251 angstrom
           Maximum rank =  0   Radius =  0.325 angstrom
                   Q00  =   0.072141

H          x = -2.024338  y = -3.878895  z = -2.016912 angstrom
           Maximum rank =  0   Radius =  0.325 angstrom
                   Q00  =   0.080490

H          x = -3.065294  y = -2.434465  z = -1.618579 angstrom
           Maximum rank =  0   Radius =  0.325 angstrom
                   Q00  =   0.079112

Total multipoles referred to origin at
           x =   0.000000,  y =    0.000000,  z =    0.000000 angstrom
                   Q00  =  -0.000000

Finished at 12:34:31 on 28 Apr 2020

  DMA results are available in the Python driver through the
	  variable('DMA DISTRIBUTED MULTIPOLES')
  and
	  variable('DMA TOTAL MULTIPOLES')
  commands.

    Psi4 stopped on: Tuesday, 28 April 2020 12:34PM
    Psi4 wall time for execution: 0:04:38.93

*** Psi4 exiting successfully. Buy a developer a beer!
