                               Psi4 1.3.2 release

  ==> Input File <==

--------------------------------------------------------------------------
import numpy as np
set {scf_type pk
basis cc-pvdz
d_convergence 10
gdma_switch   0
gdma_limit    0
gdma_origin   [ 0.0,  0.0,  0.0 ]
}
molecule test {
    units Angstrom
    0 1
    --
    0 1
    C                2.073030356801617     0.442436270787968    -2.700133585986325
    C                2.041030356801617     1.437436270787968    -1.548133585986325
    O                1.078030356801617     1.388436270787968    -0.750133585986325
    O                2.975030356801617     2.264436270787968    -1.446133585986325
    H                3.020030356801616     0.520436270787968    -3.231133585986326
    H                1.278030356801617     0.688436270787968    -3.408133585986326
    H                1.926320356801617    -0.590337729212032    -2.351053585986326
    C               -1.678969643198383    -2.984563729212032     1.928866414013675
    C               -1.627969643198383    -0.644563729212032     1.121866414013675
    N               -0.399969643198383    -0.788563729212032     0.659866414013675
    N               -2.251969643198383    -1.650563729212032     1.718866414013675
    N               -2.225969643198383     0.520436270787968     0.994866414013675
    H                0.106030356801617    -1.654563729212032     0.768866414013675
    H                0.072030356801617     0.009436270787968     0.228866414013675
    H               -3.071969643198384    -1.419563729212032     2.283866414013674
    H               -3.128969643198383     0.669436270787968     1.417866414013675
    H               -1.725969643198383     1.292436270787968     0.580866414013675
    H               -1.314969643198383    -3.395563729212032     0.983866414013675
    H               -2.456969643198384    -3.652563729212032     2.300866414013675
    H               -0.863489643198383    -2.954280729212032     2.666476414013675

}
e, wfn = energy('scf', return_wfn=True)
gdma(wfn)
dmavals = variable('DMA DISTRIBUTED MULTIPOLES')
charges = np.array(dmavals)
print(charges)
np.save('SSI-057GLU-061ARG-1-dimer.npy', np.array(charges))--------------------------------------------------------------------------

*** tstart() called on ds3
*** at Mon Apr 27 05:37:53 2020

   => Loading Basis Set <=

    Name: CC-PVDZ
    Role: ORBITAL
    Keyword: BASIS
    atoms 1-2, 8-9   entry C          line   138 file /theoryfs2/ds/metcalf/miniconda2/envs/tf2gpu/share/psi4/basis/cc-pvdz.gbs
    atoms 3-4        entry O          line   198 file /theoryfs2/ds/metcalf/miniconda2/envs/tf2gpu/share/psi4/basis/cc-pvdz.gbs
    atoms 5-7, 13-20 entry H          line    22 file /theoryfs2/ds/metcalf/miniconda2/envs/tf2gpu/share/psi4/basis/cc-pvdz.gbs
    atoms 10-12      entry N          line   168 file /theoryfs2/ds/metcalf/miniconda2/envs/tf2gpu/share/psi4/basis/cc-pvdz.gbs

         ---------------------------------------------------------
                                   SCF
               by Justin Turney, Rob Parrish, Andy Simmonett
                          and Daniel G. A. Smith
                              RHF Reference
                        1 Threads,    500 MiB Core
         ---------------------------------------------------------

  ==> Geometry <==

    Molecular point group: c1
    Full point group: C1

    Geometry (in Angstrom), charge = 0, multiplicity = 1:

       Center              X                  Y                   Z               Mass
    ------------   -----------------  -----------------  -----------------  -----------------
         C            2.073030356802     0.442436270788    -2.700133585986    12.000000000000
         C            2.041030356802     1.437436270788    -1.548133585986    12.000000000000
         O            1.078030356802     1.388436270788    -0.750133585986    15.994914619570
         O            2.975030356802     2.264436270788    -1.446133585986    15.994914619570
         H            3.020030356802     0.520436270788    -3.231133585986     1.007825032230
         H            1.278030356802     0.688436270788    -3.408133585986     1.007825032230
         H            1.926320356802    -0.590337729212    -2.351053585986     1.007825032230
         C           -1.678969643198    -2.984563729212     1.928866414014    12.000000000000
         C           -1.627969643198    -0.644563729212     1.121866414014    12.000000000000
         N           -0.399969643198    -0.788563729212     0.659866414014    14.003074004430
         N           -2.251969643198    -1.650563729212     1.718866414014    14.003074004430
         N           -2.225969643198     0.520436270788     0.994866414014    14.003074004430
         H            0.106030356802    -1.654563729212     0.768866414014     1.007825032230
         H            0.072030356802     0.009436270788     0.228866414014     1.007825032230
         H           -3.071969643198    -1.419563729212     2.283866414014     1.007825032230
         H           -3.128969643198     0.669436270788     1.417866414014     1.007825032230
         H           -1.725969643198     1.292436270788     0.580866414014     1.007825032230
         H           -1.314969643198    -3.395563729212     0.983866414014     1.007825032230
         H           -2.456969643198    -3.652563729212     2.300866414014     1.007825032230
         H           -0.863489643198    -2.954280729212     2.666476414014     1.007825032230

  Running in c1 symmetry.

  Rotational constants: A =      0.11249  B =      0.01572  C =      0.01458 [cm^-1]
  Rotational constants: A =   3372.23511  B =    471.14709  C =    437.16926 [MHz]
  Nuclear repulsion =  436.846426274535531

  Charge       = 0
  Multiplicity = 1
  Electrons    = 72
  Nalpha       = 36
  Nbeta        = 36

  ==> Algorithm <==

  SCF Algorithm Type is PK.
  DIIS enabled.
  MOM disabled.
  Fractional occupation disabled.
  Guess Type is SAD.
  Energy threshold   = 1.00e-06
  Density threshold  = 1.00e-10
  Integral threshold = 0.00e+00

  ==> Primary Basis <==

  Basis Set: CC-PVDZ
    Blend: CC-PVDZ
    Number of shells: 87
    Number of basis function: 181
    Number of Cartesian functions: 190
    Spherical Harmonics?: true
    Max angular momentum: 2

  ==> Pre-Iterations <==

   -------------------------------------------------------
    Irrep   Nso     Nmo     Nalpha   Nbeta   Ndocc  Nsocc
   -------------------------------------------------------
     A        181     181       0       0       0       0
   -------------------------------------------------------
    Total     181     181      36      36      36       0
   -------------------------------------------------------

  ==> Integral Setup <==

  Using integral reordering PK algorithm.
  Sizing the integral batches needed.
  Building batch lookup table.
   Calculation information:
      Number of atoms:                  20
      Number of AO shells:              87
      Number of primitives:            253
      Number of atomic orbitals:       190
      Number of basis functions:       181

      Integral cutoff                 1.00e-12
      Number of threads:                 1

	Batch   1 pq = [       0,    9405] index = [             0,44231715] size =     44231715
	Batch   2 pq = [    9405,   13301] index = [      44231715,88464951] size =     44233236
	Batch   3 pq = [   13301,   16471] index = [      88464951,135655156] size =     47190205
  Task number: 13
  Buffer size: 11059200
  Buffer per thread: 2
  We computed 5141643 shell quartets total.
  Whereas there are 7328706 unique shell quartets.

  ==> DiskJK: Disk-Based J/K Matrices <==

    J tasked:                  Yes
    K tasked:                  Yes
    wK tasked:                  No
    Memory [MiB]:              375
    Schwarz Cutoff:          1E-12

    OpenMP threads:              1

  Minimum eigenvalue in the overlap matrix is 3.8884942146E-03.
  Using Symmetric Orthogonalization.

  SCF Guess: Superposition of Atomic Densities via on-the-fly atomic UHF.

  ==> Iterations <==

                        Total Energy        Delta E     RMS |[F,P]|

   @RHF iter SAD:  -469.62616410685973   -4.69626e+02   0.00000e+00
   @RHF iter   1:  -470.66854796199465   -1.04238e+00   4.28571e-03 DIIS
   @RHF iter   2:  -470.89861614158099   -2.30068e-01   2.28075e-03 DIIS
   @RHF iter   3:  -470.96010284843624   -6.14867e-02   4.03201e-04 DIIS
   @RHF iter   4:  -470.96350755415978   -3.40471e-03   1.50392e-04 DIIS
   @RHF iter   5:  -470.96395536146304   -4.47807e-04   3.04081e-05 DIIS
   @RHF iter   6:  -470.96398134601623   -2.59846e-05   1.59575e-05 DIIS
   @RHF iter   7:  -470.96398657427807   -5.22826e-06   4.01740e-06 DIIS
   @RHF iter   8:  -470.96398736769544   -7.93417e-07   1.86809e-06 DIIS
   @RHF iter   9:  -470.96398749869905   -1.31004e-07   6.73787e-07 DIIS
   @RHF iter  10:  -470.96398752299547   -2.42964e-08   2.16668e-07 DIIS
   @RHF iter  11:  -470.96398752512448   -2.12901e-09   5.89570e-08 DIIS
   @RHF iter  12:  -470.96398752523140   -1.06922e-10   2.00208e-08 DIIS
   @RHF iter  13:  -470.96398752524402   -1.26192e-11   5.20821e-09 DIIS
   @RHF iter  14:  -470.96398752524306    9.66338e-13   1.51126e-09 DIIS
   @RHF iter  15:  -470.96398752524686   -3.80851e-12   5.56309e-10 DIIS
   @RHF iter  16:  -470.96398752524669    1.70530e-13   1.81110e-10 DIIS
   @RHF iter  17:  -470.96398752524749   -7.95808e-13   7.25282e-11 DIIS
  Energy and wave function converged.

  ==> Post-Iterations <==

    Orbital Energies [Eh]
    ---------------------

    Doubly Occupied:

       1A    -20.395615     2A    -20.375282     3A    -15.677695
       4A    -15.665924     5A    -15.643123     6A    -11.465024
       7A    -11.348476     8A    -11.237762     9A    -11.155595
      10A     -1.423585    11A     -1.288182    12A     -1.273508
      13A     -1.256508    14A     -1.159472    15A     -1.038833
      16A     -0.913268    17A     -0.903794    18A     -0.854141
      19A     -0.817972    20A     -0.736463    21A     -0.720934
      22A     -0.710696    23A     -0.686589    24A     -0.636394
      25A     -0.626908    26A     -0.618467    27A     -0.529155
      28A     -0.520203    29A     -0.516079    30A     -0.485051
      31A     -0.475536    32A     -0.458625    33A     -0.423875
      34A     -0.311211    35A     -0.290715    36A     -0.286570

    Virtual:

      37A      0.096553    38A      0.128720    39A      0.143838
      40A      0.153465    41A      0.200537    42A      0.205670
      43A      0.206441    44A      0.214504    45A      0.256585
      46A      0.282902    47A      0.291440    48A      0.325715
      49A      0.346457    50A      0.371831    51A      0.400563
      52A      0.449347    53A      0.458557    54A      0.473493
      55A      0.551084    56A      0.570712    57A      0.584134
      58A      0.611978    59A      0.620033    60A      0.640515
      61A      0.656012    62A      0.669535    63A      0.678705
      64A      0.686952    65A      0.719821    66A      0.754965
      67A      0.777997    68A      0.797779    69A      0.803695
      70A      0.809495    71A      0.837637    72A      0.847351
      73A      0.861559    74A      0.894144    75A      0.910311
      76A      0.917435    77A      0.923117    78A      0.934496
      79A      0.946183    80A      0.953565    81A      0.964462
      82A      0.989434    83A      1.018543    84A      1.022351
      85A      1.031882    86A      1.080172    87A      1.106778
      88A      1.124619    89A      1.162793    90A      1.209896
      91A      1.235745    92A      1.237533    93A      1.240490
      94A      1.259904    95A      1.305765    96A      1.324185
      97A      1.348284    98A      1.364265    99A      1.415867
     100A      1.438354   101A      1.457153   102A      1.469559
     103A      1.511057   104A      1.520274   105A      1.559479
     106A      1.574653   107A      1.593877   108A      1.602394
     109A      1.617978   110A      1.622728   111A      1.651863
     112A      1.689223   113A      1.731819   114A      1.741242
     115A      1.743596   116A      1.780104   117A      1.812101
     118A      1.821208   119A      1.847735   120A      1.862336
     121A      1.883046   122A      1.901061   123A      1.915153
     124A      1.939554   125A      1.940730   126A      1.978200
     127A      1.989769   128A      2.003846   129A      2.010842
     130A      2.057474   131A      2.099053   132A      2.105242
     133A      2.142221   134A      2.156890   135A      2.182702
     136A      2.204499   137A      2.243529   138A      2.265169
     139A      2.294246   140A      2.305602   141A      2.324850
     142A      2.363975   143A      2.382696   144A      2.395011
     145A      2.452076   146A      2.461079   147A      2.473023
     148A      2.508469   149A      2.546157   150A      2.552118
     151A      2.581370   152A      2.615496   153A      2.654015
     154A      2.673311   155A      2.682709   156A      2.695690
     157A      2.720030   158A      2.812795   159A      2.825061
     160A      2.849665   161A      2.883636   162A      2.898366
     163A      2.921615   164A      2.939574   165A      2.977099
     166A      3.001640   167A      3.115285   168A      3.146737
     169A      3.171642   170A      3.176202   171A      3.222586
     172A      3.236836   173A      3.269486   174A      3.506859
     175A      3.664098   176A      3.669580   177A      3.706110
     178A      3.779883   179A      3.939994   180A      3.988752
     181A      4.068001

    Final Occupation by Irrep:
              A
    DOCC [    36 ]

  @RHF Final Energy:  -470.96398752524749

   => Energetics <=

    Nuclear Repulsion Energy =            436.8464262745355313
    One-Electron Energy =               -1509.7663651305610983
    Two-Electron Energy =                 601.9559513307780207
    Total Energy =                       -470.9639875252474894

Computation Completed

Properties will be evaluated at   0.000000,   0.000000,   0.000000 [a0]

Properties computed using the SCF density matrix

  Nuclear Dipole Moment: [e a0]
     X:    -5.7411      Y:    -9.8078      Z:     2.0807

  Electronic Dipole Moment: [e a0]
     X:    -0.1032      Y:     5.4148      Z:     1.5404

  Dipole Moment: [e a0]
     X:    -5.8443      Y:    -4.3930      Z:     3.6211     Total:     8.1589

  Dipole Moment: [D]
     X:   -14.8548      Y:   -11.1660      Z:     9.2039     Total:    20.7378

*** tstop() called on ds3 at Mon Apr 27 05:38:47 2020
Module time:
	user time   =      35.87 seconds =       0.60 minutes
	system time =      19.32 seconds =       0.32 minutes
	total time  =         54 seconds =       0.90 minutes
Total time:
	user time   =      35.87 seconds =       0.60 minutes
	system time =      19.32 seconds =       0.32 minutes
	total time  =         54 seconds =       0.90 minutes
                                     G D M A

                                 by Anthony Stone

                           version 2.2.06, 22 June 2011

               Distributed Multipoles from Gaussian wavefunctions

Starting at 5:38:47 on 27 Apr 2020

Using SCF density matrix from file ./SSI/SSI-057GLU-061ARG-1-dimer.test.29092.fchk

                         Distributed Multipole Analysis

Standard DMA

Positions and radii in angstrom
Multipole moments in atomic units, ea_0^k for rank k

C          x =  2.073030  y =  0.442436  z = -2.700134 angstrom
           Maximum rank =  0   Radius =  0.650 angstrom
                   Q00  =  -0.276587

C          x =  2.041030  y =  1.437436  z = -1.548134 angstrom
           Maximum rank =  0   Radius =  0.650 angstrom
                   Q00  =   0.934258

O          x =  1.078030  y =  1.388436  z = -0.750134 angstrom
           Maximum rank =  0   Radius =  0.650 angstrom
                   Q00  =  -0.985082

O          x =  2.975030  y =  2.264436  z = -1.446134 angstrom
           Maximum rank =  0   Radius =  0.650 angstrom
                   Q00  =  -0.876539

H          x =  3.020030  y =  0.520436  z = -3.231134 angstrom
           Maximum rank =  0   Radius =  0.325 angstrom
                   Q00  =   0.084964

H          x =  1.278030  y =  0.688436  z = -3.408134 angstrom
           Maximum rank =  0   Radius =  0.325 angstrom
                   Q00  =   0.084440

H          x =  1.926320  y = -0.590338  z = -2.351054 angstrom
           Maximum rank =  0   Radius =  0.325 angstrom
                   Q00  =   0.050506

C          x = -1.678970  y = -2.984564  z =  1.928866 angstrom
           Maximum rank =  0   Radius =  0.650 angstrom
                   Q00  =  -0.123636

C          x = -1.627970  y = -0.644564  z =  1.121866 angstrom
           Maximum rank =  0   Radius =  0.650 angstrom
                   Q00  =   1.077311

N          x = -0.399970  y = -0.788564  z =  0.659866 angstrom
           Maximum rank =  0   Radius =  0.650 angstrom
                   Q00  =  -0.577237

N          x = -2.251970  y = -1.650564  z =  1.718866 angstrom
           Maximum rank =  0   Radius =  0.650 angstrom
                   Q00  =  -0.500390

N          x = -2.225970  y =  0.520436  z =  0.994866 angstrom
           Maximum rank =  0   Radius =  0.650 angstrom
                   Q00  =  -0.587161

H          x =  0.106030  y = -1.654564  z =  0.768866 angstrom
           Maximum rank =  0   Radius =  0.325 angstrom
                   Q00  =   0.252323

H          x =  0.072030  y =  0.009436  z =  0.228866 angstrom
           Maximum rank =  0   Radius =  0.325 angstrom
                   Q00  =   0.331370

H          x = -3.071970  y = -1.419564  z =  2.283866 angstrom
           Maximum rank =  0   Radius =  0.325 angstrom
                   Q00  =   0.211343

H          x = -3.128970  y =  0.669436  z =  1.417866 angstrom
           Maximum rank =  0   Radius =  0.325 angstrom
                   Q00  =   0.239729

H          x = -1.725970  y =  1.292436  z =  0.580866 angstrom
           Maximum rank =  0   Radius =  0.325 angstrom
                   Q00  =   0.285509

H          x = -1.314970  y = -3.395564  z =  0.983866 angstrom
           Maximum rank =  0   Radius =  0.325 angstrom
                   Q00  =   0.120596

H          x = -2.456970  y = -3.652564  z =  2.300866 angstrom
           Maximum rank =  0   Radius =  0.325 angstrom
                   Q00  =   0.147890

H          x = -0.863490  y = -2.954281  z =  2.666476 angstrom
           Maximum rank =  0   Radius =  0.325 angstrom
                   Q00  =   0.106394

Total multipoles referred to origin at
           x =   0.000000,  y =    0.000000,  z =    0.000000 angstrom
                   Q00  =  -0.000000

Finished at 5:38:47 on 27 Apr 2020

  DMA results are available in the Python driver through the
	  variable('DMA DISTRIBUTED MULTIPOLES')
  and
	  variable('DMA TOTAL MULTIPOLES')
  commands.

    Psi4 stopped on: Monday, 27 April 2020 05:38AM
    Psi4 wall time for execution: 0:00:53.34

*** Psi4 exiting successfully. Buy a developer a beer!
