                               Psi4 1.3.2 release

  ==> Input File <==

--------------------------------------------------------------------------
import numpy as np
set {scf_type pk
basis cc-pvdz
d_convergence 10
gdma_switch   0
gdma_limit    0
gdma_origin   [ 0.0,  0.0,  0.0 ]
}
molecule test {
    units Angstrom
    0 1
    --
    0 1
    C               -1.977119629161969     2.169760357203200    -1.588197720439105
    C               -2.903119629161969     1.605760357203200    -2.678197720439105
    C               -0.554119629161969     2.470760357203200    -2.077197720439105
    H               -2.419119629161969     3.121760357203200    -1.284197720439105
    H               -2.007119629161969     1.553760357203200    -0.709197720439105
    H               -3.018119629161969     2.353760357203200    -3.464197720439105
    H               -3.884119629161969     1.428760357203200    -2.235197720439105
    H               -0.058119629161969     1.527760357203200    -2.336197720439105
    H               -0.622119629161969     3.071760357203200    -2.991197720439105
    H               -2.548819629161969     0.669350357203200    -3.133828720439105
    H                0.044985370838031     3.008490357203200    -1.327587720439105
    C                1.857880370838031    -3.490239642796800     0.228802279560895
    C               -0.407119629161969    -0.439239642796800     0.254802279560895
    C                0.132880370838031    -1.679239642796800    -0.042197720439105
    C                0.229880370838031     0.390760357203200     1.165802279560895
    C                1.287880370838031    -2.133239642796800     0.586802279560895
    C                1.390880370838031    -0.037239642796800     1.806802279560895
    C                1.922880370838031    -1.291239642796800     1.505802279560895
    O               -0.306119629161969     1.614760357203200     1.400802279560895
    H               -1.356119629161969    -0.209239642796800    -0.182197720439105
    H               -0.371119629161969    -2.309239642796800    -0.746197720439105
    H               -1.219119629161969     1.675760357203200     1.119802279560895
    H                1.860880370838031     0.602760357203200     2.537802279560895
    H                1.054880370838031    -4.225239642796800     0.273802279560895
    H                2.611880370838031    -3.773239642796800     0.963802279560895
    H                2.806880370838031    -1.630239642796800     2.024802279560896
    H                2.304468370838031    -3.520109642796800    -0.776017720439105

}
e, wfn = energy('scf', return_wfn=True)
gdma(wfn)
dmavals = variable('DMA DISTRIBUTED MULTIPOLES')
charges = np.array(dmavals)
print(charges)
np.save('SSI-015LYS-047TYR-1-dimer.npy', np.array(charges))--------------------------------------------------------------------------

*** tstart() called on ds3
*** at Mon Apr 27 22:38:00 2020

   => Loading Basis Set <=

    Name: CC-PVDZ
    Role: ORBITAL
    Keyword: BASIS
    atoms 1-3, 12-18  entry C          line   138 file /theoryfs2/ds/metcalf/miniconda2/envs/tf2gpu/share/psi4/basis/cc-pvdz.gbs
    atoms 4-11, 20-27 entry H          line    22 file /theoryfs2/ds/metcalf/miniconda2/envs/tf2gpu/share/psi4/basis/cc-pvdz.gbs
    atoms 19          entry O          line   198 file /theoryfs2/ds/metcalf/miniconda2/envs/tf2gpu/share/psi4/basis/cc-pvdz.gbs

         ---------------------------------------------------------
                                   SCF
               by Justin Turney, Rob Parrish, Andy Simmonett
                          and Daniel G. A. Smith
                              RHF Reference
                        1 Threads,    500 MiB Core
         ---------------------------------------------------------

  ==> Geometry <==

    Molecular point group: c1
    Full point group: C1

    Geometry (in Angstrom), charge = 0, multiplicity = 1:

       Center              X                  Y                   Z               Mass
    ------------   -----------------  -----------------  -----------------  -----------------
         C           -1.977119629162     2.169760357203    -1.588197720439    12.000000000000
         C           -2.903119629162     1.605760357203    -2.678197720439    12.000000000000
         C           -0.554119629162     2.470760357203    -2.077197720439    12.000000000000
         H           -2.419119629162     3.121760357203    -1.284197720439     1.007825032230
         H           -2.007119629162     1.553760357203    -0.709197720439     1.007825032230
         H           -3.018119629162     2.353760357203    -3.464197720439     1.007825032230
         H           -3.884119629162     1.428760357203    -2.235197720439     1.007825032230
         H           -0.058119629162     1.527760357203    -2.336197720439     1.007825032230
         H           -0.622119629162     3.071760357203    -2.991197720439     1.007825032230
         H           -2.548819629162     0.669350357203    -3.133828720439     1.007825032230
         H            0.044985370838     3.008490357203    -1.327587720439     1.007825032230
         C            1.857880370838    -3.490239642797     0.228802279561    12.000000000000
         C           -0.407119629162    -0.439239642797     0.254802279561    12.000000000000
         C            0.132880370838    -1.679239642797    -0.042197720439    12.000000000000
         C            0.229880370838     0.390760357203     1.165802279561    12.000000000000
         C            1.287880370838    -2.133239642797     0.586802279561    12.000000000000
         C            1.390880370838    -0.037239642797     1.806802279561    12.000000000000
         C            1.922880370838    -1.291239642797     1.505802279561    12.000000000000
         O           -0.306119629162     1.614760357203     1.400802279561    15.994914619570
         H           -1.356119629162    -0.209239642797    -0.182197720439     1.007825032230
         H           -0.371119629162    -2.309239642797    -0.746197720439     1.007825032230
         H           -1.219119629162     1.675760357203     1.119802279561     1.007825032230
         H            1.860880370838     0.602760357203     2.537802279561     1.007825032230
         H            1.054880370838    -4.225239642797     0.273802279561     1.007825032230
         H            2.611880370838    -3.773239642797     0.963802279561     1.007825032230
         H            2.806880370838    -1.630239642797     2.024802279561     1.007825032230
         H            2.304468370838    -3.520109642797    -0.776017720439     1.007825032230

  Running in c1 symmetry.

  Rotational constants: A =      0.05669  B =      0.01653  C =      0.01400 [cm^-1]
  Rotational constants: A =   1699.46830  B =    495.50538  C =    419.83691 [MHz]
  Nuclear repulsion =  585.516015885041725

  Charge       = 0
  Multiplicity = 1
  Electrons    = 84
  Nalpha       = 42
  Nbeta        = 42

  ==> Algorithm <==

  SCF Algorithm Type is PK.
  DIIS enabled.
  MOM disabled.
  Fractional occupation disabled.
  Guess Type is SAD.
  Energy threshold   = 1.00e-06
  Density threshold  = 1.00e-10
  Integral threshold = 0.00e+00

  ==> Primary Basis <==

  Basis Set: CC-PVDZ
    Blend: CC-PVDZ
    Number of shells: 114
    Number of basis function: 234
    Number of Cartesian functions: 245
    Spherical Harmonics?: true
    Max angular momentum: 2

  ==> Pre-Iterations <==

   -------------------------------------------------------
    Irrep   Nso     Nmo     Nalpha   Nbeta   Ndocc  Nsocc
   -------------------------------------------------------
     A        234     234       0       0       0       0
   -------------------------------------------------------
    Total     234     234      42      42      42       0
   -------------------------------------------------------

  ==> Integral Setup <==

  Using integral reordering PK algorithm.
  Sizing the integral batches needed.
  Building batch lookup table.
   Calculation information:
      Number of atoms:                  27
      Number of AO shells:             114
      Number of primitives:            322
      Number of atomic orbitals:       245
      Number of basis functions:       234

      Integral cutoff                 1.00e-12
      Number of threads:                 1

	Batch   1 pq = [       0,    9405] index = [             0,44231715] size =     44231715
	Batch   2 pq = [    9405,   13301] index = [      44231715,88464951] size =     44233236
	Batch   3 pq = [   13301,   16290] index = [      88464951,132690195] size =     44225244
	Batch   4 pq = [   16290,   18810] index = [     132690195,176917455] size =     44227260
	Batch   5 pq = [   18810,   21030] index = [     176917455,221140965] size =     44223510
	Batch   6 pq = [   21030,   23037] index = [     221140965,265363203] size =     44222238
	Batch   7 pq = [   23037,   24883] index = [     265363203,309594286] size =     44231083
	Batch   8 pq = [   24883,   26601] index = [     309594286,353819901] size =     44225615
	Batch   9 pq = [   26601,   27495] index = [     353819901,378001260] size =     24181359
  Task number: 35
  Buffer size: 11059200
  Buffer per thread: 2
  We computed 19667585 shell quartets total.
  Whereas there are 21487290 unique shell quartets.

  ==> DiskJK: Disk-Based J/K Matrices <==

    J tasked:                  Yes
    K tasked:                  Yes
    wK tasked:                  No
    Memory [MiB]:              375
    Schwarz Cutoff:          1E-12

    OpenMP threads:              1

  Minimum eigenvalue in the overlap matrix is 3.2036715252E-04.
  Using Symmetric Orthogonalization.

  SCF Guess: Superposition of Atomic Densities via on-the-fly atomic UHF.

  ==> Iterations <==

                        Total Energy        Delta E     RMS |[F,P]|

   @RHF iter SAD:  -461.76109311630074   -4.61761e+02   0.00000e+00
   @RHF iter   1:  -462.60369920604307   -8.42606e-01   2.80367e-03 DIIS
   @RHF iter   2:  -462.84519174145998   -2.41493e-01   1.17648e-03 DIIS
   @RHF iter   3:  -462.88362592515608   -3.84342e-02   2.66509e-04 DIIS
   @RHF iter   4:  -462.88685376352339   -3.22784e-03   1.02425e-04 DIIS
   @RHF iter   5:  -462.88718656076946   -3.32797e-04   2.01303e-05 DIIS
   @RHF iter   6:  -462.88720569876619   -1.91380e-05   6.24162e-06 DIIS
   @RHF iter   7:  -462.88720756187632   -1.86311e-06   1.78056e-06 DIIS
   @RHF iter   8:  -462.88720777531643   -2.13440e-07   6.61188e-07 DIIS
   @RHF iter   9:  -462.88720780464206   -2.93256e-08   2.46127e-07 DIIS
   @RHF iter  10:  -462.88720780907914   -4.43708e-09   9.13251e-08 DIIS
   @RHF iter  11:  -462.88720781027507   -1.19593e-09   3.94608e-08 DIIS
   @RHF iter  12:  -462.88720781055349   -2.78419e-10   1.87075e-08 DIIS
   @RHF iter  13:  -462.88720781060266   -4.91696e-11   6.52177e-09 DIIS
   @RHF iter  14:  -462.88720781060709   -4.43379e-12   1.86996e-09 DIIS
   @RHF iter  15:  -462.88720781060613    9.66338e-13   6.61322e-10 DIIS
   @RHF iter  16:  -462.88720781060528    8.52651e-13   2.14930e-10 DIIS
   @RHF iter  17:  -462.88720781060510    1.70530e-13   1.02138e-10 DIIS
   @RHF iter  18:  -462.88720781060772   -2.61480e-12   4.95232e-11 DIIS
  Energy and wave function converged.

  ==> Post-Iterations <==

    Orbital Energies [Eh]
    ---------------------

    Doubly Occupied:

       1A    -20.580709     2A    -11.297728     3A    -11.238073
       4A    -11.233692     5A    -11.232262     6A    -11.230398
       7A    -11.227927     8A    -11.227302     9A    -11.227295
      10A    -11.223626    11A    -11.217897    12A     -1.402191
      13A     -1.149994    14A     -1.056557    15A     -1.035215
      16A     -1.018438    17A     -0.926921    18A     -0.925518
      19A     -0.843677    20A     -0.808938    21A     -0.802207
      22A     -0.735729    23A     -0.668362    24A     -0.647514
      25A     -0.626152    26A     -0.609605    27A     -0.598689
      28A     -0.587757    29A     -0.583219    30A     -0.571435
      31A     -0.562304    32A     -0.551794    33A     -0.532295
      34A     -0.524817    35A     -0.498496    36A     -0.487459
      37A     -0.476644    38A     -0.475299    39A     -0.467150
      40A     -0.464671    41A     -0.337726    42A     -0.300952

    Virtual:

      43A      0.131066    44A      0.154883    45A      0.171781
      46A      0.184995    47A      0.199352    48A      0.213776
      49A      0.217001    50A      0.229621    51A      0.248045
      52A      0.255622    53A      0.260390    54A      0.271465
      55A      0.276539    56A      0.282082    57A      0.293471
      58A      0.295815    59A      0.306185    60A      0.354284
      61A      0.364545    62A      0.374275    63A      0.397076
      64A      0.418989    65A      0.429273    66A      0.469864
      67A      0.488839    68A      0.498254    69A      0.520026
      70A      0.567590    71A      0.583785    72A      0.611128
      73A      0.617819    74A      0.623436    75A      0.633422
      76A      0.650636    77A      0.659005    78A      0.668820
      79A      0.693772    80A      0.708763    81A      0.718830
      82A      0.730443    83A      0.738553    84A      0.759551
      85A      0.770767    86A      0.774414    87A      0.778917
      88A      0.792011    89A      0.804596    90A      0.825201
      91A      0.828859    92A      0.840505    93A      0.849287
      94A      0.871050    95A      0.873089    96A      0.878824
      97A      0.883640    98A      0.890703    99A      0.895446
     100A      0.897847   101A      0.908600   102A      0.910833
     103A      0.924721   104A      0.928935   105A      0.944621
     106A      0.949342   107A      0.953039   108A      0.956506
     109A      0.981925   110A      0.988255   111A      1.023372
     112A      1.038993   113A      1.053914   114A      1.082014
     115A      1.120614   116A      1.125448   117A      1.130946
     118A      1.148584   119A      1.161790   120A      1.171639
     121A      1.207810   122A      1.226230   123A      1.241095
     124A      1.258149   125A      1.272106   126A      1.294447
     127A      1.299741   128A      1.311638   129A      1.330778
     130A      1.347985   131A      1.366391   132A      1.392762
     133A      1.410199   134A      1.462636   135A      1.480812
     136A      1.499052   137A      1.515049   138A      1.525623
     139A      1.543287   140A      1.554104   141A      1.626168
     142A      1.650252   143A      1.660855   144A      1.675283
     145A      1.683656   146A      1.690531   147A      1.694748
     148A      1.706691   149A      1.741294   150A      1.748467
     151A      1.781760   152A      1.801467   153A      1.809928
     154A      1.849347   155A      1.854240   156A      1.863984
     157A      1.883585   158A      1.890706   159A      1.904311
     160A      1.912857   161A      1.919041   162A      1.923113
     163A      1.926553   164A      1.940457   165A      1.946447
     166A      1.949656   167A      1.959565   168A      1.973553
     169A      1.976403   170A      1.983900   171A      1.994339
     172A      2.007741   173A      2.014432   174A      2.022062
     175A      2.031521   176A      2.046391   177A      2.057617
     178A      2.071886   179A      2.077518   180A      2.085295
     181A      2.125092   182A      2.128634   183A      2.147993
     184A      2.171807   185A      2.202776   186A      2.219436
     187A      2.229399   188A      2.263044   189A      2.280681
     190A      2.289273   191A      2.308249   192A      2.317690
     193A      2.331962   194A      2.340917   195A      2.350876
     196A      2.370442   197A      2.406408   198A      2.470020
     199A      2.474244   200A      2.490300   201A      2.522949
     202A      2.531859   203A      2.537023   204A      2.561647
     205A      2.590845   206A      2.611014   207A      2.612089
     208A      2.634021   209A      2.656569   210A      2.743224
     211A      2.750939   212A      2.765524   213A      2.772581
     214A      2.782728   215A      2.799127   216A      2.816994
     217A      2.829546   218A      2.844408   219A      2.899154
     220A      2.930611   221A      2.960420   222A      2.970718
     223A      2.988505   224A      3.004897   225A      3.085373
     226A      3.106122   227A      3.123811   228A      3.274496
     229A      3.287294   230A      3.377255   231A      3.589625
     232A      3.675982   233A      4.001869   234A      4.186254

    Final Occupation by Irrep:
              A
    DOCC [    42 ]

  @RHF Final Energy:  -462.88720781060772

   => Energetics <=

    Nuclear Repulsion Energy =            585.5160158850417247
    One-Electron Energy =               -1788.3771839560404260
    Two-Electron Energy =                 739.9739602603909816
    Total Energy =                       -462.8872078106077197

Computation Completed

Properties will be evaluated at   0.000000,   0.000000,   0.000000 [a0]

Properties computed using the SCF density matrix

  Nuclear Dipole Moment: [e a0]
     X:    -6.3949      Y:     3.1451      Z:   -11.4923

  Electronic Dipole Moment: [e a0]
     X:     5.9872      Y:    -3.4553      Z:    11.2483

  Dipole Moment: [e a0]
     X:    -0.4077      Y:    -0.3102      Z:    -0.2440     Total:     0.5674

  Dipole Moment: [D]
     X:    -1.0362      Y:    -0.7884      Z:    -0.6201     Total:     1.4422

*** tstop() called on ds3 at Mon Apr 27 22:42:11 2020
Module time:
	user time   =     150.24 seconds =       2.50 minutes
	system time =      61.79 seconds =       1.03 minutes
	total time  =        251 seconds =       4.18 minutes
Total time:
	user time   =     150.24 seconds =       2.50 minutes
	system time =      61.79 seconds =       1.03 minutes
	total time  =        251 seconds =       4.18 minutes
                                     G D M A

                                 by Anthony Stone

                           version 2.2.06, 22 June 2011

               Distributed Multipoles from Gaussian wavefunctions

Starting at 22:42:11 on 27 Apr 2020

Using SCF density matrix from file ./SSI/SSI-015LYS-047TYR-1-dimer.test.31504.fchk

                         Distributed Multipole Analysis

Standard DMA

Positions and radii in angstrom
Multipole moments in atomic units, ea_0^k for rank k

C          x = -1.977120  y =  2.169760  z = -1.588198 angstrom
           Maximum rank =  0   Radius =  0.650 angstrom
                   Q00  =  -0.081526

C          x = -2.903120  y =  1.605760  z = -2.678198 angstrom
           Maximum rank =  0   Radius =  0.650 angstrom
                   Q00  =  -0.246251

C          x = -0.554120  y =  2.470760  z = -2.077198 angstrom
           Maximum rank =  0   Radius =  0.650 angstrom
                   Q00  =  -0.235365

H          x = -2.419120  y =  3.121760  z = -1.284198 angstrom
           Maximum rank =  0   Radius =  0.325 angstrom
                   Q00  =   0.042722

H          x = -2.007120  y =  1.553760  z = -0.709198 angstrom
           Maximum rank =  0   Radius =  0.325 angstrom
                   Q00  =   0.007577

H          x = -3.018120  y =  2.353760  z = -3.464198 angstrom
           Maximum rank =  0   Radius =  0.325 angstrom
                   Q00  =   0.084505

H          x = -3.884120  y =  1.428760  z = -2.235198 angstrom
           Maximum rank =  0   Radius =  0.325 angstrom
                   Q00  =   0.082437

H          x = -0.058120  y =  1.527760  z = -2.336198 angstrom
           Maximum rank =  0   Radius =  0.325 angstrom
                   Q00  =   0.080696

H          x = -0.622120  y =  3.071760  z = -2.991198 angstrom
           Maximum rank =  0   Radius =  0.325 angstrom
                   Q00  =   0.078559

H          x = -2.548820  y =  0.669350  z = -3.133829 angstrom
           Maximum rank =  0   Radius =  0.325 angstrom
                   Q00  =   0.078705

H          x =  0.044985  y =  3.008490  z = -1.327588 angstrom
           Maximum rank =  0   Radius =  0.325 angstrom
                   Q00  =   0.096188

C          x =  1.857880  y = -3.490240  z =  0.228802 angstrom
           Maximum rank =  0   Radius =  0.650 angstrom
                   Q00  =  -0.200827

C          x = -0.407120  y = -0.439240  z =  0.254802 angstrom
           Maximum rank =  0   Radius =  0.650 angstrom
                   Q00  =  -0.194541

C          x =  0.132880  y = -1.679240  z = -0.042198 angstrom
           Maximum rank =  0   Radius =  0.650 angstrom
                   Q00  =   0.045140

C          x =  0.229880  y =  0.390760  z =  1.165802 angstrom
           Maximum rank =  0   Radius =  0.650 angstrom
                   Q00  =   0.339233

C          x =  1.287880  y = -2.133240  z =  0.586802 angstrom
           Maximum rank =  0   Radius =  0.650 angstrom
                   Q00  =  -0.141779

C          x =  1.390880  y = -0.037240  z =  1.806802 angstrom
           Maximum rank =  0   Radius =  0.650 angstrom
                   Q00  =  -0.121800

C          x =  1.922880  y = -1.291240  z =  1.505802 angstrom
           Maximum rank =  0   Radius =  0.650 angstrom
                   Q00  =  -0.047861

O          x = -0.306120  y =  1.614760  z =  1.400802 angstrom
           Maximum rank =  0   Radius =  0.650 angstrom
                   Q00  =  -0.655466

H          x = -1.356120  y = -0.209240  z = -0.182198 angstrom
           Maximum rank =  0   Radius =  0.325 angstrom
                   Q00  =   0.070992

H          x = -0.371120  y = -2.309240  z = -0.746198 angstrom
           Maximum rank =  0   Radius =  0.325 angstrom
                   Q00  =   0.064414

H          x = -1.219120  y =  1.675760  z =  1.119802 angstrom
           Maximum rank =  0   Radius =  0.325 angstrom
                   Q00  =   0.415499

H          x =  1.860880  y =  0.602760  z =  2.537802 angstrom
           Maximum rank =  0   Radius =  0.325 angstrom
                   Q00  =   0.081391

H          x =  1.054880  y = -4.225240  z =  0.273802 angstrom
           Maximum rank =  0   Radius =  0.325 angstrom
                   Q00  =   0.094898

H          x =  2.611880  y = -3.773240  z =  0.963802 angstrom
           Maximum rank =  0   Radius =  0.325 angstrom
                   Q00  =   0.096954

H          x =  2.806880  y = -1.630240  z =  2.024802 angstrom
           Maximum rank =  0   Radius =  0.325 angstrom
                   Q00  =   0.065403

H          x =  2.304468  y = -3.520110  z = -0.776018 angstrom
           Maximum rank =  0   Radius =  0.325 angstrom
                   Q00  =   0.100101

Total multipoles referred to origin at
           x =   0.000000,  y =    0.000000,  z =    0.000000 angstrom
                   Q00  =  -0.000000

Finished at 22:42:11 on 27 Apr 2020

  DMA results are available in the Python driver through the
	  variable('DMA DISTRIBUTED MULTIPOLES')
  and
	  variable('DMA TOTAL MULTIPOLES')
  commands.

    Psi4 stopped on: Monday, 27 April 2020 10:42PM
    Psi4 wall time for execution: 0:04:10.56

*** Psi4 exiting successfully. Buy a developer a beer!
