                               Psi4 1.3.2 release

  ==> Input File <==

--------------------------------------------------------------------------
import numpy as np
set {scf_type pk
basis cc-pvdz
d_convergence 10
gdma_switch   0
gdma_limit    0
gdma_origin   [ 0.0,  0.0,  0.0 ]
}
molecule test {
    units Angstrom
    0 1
    --
    0 1
    C               -0.817059506272311     0.203958256917647    -1.719205565432274
    C               -1.550059506272311    -0.643041743082353    -2.776205565432273
    H               -0.575059506272311    -0.418041743082353    -0.857205565432274
    H                0.103940493727689     0.610958256917647    -2.139205565432273
    H               -1.448059506272311     1.032958256917647    -1.399205565432274
    H               -1.801059506272312     0.022958256917647    -3.601205565432274
    H               -2.471763506272311    -1.084481743082353    -2.369275565432273
    H               -0.867079506272311    -1.420741743082353    -3.148675565432273
    C                0.717940493727689     0.132958256917647     1.623794434567726
    C                1.641940493727688     0.299958256917647     2.874794434567726
    H               -0.086059506272311     0.864958256917647     1.648794434567726
    H                1.307940493727688     0.301958256917647     0.721794434567726
    H                0.304940493727689    -0.874041743082353     1.567794434567726
    H                2.411940493727689    -0.468041743082353     2.831794434567727
    H                1.078730493727689     0.218258256917647     3.816134434567727
    H                2.127770493727689     1.286728256917647     2.890624434567727

}
e, wfn = energy('scf', return_wfn=True)
gdma(wfn)
dmavals = variable('DMA DISTRIBUTED MULTIPOLES')
charges = np.array(dmavals)
print(charges)
np.save('SSI-087LEU-109VAL-1-dimer.npy', np.array(charges))--------------------------------------------------------------------------

*** tstart() called on ds3
*** at Sun Apr 26 19:28:53 2020

   => Loading Basis Set <=

    Name: CC-PVDZ
    Role: ORBITAL
    Keyword: BASIS
    atoms 1-2, 9-10  entry C          line   138 file /theoryfs2/ds/metcalf/miniconda2/envs/tf2gpu/share/psi4/basis/cc-pvdz.gbs
    atoms 3-8, 11-16 entry H          line    22 file /theoryfs2/ds/metcalf/miniconda2/envs/tf2gpu/share/psi4/basis/cc-pvdz.gbs

         ---------------------------------------------------------
                                   SCF
               by Justin Turney, Rob Parrish, Andy Simmonett
                          and Daniel G. A. Smith
                              RHF Reference
                        1 Threads,    500 MiB Core
         ---------------------------------------------------------

  ==> Geometry <==

    Molecular point group: c1
    Full point group: C1

    Geometry (in Angstrom), charge = 0, multiplicity = 1:

       Center              X                  Y                   Z               Mass
    ------------   -----------------  -----------------  -----------------  -----------------
         C           -0.817059506272     0.203958256918    -1.719205565432    12.000000000000
         C           -1.550059506272    -0.643041743082    -2.776205565432    12.000000000000
         H           -0.575059506272    -0.418041743082    -0.857205565432     1.007825032230
         H            0.103940493728     0.610958256918    -2.139205565432     1.007825032230
         H           -1.448059506272     1.032958256918    -1.399205565432     1.007825032230
         H           -1.801059506272     0.022958256918    -3.601205565432     1.007825032230
         H           -2.471763506272    -1.084481743082    -2.369275565432     1.007825032230
         H           -0.867079506272    -1.420741743082    -3.148675565432     1.007825032230
         C            0.717940493728     0.132958256918     1.623794434568    12.000000000000
         C            1.641940493728     0.299958256918     2.874794434568    12.000000000000
         H           -0.086059506272     0.864958256918     1.648794434568     1.007825032230
         H            1.307940493728     0.301958256918     0.721794434568     1.007825032230
         H            0.304940493728    -0.874041743082     1.567794434568     1.007825032230
         H            2.411940493728    -0.468041743082     2.831794434568     1.007825032230
         H            1.078730493728     0.218258256918     3.816134434568     1.007825032230
         H            2.127770493728     1.286728256918     2.890624434568     1.007825032230

  Running in c1 symmetry.

  Rotational constants: A =      0.96423  B =      0.03852  C =      0.03818 [cm^-1]
  Rotational constants: A =  28906.99863  B =   1154.80093  C =   1144.53960 [MHz]
  Nuclear repulsion =  119.068944576215529

  Charge       = 0
  Multiplicity = 1
  Electrons    = 36
  Nalpha       = 18
  Nbeta        = 18

  ==> Algorithm <==

  SCF Algorithm Type is PK.
  DIIS enabled.
  MOM disabled.
  Fractional occupation disabled.
  Guess Type is SAD.
  Energy threshold   = 1.00e-06
  Density threshold  = 1.00e-10
  Integral threshold = 0.00e+00

  ==> Primary Basis <==

  Basis Set: CC-PVDZ
    Blend: CC-PVDZ
    Number of shells: 60
    Number of basis function: 116
    Number of Cartesian functions: 120
    Spherical Harmonics?: true
    Max angular momentum: 2

  ==> Pre-Iterations <==

   -------------------------------------------------------
    Irrep   Nso     Nmo     Nalpha   Nbeta   Ndocc  Nsocc
   -------------------------------------------------------
     A        116     116       0       0       0       0
   -------------------------------------------------------
    Total     116     116      18      18      18       0
   -------------------------------------------------------

  ==> Integral Setup <==

  Using integral reordering PK algorithm.
  Sizing the integral batches needed.
  Building batch lookup table.
   Calculation information:
      Number of atoms:                  16
      Number of AO shells:              60
      Number of primitives:            148
      Number of atomic orbitals:       120
      Number of basis functions:       116

      Integral cutoff                 1.00e-12
      Number of threads:                 1

	Batch   1 pq = [       0,    6786] index = [             0,23028291] size =     23028291
  Task number: 3
  Buffer size: 11059200
  Buffer per thread: 2
  We computed 1318993 shell quartets total.
  Whereas there are 1675365 unique shell quartets.

  ==> DiskJK: Disk-Based J/K Matrices <==

    J tasked:                  Yes
    K tasked:                  Yes
    wK tasked:                  No
    Memory [MiB]:              375
    Schwarz Cutoff:          1E-12

    OpenMP threads:              1

  Minimum eigenvalue in the overlap matrix is 6.1504441351E-03.
  Using Symmetric Orthogonalization.

  SCF Guess: Superposition of Atomic Densities via on-the-fly atomic UHF.

  ==> Iterations <==

                        Total Energy        Delta E     RMS |[F,P]|

   @RHF iter SAD:  -157.27279391759498   -1.57273e+02   0.00000e+00
   @RHF iter   1:  -158.31157456233268   -1.03878e+00   4.13685e-03 DIIS
   @RHF iter   2:  -158.44168068887836   -1.30106e-01   1.74388e-03 DIIS
   @RHF iter   3:  -158.46389082860495   -2.22101e-02   3.46771e-04 DIIS
   @RHF iter   4:  -158.46569619482068   -1.80537e-03   3.92514e-05 DIIS
   @RHF iter   5:  -158.46572041077945   -2.42160e-05   7.14018e-06 DIIS
   @RHF iter   6:  -158.46572113666633   -7.25887e-07   1.43263e-06 DIIS
   @RHF iter   7:  -158.46572115644491   -1.97786e-08   3.56000e-07 DIIS
   @RHF iter   8:  -158.46572115784073   -1.39582e-09   5.33626e-08 DIIS
   @RHF iter   9:  -158.46572115789502   -5.42855e-11   1.07234e-08 DIIS
   @RHF iter  10:  -158.46572115789692   -1.90425e-12   2.93989e-09 DIIS
   @RHF iter  11:  -158.46572115789706   -1.42109e-13   7.92186e-10 DIIS
   @RHF iter  12:  -158.46572115789701    5.68434e-14   1.70548e-10 DIIS
   @RHF iter  13:  -158.46572115789712   -1.13687e-13   3.56608e-11 DIIS
  Energy and wave function converged.

  ==> Post-Iterations <==

    Orbital Energies [Eh]
    ---------------------

    Doubly Occupied:

       1A    -11.221508     2A    -11.219591     3A    -11.219339
       4A    -11.215987     5A     -1.015001     6A     -1.008824
       7A     -0.842900     8A     -0.833933     9A     -0.597889
      10A     -0.596804    11A     -0.595231    12A     -0.588409
      13A     -0.502226    14A     -0.495675    15A     -0.490436
      16A     -0.486376    17A     -0.485017    18A     -0.478769

    Virtual:

      19A      0.177635    20A      0.192839    21A      0.220870
      22A      0.235825    23A      0.240834    24A      0.264816
      25A      0.266288    26A      0.277958    27A      0.280267
      28A      0.289404    29A      0.301216    30A      0.321633
      31A      0.385526    32A      0.409658    33A      0.575264
      34A      0.585525    35A      0.596030    36A      0.600423
      37A      0.603284    38A      0.658646    39A      0.668555
      40A      0.701215    41A      0.714007    42A      0.735826
      43A      0.837161    44A      0.885376    45A      0.887788
      46A      0.889075    47A      0.893593    48A      0.894164
      49A      0.897609    50A      0.908089    51A      0.915397
      52A      0.919940    53A      0.936788    54A      0.948419
      55A      0.959518    56A      1.009421    57A      1.120607
      58A      1.129992    59A      1.130853    60A      1.133874
      61A      1.232900    62A      1.243769    63A      1.456468
      64A      1.463342    65A      1.469052    66A      1.492980
      67A      1.576916    68A      1.588689    69A      1.677163
      70A      1.685972    71A      1.692929    72A      1.695162
      73A      1.847373    74A      1.857906    75A      1.869612
      76A      1.884322    77A      1.890038    78A      1.907278
      79A      1.916807    80A      1.932781    81A      1.936310
      82A      1.940560    83A      1.946198    84A      1.948259
      85A      1.951444    86A      1.955272    87A      1.990037
      88A      2.055080    89A      2.083659    90A      2.107236
      91A      2.118534    92A      2.133813    93A      2.290623
      94A      2.296897    95A      2.313239    96A      2.347326
      97A      2.441752    98A      2.452312    99A      2.461445
     100A      2.468986   101A      2.542562   102A      2.555484
     103A      2.567519   104A      2.588427   105A      2.753131
     106A      2.765095   107A      2.776196   108A      2.810974
     109A      2.839051   110A      2.845448   111A      2.850209
     112A      2.860745   113A      2.934166   114A      2.942234
     115A      2.942804   116A      2.970818

    Final Occupation by Irrep:
              A
    DOCC [    18 ]

  @RHF Final Energy:  -158.46572115789712

   => Energetics <=

    Nuclear Repulsion Energy =            119.0689445762155287
    One-Electron Energy =                -447.2815014171964094
    Two-Electron Energy =                 169.7468356830837592
    Total Energy =                       -158.4657211578971214

Computation Completed

Properties will be evaluated at   0.000000,   0.000000,   0.000000 [a0]

Properties computed using the SCF density matrix

  Nuclear Dipole Moment: [e a0]
     X:     0.0808      Y:     0.0688      Z:    -0.0355

  Electronic Dipole Moment: [e a0]
     X:    -0.0710      Y:    -0.0581      Z:     0.0332

  Dipole Moment: [e a0]
     X:     0.0098      Y:     0.0107      Z:    -0.0022     Total:     0.0146

  Dipole Moment: [D]
     X:     0.0248      Y:     0.0272      Z:    -0.0057     Total:     0.0372

*** tstop() called on ds3 at Sun Apr 26 19:29:03 2020
Module time:
	user time   =       6.38 seconds =       0.11 minutes
	system time =       2.69 seconds =       0.04 minutes
	total time  =         10 seconds =       0.17 minutes
Total time:
	user time   =       6.38 seconds =       0.11 minutes
	system time =       2.69 seconds =       0.04 minutes
	total time  =         10 seconds =       0.17 minutes
                                     G D M A

                                 by Anthony Stone

                           version 2.2.06, 22 June 2011

               Distributed Multipoles from Gaussian wavefunctions

Starting at 19:29:3 on 26 Apr 2020

Using SCF density matrix from file ./SSI/SSI-087LEU-109VAL-1-dimer.test.6999.fchk

                         Distributed Multipole Analysis

Standard DMA

Positions and radii in angstrom
Multipole moments in atomic units, ea_0^k for rank k

C          x = -0.817060  y =  0.203958  z = -1.719206 angstrom
           Maximum rank =  0   Radius =  0.650 angstrom
                   Q00  =  -0.243882

C          x = -1.550060  y = -0.643042  z = -2.776206 angstrom
           Maximum rank =  0   Radius =  0.650 angstrom
                   Q00  =  -0.238177

H          x = -0.575060  y = -0.418042  z = -0.857206 angstrom
           Maximum rank =  0   Radius =  0.325 angstrom
                   Q00  =   0.082738

H          x =  0.103940  y =  0.610958  z = -2.139206 angstrom
           Maximum rank =  0   Radius =  0.325 angstrom
                   Q00  =   0.079395

H          x = -1.448060  y =  1.032958  z = -1.399206 angstrom
           Maximum rank =  0   Radius =  0.325 angstrom
                   Q00  =   0.079313

H          x = -1.801060  y =  0.022958  z = -3.601206 angstrom
           Maximum rank =  0   Radius =  0.325 angstrom
                   Q00  =   0.077308

H          x = -2.471764  y = -1.084482  z = -2.369276 angstrom
           Maximum rank =  0   Radius =  0.325 angstrom
                   Q00  =   0.082393

H          x = -0.867080  y = -1.420742  z = -3.148676 angstrom
           Maximum rank =  0   Radius =  0.325 angstrom
                   Q00  =   0.079071

C          x =  0.717940  y =  0.132958  z =  1.623794 angstrom
           Maximum rank =  0   Radius =  0.650 angstrom
                   Q00  =  -0.247894

C          x =  1.641940  y =  0.299958  z =  2.874794 angstrom
           Maximum rank =  0   Radius =  0.650 angstrom
                   Q00  =  -0.245568

H          x = -0.086060  y =  0.864958  z =  1.648794 angstrom
           Maximum rank =  0   Radius =  0.325 angstrom
                   Q00  =   0.084022

H          x =  1.307940  y =  0.301958  z =  0.721794 angstrom
           Maximum rank =  0   Radius =  0.325 angstrom
                   Q00  =   0.081550

H          x =  0.304940  y = -0.874042  z =  1.567794 angstrom
           Maximum rank =  0   Radius =  0.325 angstrom
                   Q00  =   0.081860

H          x =  2.411940  y = -0.468042  z =  2.831794 angstrom
           Maximum rank =  0   Radius =  0.325 angstrom
                   Q00  =   0.082891

H          x =  1.078730  y =  0.218258  z =  3.816134 angstrom
           Maximum rank =  0   Radius =  0.325 angstrom
                   Q00  =   0.082420

H          x =  2.127770  y =  1.286728  z =  2.890624 angstrom
           Maximum rank =  0   Radius =  0.325 angstrom
                   Q00  =   0.082560

Total multipoles referred to origin at
           x =   0.000000,  y =    0.000000,  z =    0.000000 angstrom
                   Q00  =  -0.000000

Finished at 19:29:3 on 26 Apr 2020

  DMA results are available in the Python driver through the
	  variable('DMA DISTRIBUTED MULTIPOLES')
  and
	  variable('DMA TOTAL MULTIPOLES')
  commands.

    Psi4 stopped on: Sunday, 26 April 2020 07:29PM
    Psi4 wall time for execution: 0:00:09.86

*** Psi4 exiting successfully. Buy a developer a beer!
