                               Psi4 1.3.2 release

  ==> Input File <==

--------------------------------------------------------------------------
import numpy as np
set {scf_type pk
basis cc-pvdz
d_convergence 10
gdma_switch   0
gdma_limit    0
gdma_origin   [ 0.0,  0.0,  0.0 ]
}
molecule test {
    units Angstrom
    0 1
    --
    0 1
    C               -0.283186626589060    -1.270579300076604    -0.736580102857049
    C                1.214813373410941    -1.186579300076604    -0.671580102857049
    C               -0.591186626589060    -2.761579300076604    -0.676580102857049
    H               -0.631186626589060    -0.854579300076604    -1.681580102857049
    H               -0.757186626589060    -0.751579300076604     0.094419897142951
    H                1.548813373410940    -0.397579300076604    -1.337580102857049
    H                1.554813373410940    -1.028579300076604     0.352419897142951
    H               -1.558186626589060    -2.987579300076604    -1.127580102857049
    H               -0.573186626589060    -3.092579300076604     0.362419897142951
    H                1.563643373410941    -2.157789300076604    -1.052460102857049
    H                0.239743373410940    -3.227019300076603    -1.226960102857049
    C               -0.475186626589060     1.912420699923396     0.837419897142951
    C                0.113813373410940     3.231420699923397     1.201419897142951
    H                0.281813373410940     1.132420699923396     0.903419897142951
    H               -1.256186626589059     1.669420699923396     1.560419897142951
    H               -0.920186626589059     1.906420699923396    -0.155580102857049
    H               -0.691186626589059     3.958420699923396     1.306419897142951
    H                0.787103373410940     3.558150699923396     0.395236897142951
    H                0.660623373410940     3.164230699923396     2.153513897142951

}
e, wfn = energy('scf', return_wfn=True)
gdma(wfn)
dmavals = variable('DMA DISTRIBUTED MULTIPOLES')
charges = np.array(dmavals)
print(charges)
np.save('SSI-045PRO-100VAL-1-dimer.npy', np.array(charges))--------------------------------------------------------------------------

*** tstart() called on ds3
*** at Mon Apr 27 10:11:09 2020

   => Loading Basis Set <=

    Name: CC-PVDZ
    Role: ORBITAL
    Keyword: BASIS
    atoms 1-3, 12-13  entry C          line   138 file /theoryfs2/ds/metcalf/miniconda2/envs/tf2gpu/share/psi4/basis/cc-pvdz.gbs
    atoms 4-11, 14-19 entry H          line    22 file /theoryfs2/ds/metcalf/miniconda2/envs/tf2gpu/share/psi4/basis/cc-pvdz.gbs

         ---------------------------------------------------------
                                   SCF
               by Justin Turney, Rob Parrish, Andy Simmonett
                          and Daniel G. A. Smith
                              RHF Reference
                        1 Threads,    500 MiB Core
         ---------------------------------------------------------

  ==> Geometry <==

    Molecular point group: c1
    Full point group: C1

    Geometry (in Angstrom), charge = 0, multiplicity = 1:

       Center              X                  Y                   Z               Mass
    ------------   -----------------  -----------------  -----------------  -----------------
         C           -0.283186626589    -1.270579300077    -0.736580102857    12.000000000000
         C            1.214813373411    -1.186579300077    -0.671580102857    12.000000000000
         C           -0.591186626589    -2.761579300077    -0.676580102857    12.000000000000
         H           -0.631186626589    -0.854579300077    -1.681580102857     1.007825032230
         H           -0.757186626589    -0.751579300077     0.094419897143     1.007825032230
         H            1.548813373411    -0.397579300077    -1.337580102857     1.007825032230
         H            1.554813373411    -1.028579300077     0.352419897143     1.007825032230
         H           -1.558186626589    -2.987579300077    -1.127580102857     1.007825032230
         H           -0.573186626589    -3.092579300077     0.362419897143     1.007825032230
         H            1.563643373411    -2.157789300077    -1.052460102857     1.007825032230
         H            0.239743373411    -3.227019300077    -1.226960102857     1.007825032230
         C           -0.475186626589     1.912420699923     0.837419897143    12.000000000000
         C            0.113813373411     3.231420699923     1.201419897143    12.000000000000
         H            0.281813373411     1.132420699923     0.903419897143     1.007825032230
         H           -1.256186626589     1.669420699923     1.560419897143     1.007825032230
         H           -0.920186626589     1.906420699923    -0.155580102857     1.007825032230
         H           -0.691186626589     3.958420699923     1.306419897143     1.007825032230
         H            0.787103373411     3.558150699923     0.395236897143     1.007825032230
         H            0.660623373411     3.164230699923     2.153513897143     1.007825032230

  Running in c1 symmetry.

  Rotational constants: A =      0.32088  B =      0.03831  C =      0.03569 [cm^-1]
  Rotational constants: A =   9619.83417  B =   1148.36126  C =   1069.82379 [MHz]
  Nuclear repulsion =  180.798338531095879

  Charge       = 0
  Multiplicity = 1
  Electrons    = 44
  Nalpha       = 22
  Nbeta        = 22

  ==> Algorithm <==

  SCF Algorithm Type is PK.
  DIIS enabled.
  MOM disabled.
  Fractional occupation disabled.
  Guess Type is SAD.
  Energy threshold   = 1.00e-06
  Density threshold  = 1.00e-10
  Integral threshold = 0.00e+00

  ==> Primary Basis <==

  Basis Set: CC-PVDZ
    Blend: CC-PVDZ
    Number of shells: 72
    Number of basis function: 140
    Number of Cartesian functions: 145
    Spherical Harmonics?: true
    Max angular momentum: 2

  ==> Pre-Iterations <==

   -------------------------------------------------------
    Irrep   Nso     Nmo     Nalpha   Nbeta   Ndocc  Nsocc
   -------------------------------------------------------
     A        140     140       0       0       0       0
   -------------------------------------------------------
    Total     140     140      22      22      22       0
   -------------------------------------------------------

  ==> Integral Setup <==

  Using integral reordering PK algorithm.
  Sizing the integral batches needed.
  Building batch lookup table.
   Calculation information:
      Number of atoms:                  19
      Number of AO shells:              72
      Number of primitives:            180
      Number of atomic orbitals:       145
      Number of basis functions:       140

      Integral cutoff                 1.00e-12
      Number of threads:                 1

	Batch   1 pq = [       0,    9405] index = [             0,44231715] size =     44231715
	Batch   2 pq = [    9405,    9870] index = [      44231715,48713385] size =      4481670
  Task number: 5
  Buffer size: 11059200
  Buffer per thread: 2
  We computed 2864015 shell quartets total.
  Whereas there are 3454506 unique shell quartets.

  ==> DiskJK: Disk-Based J/K Matrices <==

    J tasked:                  Yes
    K tasked:                  Yes
    wK tasked:                  No
    Memory [MiB]:              375
    Schwarz Cutoff:          1E-12

    OpenMP threads:              1

  Minimum eigenvalue in the overlap matrix is 4.6548091244E-03.
  Using Symmetric Orthogonalization.

  SCF Guess: Superposition of Atomic Densities via on-the-fly atomic UHF.

  ==> Iterations <==

                        Total Energy        Delta E     RMS |[F,P]|

   @RHF iter SAD:  -196.60410210430786   -1.96604e+02   0.00000e+00
   @RHF iter   1:  -197.28289015375049   -6.78788e-01   3.92118e-03 DIIS
   @RHF iter   2:  -197.44925295060727   -1.66363e-01   1.71532e-03 DIIS
   @RHF iter   3:  -197.48003347762858   -3.07805e-02   3.32548e-04 DIIS
   @RHF iter   4:  -197.48231081594102   -2.27734e-03   4.94196e-05 DIIS
   @RHF iter   5:  -197.48235159932185   -4.07834e-05   1.52202e-05 DIIS
   @RHF iter   6:  -197.48235520892885   -3.60961e-06   2.69632e-06 DIIS
   @RHF iter   7:  -197.48235533891372   -1.29985e-07   5.15152e-07 DIIS
   @RHF iter   8:  -197.48235534428352   -5.36980e-09   1.24501e-07 DIIS
   @RHF iter   9:  -197.48235534459030   -3.06784e-10   3.93545e-08 DIIS
   @RHF iter  10:  -197.48235534462299   -3.26850e-11   8.27567e-09 DIIS
   @RHF iter  11:  -197.48235534462640   -3.41061e-12   1.62337e-09 DIIS
   @RHF iter  12:  -197.48235534462572    6.82121e-13   3.37534e-10 DIIS
   @RHF iter  13:  -197.48235534462631   -5.96856e-13   7.22855e-11 DIIS
  Energy and wave function converged.

  ==> Post-Iterations <==

    Orbital Energies [Eh]
    ---------------------

    Doubly Occupied:

       1A    -11.216274     2A    -11.212839     3A    -11.212198
       4A    -11.211375     5A    -11.209888     6A     -1.067077
       7A     -1.028265     8A     -0.915415     9A     -0.834146
      10A     -0.796561    11A     -0.636887    12A     -0.612887
      13A     -0.603052    14A     -0.600920    15A     -0.543617
      16A     -0.516918    17A     -0.510528    18A     -0.483848
      19A     -0.480652    20A     -0.476298    21A     -0.466460
      22A     -0.456081

    Virtual:

      23A      0.174761    24A      0.198083    25A      0.212827
      26A      0.223116    27A      0.231742    28A      0.247262
      29A      0.260004    30A      0.265541    31A      0.277947
      32A      0.283475    33A      0.297637    34A      0.326334
      35A      0.328857    36A      0.333195    37A      0.380813
      38A      0.420036    39A      0.442728    40A      0.566203
      41A      0.568386    42A      0.601444    43A      0.609492
      44A      0.623746    45A      0.644742    46A      0.654106
      47A      0.682135    48A      0.709457    49A      0.756499
      50A      0.781469    51A      0.815048    52A      0.863196
      53A      0.868555    54A      0.878821    55A      0.886969
      56A      0.888563    57A      0.894194    58A      0.900177
      59A      0.907680    60A      0.913537    61A      0.919866
      62A      0.922572    63A      0.931865    64A      0.946096
      65A      0.948284    66A      0.975380    67A      1.011614
      68A      1.029278    69A      1.081486    70A      1.113505
      71A      1.134494    72A      1.148015    73A      1.198089
      74A      1.259778    75A      1.414257    76A      1.477430
      77A      1.479511    78A      1.498555    79A      1.502832
      80A      1.583386    81A      1.613911    82A      1.631509
      83A      1.648884    84A      1.679974    85A      1.697234
      86A      1.722276    87A      1.732432    88A      1.806442
      89A      1.846168    90A      1.862502    91A      1.873364
      92A      1.888487    93A      1.912315    94A      1.928599
      95A      1.933482    96A      1.946029    97A      1.949001
      98A      1.956666    99A      1.961162   100A      1.969443
     101A      1.981037   102A      1.986054   103A      2.008059
     104A      2.040187   105A      2.048785   106A      2.080418
     107A      2.089679   108A      2.095748   109A      2.151115
     110A      2.164744   111A      2.228954   112A      2.239631
     113A      2.313365   114A      2.320010   115A      2.345128
     116A      2.356570   117A      2.437818   118A      2.442725
     119A      2.469590   120A      2.481476   121A      2.520720
     122A      2.556985   123A      2.565023   124A      2.592570
     125A      2.651146   126A      2.703853   127A      2.762535
     128A      2.766112   129A      2.779999   130A      2.803426
     131A      2.807318   132A      2.841527   133A      2.851582
     134A      2.860159   135A      2.878166   136A      2.922780
     137A      2.940431   138A      2.963370   139A      2.986737
     140A      3.069782

    Final Occupation by Irrep:
              A
    DOCC [    22 ]

  @RHF Final Energy:  -197.48235534462631

   => Energetics <=

    Nuclear Repulsion Energy =            180.7983385310958795
    One-Electron Energy =                -622.3770158403974619
    Two-Electron Energy =                 244.0963219646752975
    Total Energy =                       -197.4823553446263134

Computation Completed

Properties will be evaluated at   0.000000,   0.000000,   0.000000 [a0]

Properties computed using the SCF density matrix

  Nuclear Dipole Moment: [e a0]
     X:     0.2337      Y:     0.8360      Z:     0.5124

  Electronic Dipole Moment: [e a0]
     X:    -0.2685      Y:    -0.8011      Z:    -0.5061

  Dipole Moment: [e a0]
     X:    -0.0348      Y:     0.0349      Z:     0.0063     Total:     0.0497

  Dipole Moment: [D]
     X:    -0.0885      Y:     0.0888      Z:     0.0160     Total:     0.1264

*** tstop() called on ds3 at Mon Apr 27 10:12:17 2020
Module time:
	user time   =      14.41 seconds =       0.24 minutes
	system time =       5.30 seconds =       0.09 minutes
	total time  =         68 seconds =       1.13 minutes
Total time:
	user time   =      14.41 seconds =       0.24 minutes
	system time =       5.30 seconds =       0.09 minutes
	total time  =         68 seconds =       1.13 minutes
                                     G D M A

                                 by Anthony Stone

                           version 2.2.06, 22 June 2011

               Distributed Multipoles from Gaussian wavefunctions

Starting at 10:12:17 on 27 Apr 2020

Using SCF density matrix from file ./SSI/SSI-045PRO-100VAL-1-dimer.test.2422.fchk

                         Distributed Multipole Analysis

Standard DMA

Positions and radii in angstrom
Multipole moments in atomic units, ea_0^k for rank k

C          x = -0.283187  y = -1.270579  z = -0.736580 angstrom
           Maximum rank =  0   Radius =  0.650 angstrom
                   Q00  =  -0.097356

C          x =  1.214813  y = -1.186579  z = -0.671580 angstrom
           Maximum rank =  0   Radius =  0.650 angstrom
                   Q00  =  -0.240958

C          x = -0.591187  y = -2.761579  z = -0.676580 angstrom
           Maximum rank =  0   Radius =  0.650 angstrom
                   Q00  =  -0.205997

H          x = -0.631187  y = -0.854579  z = -1.681580 angstrom
           Maximum rank =  0   Radius =  0.325 angstrom
                   Q00  =   0.052772

H          x = -0.757187  y = -0.751579  z =  0.094420 angstrom
           Maximum rank =  0   Radius =  0.325 angstrom
                   Q00  =   0.056990

H          x =  1.548813  y = -0.397579  z = -1.337580 angstrom
           Maximum rank =  0   Radius =  0.325 angstrom
                   Q00  =   0.084892

H          x =  1.554813  y = -1.028579  z =  0.352420 angstrom
           Maximum rank =  0   Radius =  0.325 angstrom
                   Q00  =   0.077907

H          x = -1.558187  y = -2.987579  z = -1.127580 angstrom
           Maximum rank =  0   Radius =  0.325 angstrom
                   Q00  =   0.081497

H          x = -0.573187  y = -3.092579  z =  0.362420 angstrom
           Maximum rank =  0   Radius =  0.325 angstrom
                   Q00  =   0.076822

H          x =  1.563643  y = -2.157789  z = -1.052460 angstrom
           Maximum rank =  0   Radius =  0.325 angstrom
                   Q00  =   0.059930

H          x =  0.239743  y = -3.227019  z = -1.226960 angstrom
           Maximum rank =  0   Radius =  0.325 angstrom
                   Q00  =   0.051245

C          x = -0.475187  y =  1.912421  z =  0.837420 angstrom
           Maximum rank =  0   Radius =  0.650 angstrom
                   Q00  =  -0.240740

C          x =  0.113813  y =  3.231421  z =  1.201420 angstrom
           Maximum rank =  0   Radius =  0.650 angstrom
                   Q00  =  -0.209868

H          x =  0.281813  y =  1.132421  z =  0.903420 angstrom
           Maximum rank =  0   Radius =  0.325 angstrom
                   Q00  =   0.075222

H          x = -1.256187  y =  1.669421  z =  1.560420 angstrom
           Maximum rank =  0   Radius =  0.325 angstrom
                   Q00  =   0.069608

H          x = -0.920187  y =  1.906421  z = -0.155580 angstrom
           Maximum rank =  0   Radius =  0.325 angstrom
                   Q00  =   0.079820

H          x = -0.691187  y =  3.958421  z =  1.306420 angstrom
           Maximum rank =  0   Radius =  0.325 angstrom
                   Q00  =   0.075641

H          x =  0.787103  y =  3.558151  z =  0.395237 angstrom
           Maximum rank =  0   Radius =  0.325 angstrom
                   Q00  =   0.074638

H          x =  0.660623  y =  3.164231  z =  2.153514 angstrom
           Maximum rank =  0   Radius =  0.325 angstrom
                   Q00  =   0.077936

Total multipoles referred to origin at
           x =   0.000000,  y =    0.000000,  z =    0.000000 angstrom
                   Q00  =  -0.000000

Finished at 10:12:17 on 27 Apr 2020

  DMA results are available in the Python driver through the
	  variable('DMA DISTRIBUTED MULTIPOLES')
  and
	  variable('DMA TOTAL MULTIPOLES')
  commands.

    Psi4 stopped on: Monday, 27 April 2020 10:12AM
    Psi4 wall time for execution: 0:01:07.88

*** Psi4 exiting successfully. Buy a developer a beer!
