                               Psi4 1.3.2 release

  ==> Input File <==

--------------------------------------------------------------------------
import numpy as np
set {scf_type pk
basis cc-pvdz
d_convergence 10
gdma_switch   0
gdma_limit    0
gdma_origin   [ 0.0,  0.0,  0.0 ]
}
molecule test {
    units Angstrom
    0 1
    --
    0 1
    C               -0.602162238938347    -1.872404208503258     0.784641106110624
    C               -1.773162238938347    -2.754404208503257     0.446641106110624
    H               -0.695162238938347    -0.961404208503257     0.203641106110624
    H               -0.616162238938347    -1.625404208503258     1.846641106110624
    H                0.333837761061653    -2.364404208503258     0.531641106110624
    H               -1.843162238938348    -3.511404208503258     1.227641106110624
    H               -1.698612238938348    -3.289010208503258    -0.511818893889376
    H               -2.687315238938347    -2.144462208503258     0.494551106110624
    C                0.243837761061653     1.135595791496743    -1.769358893889376
    C                0.609837761061653     1.217595791496742    -0.298358893889376
    O                0.009837761061653     1.946595791496742     0.447641106110624
    N                1.526837761061653     0.461595791496742     0.314641106110624
    H                0.220837761061653     0.081595791496742    -2.046358893889376
    H                0.807837761061653     1.802595791496743    -2.427358893889377
    H                1.742837761061653     0.712595791496742     1.261641106110624
    H                1.989837761061652    -0.315404208503257    -0.113358893889376
    H               -0.807312238938347     1.378810791496743    -1.983688893889376

}
e, wfn = energy('scf', return_wfn=True)
gdma(wfn)
dmavals = variable('DMA DISTRIBUTED MULTIPOLES')
charges = np.array(dmavals)
print(charges)
np.save('SSI-033THR-100GLN-1-dimer.npy', np.array(charges))--------------------------------------------------------------------------

*** tstart() called on ds3
*** at Sun Apr 26 16:57:34 2020

   => Loading Basis Set <=

    Name: CC-PVDZ
    Role: ORBITAL
    Keyword: BASIS
    atoms 1-2, 9-10  entry C          line   138 file /theoryfs2/ds/metcalf/miniconda2/envs/tf2gpu/share/psi4/basis/cc-pvdz.gbs
    atoms 3-8, 13-17 entry H          line    22 file /theoryfs2/ds/metcalf/miniconda2/envs/tf2gpu/share/psi4/basis/cc-pvdz.gbs
    atoms 11         entry O          line   198 file /theoryfs2/ds/metcalf/miniconda2/envs/tf2gpu/share/psi4/basis/cc-pvdz.gbs
    atoms 12         entry N          line   168 file /theoryfs2/ds/metcalf/miniconda2/envs/tf2gpu/share/psi4/basis/cc-pvdz.gbs

         ---------------------------------------------------------
                                   SCF
               by Justin Turney, Rob Parrish, Andy Simmonett
                          and Daniel G. A. Smith
                              RHF Reference
                        1 Threads,    500 MiB Core
         ---------------------------------------------------------

  ==> Geometry <==

    Molecular point group: c1
    Full point group: C1

    Geometry (in Angstrom), charge = 0, multiplicity = 1:

       Center              X                  Y                   Z               Mass
    ------------   -----------------  -----------------  -----------------  -----------------
         C           -0.602162238938    -1.872404208503     0.784641106111    12.000000000000
         C           -1.773162238938    -2.754404208503     0.446641106111    12.000000000000
         H           -0.695162238938    -0.961404208503     0.203641106111     1.007825032230
         H           -0.616162238938    -1.625404208503     1.846641106111     1.007825032230
         H            0.333837761062    -2.364404208503     0.531641106111     1.007825032230
         H           -1.843162238938    -3.511404208503     1.227641106111     1.007825032230
         H           -1.698612238938    -3.289010208503    -0.511818893889     1.007825032230
         H           -2.687315238938    -2.144462208503     0.494551106111     1.007825032230
         C            0.243837761062     1.135595791497    -1.769358893889    12.000000000000
         C            0.609837761062     1.217595791497    -0.298358893889    12.000000000000
         O            0.009837761062     1.946595791497     0.447641106111    15.994914619570
         N            1.526837761062     0.461595791497     0.314641106111    14.003074004430
         H            0.220837761062     0.081595791497    -2.046358893889     1.007825032230
         H            0.807837761062     1.802595791497    -2.427358893889     1.007825032230
         H            1.742837761062     0.712595791497     1.261641106111     1.007825032230
         H            1.989837761062    -0.315404208503    -0.113358893889     1.007825032230
         H           -0.807312238938     1.378810791497    -1.983688893889     1.007825032230

  Running in c1 symmetry.

  Rotational constants: A =      0.15909  B =      0.04380  C =      0.04112 [cm^-1]
  Rotational constants: A =   4769.33326  B =   1313.04926  C =   1232.65143 [MHz]
  Nuclear repulsion =  238.780810891450471

  Charge       = 0
  Multiplicity = 1
  Electrons    = 50
  Nalpha       = 25
  Nbeta        = 25

  ==> Algorithm <==

  SCF Algorithm Type is PK.
  DIIS enabled.
  MOM disabled.
  Fractional occupation disabled.
  Guess Type is SAD.
  Energy threshold   = 1.00e-06
  Density threshold  = 1.00e-10
  Integral threshold = 0.00e+00

  ==> Primary Basis <==

  Basis Set: CC-PVDZ
    Blend: CC-PVDZ
    Number of shells: 69
    Number of basis function: 139
    Number of Cartesian functions: 145
    Spherical Harmonics?: true
    Max angular momentum: 2

  ==> Pre-Iterations <==

   -------------------------------------------------------
    Irrep   Nso     Nmo     Nalpha   Nbeta   Ndocc  Nsocc
   -------------------------------------------------------
     A        139     139       0       0       0       0
   -------------------------------------------------------
    Total     139     139      25      25      25       0
   -------------------------------------------------------

  ==> Integral Setup <==

  Using integral reordering PK algorithm.
  Sizing the integral batches needed.
  Building batch lookup table.
   Calculation information:
      Number of atoms:                  17
      Number of AO shells:              69
      Number of primitives:            187
      Number of atomic orbitals:       145
      Number of basis functions:       139

      Integral cutoff                 1.00e-12
      Number of threads:                 1

	Batch   1 pq = [       0,    9730] index = [             0,47341315] size =     47341315
  Task number: 5
  Buffer size: 11059200
  Buffer per thread: 2
  We computed 2667711 shell quartets total.
  Whereas there are 2917320 unique shell quartets.

  ==> DiskJK: Disk-Based J/K Matrices <==

    J tasked:                  Yes
    K tasked:                  Yes
    wK tasked:                  No
    Memory [MiB]:              375
    Schwarz Cutoff:          1E-12

    OpenMP threads:              1

  Minimum eigenvalue in the overlap matrix is 4.3690409071E-03.
  Using Symmetric Orthogonalization.

  SCF Guess: Superposition of Atomic Densities via on-the-fly atomic UHF.

  ==> Iterations <==

                        Total Energy        Delta E     RMS |[F,P]|

   @RHF iter SAD:  -286.04713661767221   -2.86047e+02   0.00000e+00
   @RHF iter   1:  -286.97245933562709   -9.25323e-01   4.69858e-03 DIIS
   @RHF iter   2:  -287.15157818826071   -1.79119e-01   2.61650e-03 DIIS
   @RHF iter   3:  -287.20210842510176   -5.05302e-02   5.22078e-04 DIIS
   @RHF iter   4:  -287.20543608162217   -3.32766e-03   2.20791e-04 DIIS
   @RHF iter   5:  -287.20603896332756   -6.02882e-04   3.58212e-05 DIIS
   @RHF iter   6:  -287.20607457382584   -3.56105e-05   1.70084e-05 DIIS
   @RHF iter   7:  -287.20608038808132   -5.81426e-06   6.81698e-06 DIIS
   @RHF iter   8:  -287.20608168291011   -1.29483e-06   2.12781e-06 DIIS
   @RHF iter   9:  -287.20608181090887   -1.27999e-07   5.17535e-07 DIIS
   @RHF iter  10:  -287.20608181618218   -5.27331e-09   1.55471e-07 DIIS
   @RHF iter  11:  -287.20608181674737   -5.65194e-10   3.52436e-08 DIIS
   @RHF iter  12:  -287.20608181678148   -3.41061e-11   8.15782e-09 DIIS
   @RHF iter  13:  -287.20608181678358   -2.10321e-12   2.01015e-09 DIIS
   @RHF iter  14:  -287.20608181678261    9.66338e-13   9.07647e-10 DIIS
   @RHF iter  15:  -287.20608181678330   -6.82121e-13   4.03563e-10 DIIS
   @RHF iter  16:  -287.20608181678335   -5.68434e-14   1.62399e-10 DIIS
   @RHF iter  17:  -287.20608181678284    5.11591e-13   6.30963e-11 DIIS
  Energy and wave function converged.

  ==> Post-Iterations <==

    Orbital Energies [Eh]
    ---------------------

    Doubly Occupied:

       1A    -20.497739     2A    -15.574264     3A    -11.343819
       4A    -11.246843     5A    -11.216580     6A    -11.214668
       7A     -1.385591     8A     -1.198115     9A     -1.025744
      10A     -1.001565    11A     -0.835747    12A     -0.793892
      13A     -0.723307    14A     -0.653729    15A     -0.622250
      16A     -0.603849    17A     -0.598416    18A     -0.582494
      19A     -0.539258    20A     -0.529075    21A     -0.505328
      22A     -0.486640    23A     -0.476527    24A     -0.407794
      25A     -0.393679

    Virtual:

      26A      0.159404    27A      0.191888    28A      0.198330
      29A      0.210664    30A      0.225478    31A      0.248624
      32A      0.258086    33A      0.262970    34A      0.273061
      35A      0.278282    36A      0.301684    37A      0.326145
      38A      0.385663    39A      0.407134    40A      0.466896
      41A      0.551164    42A      0.594891    43A      0.603894
      44A      0.606917    45A      0.626810    46A      0.659491
      47A      0.698476    48A      0.703396    49A      0.726241
      50A      0.728662    51A      0.764645    52A      0.825822
      53A      0.851366    54A      0.865920    55A      0.875682
      56A      0.883657    57A      0.894018    58A      0.901240
      59A      0.910425    60A      0.920907    61A      0.940562
      62A      0.945212    63A      0.962308    64A      0.993487
      65A      1.045765    66A      1.078328    67A      1.089731
      68A      1.120270    69A      1.129302    70A      1.148024
      71A      1.171976    72A      1.247240    73A      1.335069
      74A      1.361067    75A      1.373521    76A      1.386954
      77A      1.415102    78A      1.456963    79A      1.471627
      80A      1.515877    81A      1.564282    82A      1.607536
      83A      1.624978    84A      1.653715    85A      1.681560
      86A      1.692451    87A      1.739470    88A      1.818535
      89A      1.825201    90A      1.861466    91A      1.869589
      92A      1.879207    93A      1.904988    94A      1.911013
      95A      1.923611    96A      1.934380    97A      1.961411
      98A      1.970296    99A      1.976650   100A      1.995520
     101A      2.008902   102A      2.061883   103A      2.084027
     104A      2.112496   105A      2.120566   106A      2.162784
     107A      2.175096   108A      2.182769   109A      2.308759
     110A      2.321903   111A      2.348605   112A      2.409657
     113A      2.445601   114A      2.449132   115A      2.470508
     116A      2.491136   117A      2.555327   118A      2.564531
     119A      2.579155   120A      2.626548   121A      2.652026
     122A      2.708405   123A      2.762959   124A      2.770958
     125A      2.798679   126A      2.818307   127A      2.844585
     128A      2.872788   129A      2.917906   130A      2.938382
     131A      2.987829   132A      3.012580   133A      3.109004
     134A      3.164174   135A      3.306923   136A      3.452555
     137A      3.537909   138A      3.909023   139A      3.946484

    Final Occupation by Irrep:
              A
    DOCC [    25 ]

  @RHF Final Energy:  -287.20608181678284

   => Energetics <=

    Nuclear Repulsion Energy =            238.7808108914504714
    One-Electron Energy =                -863.0599584444249786
    Two-Electron Energy =                 337.0730657361917224
    Total Energy =                       -287.2060818167828415

Computation Completed

Properties will be evaluated at   0.000000,   0.000000,   0.000000 [a0]

Properties computed using the SCF density matrix

  Nuclear Dipole Moment: [e a0]
     X:    -3.0535      Y:    -9.5878      Z:    -1.4207

  Electronic Dipole Moment: [e a0]
     X:     3.9116      Y:     8.6306      Z:     0.7328

  Dipole Moment: [e a0]
     X:     0.8581      Y:    -0.9572      Z:    -0.6880     Total:     1.4580

  Dipole Moment: [D]
     X:     2.1810      Y:    -2.4329      Z:    -1.7487     Total:     3.7059

*** tstop() called on ds3 at Sun Apr 26 16:58:00 2020
Module time:
	user time   =      17.78 seconds =       0.30 minutes
	system time =       6.85 seconds =       0.11 minutes
	total time  =         26 seconds =       0.43 minutes
Total time:
	user time   =      17.78 seconds =       0.30 minutes
	system time =       6.85 seconds =       0.11 minutes
	total time  =         26 seconds =       0.43 minutes
                                     G D M A

                                 by Anthony Stone

                           version 2.2.06, 22 June 2011

               Distributed Multipoles from Gaussian wavefunctions

Starting at 16:58:1 on 26 Apr 2020

Using SCF density matrix from file ./SSI/SSI-033THR-100GLN-1-dimer.test.17030.fchk

                         Distributed Multipole Analysis

Standard DMA

Positions and radii in angstrom
Multipole moments in atomic units, ea_0^k for rank k

C          x = -0.602162  y = -1.872404  z =  0.784641 angstrom
           Maximum rank =  0   Radius =  0.650 angstrom
                   Q00  =  -0.222937

C          x = -1.773162  y = -2.754404  z =  0.446641 angstrom
           Maximum rank =  0   Radius =  0.650 angstrom
                   Q00  =  -0.227561

H          x = -0.695162  y = -0.961404  z =  0.203641 angstrom
           Maximum rank =  0   Radius =  0.325 angstrom
                   Q00  =   0.065707

H          x = -0.616162  y = -1.625404  z =  1.846641 angstrom
           Maximum rank =  0   Radius =  0.325 angstrom
                   Q00  =   0.086661

H          x =  0.333838  y = -2.364404  z =  0.531641 angstrom
           Maximum rank =  0   Radius =  0.325 angstrom
                   Q00  =   0.060648

H          x = -1.843162  y = -3.511404  z =  1.227641 angstrom
           Maximum rank =  0   Radius =  0.325 angstrom
                   Q00  =   0.072171

H          x = -1.698612  y = -3.289010  z = -0.511819 angstrom
           Maximum rank =  0   Radius =  0.325 angstrom
                   Q00  =   0.076571

H          x = -2.687315  y = -2.144462  z =  0.494551 angstrom
           Maximum rank =  0   Radius =  0.325 angstrom
                   Q00  =   0.078633

C          x =  0.243838  y =  1.135596  z = -1.769359 angstrom
           Maximum rank =  0   Radius =  0.650 angstrom
                   Q00  =  -0.258436

C          x =  0.609838  y =  1.217596  z = -0.298359 angstrom
           Maximum rank =  0   Radius =  0.650 angstrom
                   Q00  =   0.832412

O          x =  0.009838  y =  1.946596  z =  0.447641 angstrom
           Maximum rank =  0   Radius =  0.650 angstrom
                   Q00  =  -0.784602

N          x =  1.526838  y =  0.461596  z =  0.314641 angstrom
           Maximum rank =  0   Radius =  0.650 angstrom
                   Q00  =  -0.534975

H          x =  0.220838  y =  0.081596  z = -2.046359 angstrom
           Maximum rank =  0   Radius =  0.325 angstrom
                   Q00  =   0.083576

H          x =  0.807838  y =  1.802596  z = -2.427359 angstrom
           Maximum rank =  0   Radius =  0.325 angstrom
                   Q00  =   0.127330

H          x =  1.742838  y =  0.712596  z =  1.261641 angstrom
           Maximum rank =  0   Radius =  0.325 angstrom
                   Q00  =   0.225356

H          x =  1.989838  y = -0.315404  z = -0.113359 angstrom
           Maximum rank =  0   Radius =  0.325 angstrom
                   Q00  =   0.191620

H          x = -0.807312  y =  1.378811  z = -1.983689 angstrom
           Maximum rank =  0   Radius =  0.325 angstrom
                   Q00  =   0.127829

Total multipoles referred to origin at
           x =   0.000000,  y =    0.000000,  z =    0.000000 angstrom
                   Q00  =  -0.000000

Finished at 16:58:1 on 26 Apr 2020

  DMA results are available in the Python driver through the
	  variable('DMA DISTRIBUTED MULTIPOLES')
  and
	  variable('DMA TOTAL MULTIPOLES')
  commands.

    Psi4 stopped on: Sunday, 26 April 2020 04:58PM
    Psi4 wall time for execution: 0:00:26.17

*** Psi4 exiting successfully. Buy a developer a beer!
