                               Psi4 1.3.2 release

  ==> Input File <==

--------------------------------------------------------------------------
import numpy as np
set {scf_type pk
basis cc-pvdz
d_convergence 10
gdma_switch   0
gdma_limit    0
gdma_origin   [ 0.0,  0.0,  0.0 ]
}
molecule test {
    units Angstrom
    0 1
    --
    0 1
    C               -1.189694013507597     1.115642556412641     2.648894924990134
    C                0.031305986492403     0.104642556412641     2.950894924990134
    O                0.614305986492404    -0.442357443587359     1.971894924990134
    O                0.366305986492403    -0.213357443587359     4.172894924990134
    H               -1.221694013507596     1.858642556412641     3.437894924990134
    H               -2.103694013507597     0.529642556412641     2.754894924990134
    H               -1.240494013507596     1.606217556412641     1.665654924990134
    C               -1.528694013507597    -0.637357443587359    -3.444105075009866
    C                0.419305986492403     0.033642556412641    -2.074105075009866
    N               -0.021694013507597    -0.660357443587359    -1.043105075009866
    N               -0.245694013507597     0.032642556412641    -3.218105075009866
    N                1.550305986492404     0.701642556412641    -1.974105075009866
    H               -0.836694013507597    -1.238357443587359    -1.147105075009866
    H                0.453305986492403    -0.626357443587359    -0.145105075009866
    H                0.163305986492403     0.526642556412641    -3.998105075009866
    H                1.921305986492403     1.191642556412641    -2.773105075009866
    H                2.087305986492404     0.646642556412641    -1.124105075009866
    H               -1.907694013507596    -1.116357443587359    -2.541105075009866
    H               -1.407694013507597    -1.415357443587359    -4.201105075009866
    H               -2.293574013507597     0.075097556412641    -3.786685075009866

}
e, wfn = energy('scf', return_wfn=True)
gdma(wfn)
dmavals = variable('DMA DISTRIBUTED MULTIPOLES')
charges = np.array(dmavals)
print(charges)
np.save('SSI-014ASP-017ARG-1-dimer.npy', np.array(charges))--------------------------------------------------------------------------

*** tstart() called on ds3
*** at Tue Apr 28 10:17:26 2020

   => Loading Basis Set <=

    Name: CC-PVDZ
    Role: ORBITAL
    Keyword: BASIS
    atoms 1-2, 8-9   entry C          line   138 file /theoryfs2/ds/metcalf/miniconda2/envs/tf2gpu/share/psi4/basis/cc-pvdz.gbs
    atoms 3-4        entry O          line   198 file /theoryfs2/ds/metcalf/miniconda2/envs/tf2gpu/share/psi4/basis/cc-pvdz.gbs
    atoms 5-7, 13-20 entry H          line    22 file /theoryfs2/ds/metcalf/miniconda2/envs/tf2gpu/share/psi4/basis/cc-pvdz.gbs
    atoms 10-12      entry N          line   168 file /theoryfs2/ds/metcalf/miniconda2/envs/tf2gpu/share/psi4/basis/cc-pvdz.gbs

         ---------------------------------------------------------
                                   SCF
               by Justin Turney, Rob Parrish, Andy Simmonett
                          and Daniel G. A. Smith
                              RHF Reference
                        1 Threads,    500 MiB Core
         ---------------------------------------------------------

  ==> Geometry <==

    Molecular point group: c1
    Full point group: C1

    Geometry (in Angstrom), charge = 0, multiplicity = 1:

       Center              X                  Y                   Z               Mass
    ------------   -----------------  -----------------  -----------------  -----------------
         C           -1.189694013508     1.115642556413     2.648894924990    12.000000000000
         C            0.031305986492     0.104642556413     2.950894924990    12.000000000000
         O            0.614305986492    -0.442357443587     1.971894924990    15.994914619570
         O            0.366305986492    -0.213357443587     4.172894924990    15.994914619570
         H           -1.221694013508     1.858642556413     3.437894924990     1.007825032230
         H           -2.103694013508     0.529642556413     2.754894924990     1.007825032230
         H           -1.240494013508     1.606217556413     1.665654924990     1.007825032230
         C           -1.528694013508    -0.637357443587    -3.444105075010    12.000000000000
         C            0.419305986492     0.033642556413    -2.074105075010    12.000000000000
         N           -0.021694013508    -0.660357443587    -1.043105075010    14.003074004430
         N           -0.245694013508     0.032642556413    -3.218105075010    14.003074004430
         N            1.550305986492     0.701642556413    -1.974105075010    14.003074004430
         H           -0.836694013508    -1.238357443587    -1.147105075010     1.007825032230
         H            0.453305986492    -0.626357443587    -0.145105075010     1.007825032230
         H            0.163305986492     0.526642556413    -3.998105075010     1.007825032230
         H            1.921305986492     1.191642556413    -2.773105075010     1.007825032230
         H            2.087305986492     0.646642556413    -1.124105075010     1.007825032230
         H           -1.907694013508    -1.116357443587    -2.541105075010     1.007825032230
         H           -1.407694013508    -1.415357443587    -4.201105075010     1.007825032230
         H           -2.293574013508     0.075097556413    -3.786685075010     1.007825032230

  Running in c1 symmetry.

  Rotational constants: A =      0.10192  B =      0.01566  C =      0.01471 [cm^-1]
  Rotational constants: A =   3055.57046  B =    469.51456  C =    441.14046 [MHz]
  Nuclear repulsion =  432.237850615143884

  Charge       = 0
  Multiplicity = 1
  Electrons    = 72
  Nalpha       = 36
  Nbeta        = 36

  ==> Algorithm <==

  SCF Algorithm Type is PK.
  DIIS enabled.
  MOM disabled.
  Fractional occupation disabled.
  Guess Type is SAD.
  Energy threshold   = 1.00e-06
  Density threshold  = 1.00e-10
  Integral threshold = 0.00e+00

  ==> Primary Basis <==

  Basis Set: CC-PVDZ
    Blend: CC-PVDZ
    Number of shells: 87
    Number of basis function: 181
    Number of Cartesian functions: 190
    Spherical Harmonics?: true
    Max angular momentum: 2

  ==> Pre-Iterations <==

   -------------------------------------------------------
    Irrep   Nso     Nmo     Nalpha   Nbeta   Ndocc  Nsocc
   -------------------------------------------------------
     A        181     181       0       0       0       0
   -------------------------------------------------------
    Total     181     181      36      36      36       0
   -------------------------------------------------------

  ==> Integral Setup <==

  Using integral reordering PK algorithm.
  Sizing the integral batches needed.
  Building batch lookup table.
   Calculation information:
      Number of atoms:                  20
      Number of AO shells:              87
      Number of primitives:            253
      Number of atomic orbitals:       190
      Number of basis functions:       181

      Integral cutoff                 1.00e-12
      Number of threads:                 1

	Batch   1 pq = [       0,    9405] index = [             0,44231715] size =     44231715
	Batch   2 pq = [    9405,   13301] index = [      44231715,88464951] size =     44233236
	Batch   3 pq = [   13301,   16471] index = [      88464951,135655156] size =     47190205
  Task number: 13
  Buffer size: 11059200
  Buffer per thread: 2
  We computed 5208790 shell quartets total.
  Whereas there are 7328706 unique shell quartets.

  ==> DiskJK: Disk-Based J/K Matrices <==

    J tasked:                  Yes
    K tasked:                  Yes
    wK tasked:                  No
    Memory [MiB]:              375
    Schwarz Cutoff:          1E-12

    OpenMP threads:              1

  Minimum eigenvalue in the overlap matrix is 3.9054789595E-03.
  Using Symmetric Orthogonalization.

  SCF Guess: Superposition of Atomic Densities via on-the-fly atomic UHF.

  ==> Iterations <==

                        Total Energy        Delta E     RMS |[F,P]|

   @RHF iter SAD:  -469.38039097617860   -4.69380e+02   0.00000e+00
   @RHF iter   1:  -470.62819822065535   -1.24781e+00   4.38137e-03 DIIS
   @RHF iter   2:  -470.85278205129066   -2.24584e-01   2.52490e-03 DIIS
   @RHF iter   3:  -470.92820073960252   -7.54187e-02   4.41041e-04 DIIS
   @RHF iter   4:  -470.93199837310385   -3.79763e-03   1.60509e-04 DIIS
   @RHF iter   5:  -470.93251545609860   -5.17083e-04   3.56118e-05 DIIS
   @RHF iter   6:  -470.93254240361944   -2.69475e-05   1.65126e-05 DIIS
   @RHF iter   7:  -470.93254794380863   -5.54019e-06   3.61518e-06 DIIS
   @RHF iter   8:  -470.93254842090295   -4.77094e-07   1.42126e-06 DIIS
   @RHF iter   9:  -470.93254849190276   -7.09998e-08   4.74808e-07 DIIS
   @RHF iter  10:  -470.93254850395095   -1.20482e-08   1.84853e-07 DIIS
   @RHF iter  11:  -470.93254850576744   -1.81649e-09   7.25164e-08 DIIS
   @RHF iter  12:  -470.93254850598851   -2.21064e-10   2.55749e-08 DIIS
   @RHF iter  13:  -470.93254850602409   -3.55840e-11   7.63893e-09 DIIS
   @RHF iter  14:  -470.93254850602528   -1.19371e-12   2.65929e-09 DIIS
   @RHF iter  15:  -470.93254850602688   -1.59162e-12   8.73922e-10 DIIS
   @RHF iter  16:  -470.93254850602409    2.78533e-12   3.01854e-10 DIIS
   @RHF iter  17:  -470.93254850602523   -1.13687e-12   1.35869e-10 DIIS
   @RHF iter  18:  -470.93254850602546   -2.27374e-13   2.88345e-11 DIIS
  Energy and wave function converged.

  ==> Post-Iterations <==

    Orbital Energies [Eh]
    ---------------------

    Doubly Occupied:

       1A    -20.396147     2A    -20.369823     3A    -15.685917
       4A    -15.676390     5A    -15.651175     6A    -11.474510
       7A    -11.354326     8A    -11.250337     9A    -11.167918
      10A     -1.433837    11A     -1.297400    12A     -1.268301
      13A     -1.249990    14A     -1.129494    15A     -1.047196
      16A     -0.923811    17A     -0.895616    18A     -0.867713
      19A     -0.829315    20A     -0.746335    21A     -0.730559
      22A     -0.717990    23A     -0.698462    24A     -0.644269
      25A     -0.634160    26A     -0.614767    27A     -0.518349
      28A     -0.506872    29A     -0.503831    30A     -0.495562
      31A     -0.479850    32A     -0.452467    33A     -0.415057
      34A     -0.300667    35A     -0.280886    36A     -0.271862

    Virtual:

      37A      0.092279    38A      0.124973    39A      0.141045
      40A      0.146197    41A      0.181961    42A      0.189407
      43A      0.200665    44A      0.241272    45A      0.257359
      46A      0.284913    47A      0.289618    48A      0.312480
      49A      0.335099    50A      0.357865    51A      0.384667
      52A      0.439904    53A      0.441726    54A      0.462165
      55A      0.515101    56A      0.534038    57A      0.573064
      58A      0.595120    59A      0.611608    60A      0.648885
      61A      0.659149    62A      0.662545    63A      0.663329
      64A      0.689270    65A      0.711050    66A      0.748031
      67A      0.777989    68A      0.787584    69A      0.797868
      70A      0.806819    71A      0.822843    72A      0.840033
      73A      0.842276    74A      0.863441    75A      0.899517
      76A      0.914366    77A      0.921090    78A      0.925979
      79A      0.938171    80A      0.942365    81A      0.960713
      82A      0.971310    83A      0.984412    84A      1.016952
      85A      1.027188    86A      1.089045    87A      1.099654
      88A      1.107330    89A      1.170918    90A      1.225961
      91A      1.228760    92A      1.239106    93A      1.250210
      94A      1.256099    95A      1.296868    96A      1.321091
      97A      1.338383    98A      1.351530    99A      1.401789
     100A      1.426815   101A      1.442334   102A      1.459269
     103A      1.495216   104A      1.517225   105A      1.533066
     106A      1.550186   107A      1.593935   108A      1.595943
     109A      1.602783   110A      1.621926   111A      1.630138
     112A      1.671525   113A      1.704967   114A      1.735305
     115A      1.743178   116A      1.770732   117A      1.803706
     118A      1.814248   119A      1.835552   120A      1.844162
     121A      1.858354   122A      1.877649   123A      1.889628
     124A      1.933859   125A      1.942368   126A      1.962461
     127A      1.976836   128A      2.004992   129A      2.017475
     130A      2.030948   131A      2.061384   132A      2.085742
     133A      2.109017   134A      2.122740   135A      2.174614
     136A      2.186351   137A      2.203780   138A      2.255828
     139A      2.272877   140A      2.291792   141A      2.310445
     142A      2.368435   143A      2.396756   144A      2.406803
     145A      2.422067   146A      2.436321   147A      2.465000
     148A      2.487277   149A      2.526558   150A      2.539292
     151A      2.562587   152A      2.572145   153A      2.626727
     154A      2.656691   155A      2.670089   156A      2.696004
     157A      2.727008   158A      2.802101   159A      2.842537
     160A      2.854277   161A      2.864135   162A      2.878213
     163A      2.889429   164A      2.923789   165A      2.976058
     166A      3.025276   167A      3.123041   168A      3.157227
     169A      3.165439   170A      3.169665   171A      3.206681
     172A      3.226770   173A      3.257217   174A      3.486971
     175A      3.548114   176A      3.647004   177A      3.690301
     178A      3.778507   179A      3.872216   180A      3.951381
     181A      4.010065

    Final Occupation by Irrep:
              A
    DOCC [    36 ]

  @RHF Final Energy:  -470.93254850602546

   => Energetics <=

    Nuclear Repulsion Energy =            432.2378506151438842
    One-Electron Energy =               -1500.3784754780740514
    Two-Electron Energy =                 597.2080763569045985
    Total Energy =                       -470.9325485060254550

Computation Completed

Properties will be evaluated at   0.000000,   0.000000,   0.000000 [a0]

Properties computed using the SCF density matrix

  Nuclear Dipole Moment: [e a0]
     X:    -5.9860      Y:     1.9073      Z:   -11.0689

  Electronic Dipole Moment: [e a0]
     X:     5.3838      Y:    -1.2007      Z:     2.1689

  Dipole Moment: [e a0]
     X:    -0.6021      Y:     0.7066      Z:    -8.8999     Total:     8.9482

  Dipole Moment: [D]
     X:    -1.5305      Y:     1.7959      Z:   -22.6214     Total:    22.7441

*** tstop() called on ds3 at Tue Apr 28 10:19:01 2020
Module time:
	user time   =      37.20 seconds =       0.62 minutes
	system time =      19.62 seconds =       0.33 minutes
	total time  =         95 seconds =       1.58 minutes
Total time:
	user time   =      37.20 seconds =       0.62 minutes
	system time =      19.62 seconds =       0.33 minutes
	total time  =         95 seconds =       1.58 minutes
                                     G D M A

                                 by Anthony Stone

                           version 2.2.06, 22 June 2011

               Distributed Multipoles from Gaussian wavefunctions

Starting at 10:19:1 on 28 Apr 2020

Using SCF density matrix from file ./SSI/SSI-014ASP-017ARG-1-dimer.test.7651.fchk

                         Distributed Multipole Analysis

Standard DMA

Positions and radii in angstrom
Multipole moments in atomic units, ea_0^k for rank k

C          x = -1.189694  y =  1.115643  z =  2.648895 angstrom
           Maximum rank =  0   Radius =  0.650 angstrom
                   Q00  =  -0.300538

C          x =  0.031306  y =  0.104643  z =  2.950895 angstrom
           Maximum rank =  0   Radius =  0.650 angstrom
                   Q00  =   0.888496

O          x =  0.614306  y = -0.442357  z =  1.971895 angstrom
           Maximum rank =  0   Radius =  0.650 angstrom
                   Q00  =  -0.910530

O          x =  0.366306  y = -0.213357  z =  4.172895 angstrom
           Maximum rank =  0   Radius =  0.650 angstrom
                   Q00  =  -0.881743

H          x = -1.221694  y =  1.858643  z =  3.437895 angstrom
           Maximum rank =  0   Radius =  0.325 angstrom
                   Q00  =   0.094026

H          x = -2.103694  y =  0.529643  z =  2.754895 angstrom
           Maximum rank =  0   Radius =  0.325 angstrom
                   Q00  =   0.094716

H          x = -1.240494  y =  1.606218  z =  1.665655 angstrom
           Maximum rank =  0   Radius =  0.325 angstrom
                   Q00  =   0.045710

C          x = -1.528694  y = -0.637357  z = -3.444105 angstrom
           Maximum rank =  0   Radius =  0.650 angstrom
                   Q00  =  -0.116781

C          x =  0.419306  y =  0.033643  z = -2.074105 angstrom
           Maximum rank =  0   Radius =  0.650 angstrom
                   Q00  =   1.074822

N          x = -0.021694  y = -0.660357  z = -1.043105 angstrom
           Maximum rank =  0   Radius =  0.650 angstrom
                   Q00  =  -0.574738

N          x = -0.245694  y =  0.032643  z = -3.218105 angstrom
           Maximum rank =  0   Radius =  0.650 angstrom
                   Q00  =  -0.492679

N          x =  1.550306  y =  0.701643  z = -1.974105 angstrom
           Maximum rank =  0   Radius =  0.650 angstrom
                   Q00  =  -0.587924

H          x = -0.836694  y = -1.238357  z = -1.147105 angstrom
           Maximum rank =  0   Radius =  0.325 angstrom
                   Q00  =   0.249332

H          x =  0.453306  y = -0.626357  z = -0.145105 angstrom
           Maximum rank =  0   Radius =  0.325 angstrom
                   Q00  =   0.305089

H          x =  0.163306  y =  0.526643  z = -3.998105 angstrom
           Maximum rank =  0   Radius =  0.325 angstrom
                   Q00  =   0.215183

H          x =  1.921306  y =  1.191643  z = -2.773105 angstrom
           Maximum rank =  0   Radius =  0.325 angstrom
                   Q00  =   0.243078

H          x =  2.087306  y =  0.646643  z = -1.124105 angstrom
           Maximum rank =  0   Radius =  0.325 angstrom
                   Q00  =   0.279714

H          x = -1.907694  y = -1.116357  z = -2.541105 angstrom
           Maximum rank =  0   Radius =  0.325 angstrom
                   Q00  =   0.118815

H          x = -1.407694  y = -1.415357  z = -4.201105 angstrom
           Maximum rank =  0   Radius =  0.325 angstrom
                   Q00  =   0.124491

H          x = -2.293574  y =  0.075098  z = -3.786685 angstrom
           Maximum rank =  0   Radius =  0.325 angstrom
                   Q00  =   0.131460

Total multipoles referred to origin at
           x =   0.000000,  y =    0.000000,  z =    0.000000 angstrom
                   Q00  =  -0.000000

Finished at 10:19:1 on 28 Apr 2020

  DMA results are available in the Python driver through the
	  variable('DMA DISTRIBUTED MULTIPOLES')
  and
	  variable('DMA TOTAL MULTIPOLES')
  commands.

    Psi4 stopped on: Tuesday, 28 April 2020 10:19AM
    Psi4 wall time for execution: 0:01:35.01

*** Psi4 exiting successfully. Buy a developer a beer!
