                               Psi4 1.3.2 release

  ==> Input File <==

--------------------------------------------------------------------------
import numpy as np
set {scf_type pk
basis cc-pvdz
d_convergence 10
gdma_switch   0
gdma_limit    0
gdma_origin   [ 0.0,  0.0,  0.0 ]
}
molecule test {
    units Angstrom
    -1 1
    --
    -1 1
    C                1.127070398866043    -1.852952846064873     0.404681218363084
    C                1.392070398866043    -2.285952846064872     1.843681218363084
    C                0.573070398866043    -3.001952846064873    -0.435318781636916
    H                0.367070398866043    -1.077952846064872     0.430681218363084
    H                2.031070398866043    -1.451952846064873    -0.059318781636916
    H                1.949070398866043    -3.222952846064872     1.826681218363084
    H                0.453070398866043    -2.475952846064872     2.360681218363084
    H               -0.198929601133957    -3.523952846064872     0.140681218363084
    H                0.091070398866043    -2.574952846064872    -1.322318781636916
    H                2.008945398866043    -1.560640846064872     2.394487718363083
    H                1.359769698866043    -3.701569046064872    -0.754130781636916
    C                0.358070398866043     1.785047153935128    -0.062318781636916
    C                0.787070398866043     2.431047153935128    -1.372318781636916
    C               -1.033929601133957     1.163047153935127    -0.118318781636916
    O               -1.611929601133957     1.001047153935128    -1.217318781636916
    O               -1.556929601133957     0.844047153935128     0.971681218363084
    H                1.052070398866043     0.991047153935128     0.179681218363084
    H                0.406070398866043     2.533047153935128     0.732681218363084
    H                0.214070398866043     3.348047153935128    -1.507318781636916
    H                0.555070398866043     1.751047153935128    -2.185318781636917
    H                1.861074398866043     2.660216153935128    -1.435537781636916

}
e, wfn = energy('scf', return_wfn=True)
gdma(wfn)
dmavals = variable('DMA DISTRIBUTED MULTIPOLES')
charges = np.array(dmavals)
print(charges)
np.save('SSI-062LYS-147GLU-1-dimer.npy', np.array(charges))--------------------------------------------------------------------------

*** tstart() called on ds3
*** at Tue Apr 28 15:32:40 2020

   => Loading Basis Set <=

    Name: CC-PVDZ
    Role: ORBITAL
    Keyword: BASIS
    atoms 1-3, 12-14  entry C          line   138 file /theoryfs2/ds/metcalf/miniconda2/envs/tf2gpu/share/psi4/basis/cc-pvdz.gbs
    atoms 4-11, 17-21 entry H          line    22 file /theoryfs2/ds/metcalf/miniconda2/envs/tf2gpu/share/psi4/basis/cc-pvdz.gbs
    atoms 15-16       entry O          line   198 file /theoryfs2/ds/metcalf/miniconda2/envs/tf2gpu/share/psi4/basis/cc-pvdz.gbs

         ---------------------------------------------------------
                                   SCF
               by Justin Turney, Rob Parrish, Andy Simmonett
                          and Daniel G. A. Smith
                              RHF Reference
                        1 Threads,    500 MiB Core
         ---------------------------------------------------------

  ==> Geometry <==

    Molecular point group: c1
    Full point group: C1

    Geometry (in Angstrom), charge = -1, multiplicity = 1:

       Center              X                  Y                   Z               Mass
    ------------   -----------------  -----------------  -----------------  -----------------
         C            1.127070398866    -1.852952846065     0.404681218363    12.000000000000
         C            1.392070398866    -2.285952846065     1.843681218363    12.000000000000
         C            0.573070398866    -3.001952846065    -0.435318781637    12.000000000000
         H            0.367070398866    -1.077952846065     0.430681218363     1.007825032230
         H            2.031070398866    -1.451952846065    -0.059318781637     1.007825032230
         H            1.949070398866    -3.222952846065     1.826681218363     1.007825032230
         H            0.453070398866    -2.475952846065     2.360681218363     1.007825032230
         H           -0.198929601134    -3.523952846065     0.140681218363     1.007825032230
         H            0.091070398866    -2.574952846065    -1.322318781637     1.007825032230
         H            2.008945398866    -1.560640846065     2.394487718363     1.007825032230
         H            1.359769698866    -3.701569046065    -0.754130781637     1.007825032230
         C            0.358070398866     1.785047153935    -0.062318781637    12.000000000000
         C            0.787070398866     2.431047153935    -1.372318781637    12.000000000000
         C           -1.033929601134     1.163047153935    -0.118318781637    12.000000000000
         O           -1.611929601134     1.001047153935    -1.217318781637    15.994914619570
         O           -1.556929601134     0.844047153935     0.971681218363    15.994914619570
         H            1.052070398866     0.991047153935     0.179681218363     1.007825032230
         H            0.406070398866     2.533047153935     0.732681218363     1.007825032230
         H            0.214070398866     3.348047153935    -1.507318781637     1.007825032230
         H            0.555070398866     1.751047153935    -2.185318781637     1.007825032230
         H            1.861074398866     2.660216153935    -1.435537781637     1.007825032230

  Running in c1 symmetry.

  Rotational constants: A =      0.07816  B =      0.02692  C =      0.02586 [cm^-1]
  Rotational constants: A =   2343.21196  B =    806.91538  C =    775.21899 [MHz]
  Nuclear repulsion =  369.155362765268137

  Charge       = -1
  Multiplicity = 1
  Electrons    = 66
  Nalpha       = 33
  Nbeta        = 33

  ==> Algorithm <==

  SCF Algorithm Type is PK.
  DIIS enabled.
  MOM disabled.
  Fractional occupation disabled.
  Guess Type is SAD.
  Energy threshold   = 1.00e-06
  Density threshold  = 1.00e-10
  Integral threshold = 0.00e+00

  ==> Primary Basis <==

  Basis Set: CC-PVDZ
    Blend: CC-PVDZ
    Number of shells: 87
    Number of basis function: 177
    Number of Cartesian functions: 185
    Spherical Harmonics?: true
    Max angular momentum: 2

  ==> Pre-Iterations <==

   -------------------------------------------------------
    Irrep   Nso     Nmo     Nalpha   Nbeta   Ndocc  Nsocc
   -------------------------------------------------------
     A        177     177       0       0       0       0
   -------------------------------------------------------
    Total     177     177      33      33      33       0
   -------------------------------------------------------

  ==> Integral Setup <==

  Using integral reordering PK algorithm.
  Sizing the integral batches needed.
  Building batch lookup table.
   Calculation information:
      Number of atoms:                  21
      Number of AO shells:              87
      Number of primitives:            241
      Number of atomic orbitals:       185
      Number of basis functions:       177

      Integral cutoff                 1.00e-12
      Number of threads:                 1

	Batch   1 pq = [       0,    9405] index = [             0,44231715] size =     44231715
	Batch   2 pq = [    9405,   13301] index = [      44231715,88464951] size =     44233236
	Batch   3 pq = [   13301,   15753] index = [      88464951,124086381] size =     35621430
  Task number: 12
  Buffer size: 11059200
  Buffer per thread: 2
  We computed 6276187 shell quartets total.
  Whereas there are 7328706 unique shell quartets.

  ==> DiskJK: Disk-Based J/K Matrices <==

    J tasked:                  Yes
    K tasked:                  Yes
    wK tasked:                  No
    Memory [MiB]:              375
    Schwarz Cutoff:          1E-12

    OpenMP threads:              1

  Minimum eigenvalue in the overlap matrix is 3.5176341751E-03.
  Using Symmetric Orthogonalization.

  SCF Guess: Superposition of Atomic Densities via on-the-fly atomic UHF.

  ==> Iterations <==

                        Total Energy        Delta E     RMS |[F,P]|

   @RHF iter SAD:  -382.91637084093509   -3.82916e+02   0.00000e+00
   @RHF iter   1:  -384.22277031419515   -1.30640e+00   4.42528e-03 DIIS
   @RHF iter   2:  -384.47409590927589   -2.51326e-01   2.41376e-03 DIIS
   @RHF iter   3:  -384.54428870177526   -7.01928e-02   3.92381e-04 DIIS
   @RHF iter   4:  -384.54769783365958   -3.40913e-03   1.55056e-04 DIIS
   @RHF iter   5:  -384.54818017528436   -4.82342e-04   2.30160e-05 DIIS
   @RHF iter   6:  -384.54819517075845   -1.49955e-05   6.36635e-06 DIIS
   @RHF iter   7:  -384.54819610362188   -9.32863e-07   2.30004e-06 DIIS
   @RHF iter   8:  -384.54819620611431   -1.02492e-07   7.95462e-07 DIIS
   @RHF iter   9:  -384.54819621947524   -1.33609e-08   2.24768e-07 DIIS
   @RHF iter  10:  -384.54819622137569   -1.90045e-09   6.70270e-08 DIIS
   @RHF iter  11:  -384.54819622158925   -2.13561e-10   2.10057e-08 DIIS
   @RHF iter  12:  -384.54819622161375   -2.44995e-11   7.91582e-09 DIIS
   @RHF iter  13:  -384.54819622161864   -4.88853e-12   3.02117e-09 DIIS
   @RHF iter  14:  -384.54819622161892   -2.84217e-13   9.43806e-10 DIIS
   @RHF iter  15:  -384.54819622161887    5.68434e-14   3.05238e-10 DIIS
   @RHF iter  16:  -384.54819622161830    5.68434e-13   1.06719e-10 DIIS
   @RHF iter  17:  -384.54819622161949   -1.19371e-12   4.62231e-11 DIIS
  Energy and wave function converged.

  ==> Post-Iterations <==

    Orbital Energies [Eh]
    ---------------------

    Doubly Occupied:

       1A    -20.264191     2A    -20.258186     3A    -11.115719
       4A    -11.109145     5A    -11.107699     6A    -11.099040
       7A    -11.067311     8A    -11.052613     9A     -1.151551
      10A     -1.036967    11A     -0.941839    12A     -0.871781
      13A     -0.814334    14A     -0.702924    15A     -0.683590
      16A     -0.515212    17A     -0.506898    18A     -0.485274
      19A     -0.460990    20A     -0.436179    21A     -0.432494
      22A     -0.426982    23A     -0.392466    24A     -0.366013
      25A     -0.362760    26A     -0.359265    27A     -0.357173
      28A     -0.340389    29A     -0.323876    30A     -0.300618
      31A     -0.184522    32A     -0.172423    33A     -0.161961

    Virtual:

      34A      0.288230    35A      0.320857    36A      0.330882
      37A      0.345043    38A      0.356590    39A      0.374719
      40A      0.382579    41A      0.388075    42A      0.395852
      43A      0.400890    44A      0.424545    45A      0.434686
      46A      0.462571    47A      0.490352    48A      0.514342
      49A      0.536580    50A      0.559699    51A      0.603793
      52A      0.691020    53A      0.695892    54A      0.715491
      55A      0.722514    56A      0.734082    57A      0.745193
      58A      0.764411    59A      0.793433    60A      0.812873
      61A      0.877480    62A      0.893642    63A      0.933652
      64A      0.957731    65A      0.977568    66A      0.986078
      67A      0.991875    68A      0.995339    69A      1.003879
      70A      1.005017    71A      1.013610    72A      1.023727
      73A      1.028473    74A      1.037104    75A      1.048858
      76A      1.051923    77A      1.058796    78A      1.065069
      79A      1.072905    80A      1.077694    81A      1.094297
      82A      1.120954    83A      1.155235    84A      1.164204
      85A      1.229221    86A      1.243935    87A      1.292383
      88A      1.304928    89A      1.318330    90A      1.390562
      91A      1.397812    92A      1.449549    93A      1.494793
      94A      1.504998    95A      1.550230    96A      1.574952
      97A      1.591407    98A      1.616086    99A      1.623363
     100A      1.658193   101A      1.668304   102A      1.674924
     103A      1.729037   104A      1.760111   105A      1.779021
     106A      1.797509   107A      1.823687   108A      1.836773
     109A      1.849598   110A      1.867049   111A      1.923377
     112A      1.966750   113A      1.978964   114A      2.002837
     115A      2.006971   116A      2.020536   117A      2.037346
     118A      2.057217   119A      2.069082   120A      2.073526
     121A      2.081246   122A      2.096163   123A      2.107996
     124A      2.109434   125A      2.118715   126A      2.135452
     127A      2.149322   128A      2.155818   129A      2.180189
     130A      2.188332   131A      2.195729   132A      2.203006
     133A      2.236301   134A      2.267390   135A      2.292130
     136A      2.385064   137A      2.387199   138A      2.397841
     139A      2.424680   140A      2.431792   141A      2.467839
     142A      2.501184   143A      2.510693   144A      2.531478
     145A      2.609273   146A      2.613946   147A      2.644510
     148A      2.676058   149A      2.679221   150A      2.733095
     151A      2.755007   152A      2.760243   153A      2.781085
     154A      2.814057   155A      2.869655   156A      2.876180
     157A      2.890132   158A      2.923433   159A      2.942819
     160A      3.008077   161A      3.010244   162A      3.028017
     163A      3.060292   164A      3.078138   165A      3.091795
     166A      3.130178   167A      3.204951   168A      3.245491
     169A      3.293556   170A      3.301893   171A      3.369089
     172A      3.641787   173A      3.780195   174A      3.825157
     175A      4.062737   176A      4.079667   177A      4.208120

    Final Occupation by Irrep:
              A
    DOCC [    33 ]

  @RHF Final Energy:  -384.54819622161949

   => Energetics <=

    Nuclear Repulsion Energy =            369.1553627652681371
    One-Electron Energy =               -1267.6823468115126161
    Two-Electron Energy =                 513.9787878246249875
    Total Energy =                       -384.5481962216194916

Computation Completed

Properties will be evaluated at   0.000000,   0.000000,   0.000000 [a0]

Properties computed using the SCF density matrix

  Nuclear Dipole Moment: [e a0]
     X:    11.3746      Y:    -7.7782      Z:     0.7503

  Electronic Dipole Moment: [e a0]
     X:    -8.6332      Y:     6.3509      Z:    -0.5018

  Dipole Moment: [e a0]
     X:     2.7414      Y:    -1.4273      Z:     0.2485     Total:     3.1007

  Dipole Moment: [D]
     X:     6.9679      Y:    -3.6279      Z:     0.6317     Total:     7.8812

*** tstop() called on ds3 at Tue Apr 28 15:34:20 2020
Module time:
	user time   =      41.94 seconds =       0.70 minutes
	system time =      17.77 seconds =       0.30 minutes
	total time  =        100 seconds =       1.67 minutes
Total time:
	user time   =      41.94 seconds =       0.70 minutes
	system time =      17.77 seconds =       0.30 minutes
	total time  =        100 seconds =       1.67 minutes
                                     G D M A

                                 by Anthony Stone

                           version 2.2.06, 22 June 2011

               Distributed Multipoles from Gaussian wavefunctions

Starting at 15:34:20 on 28 Apr 2020

Using SCF density matrix from file ./SSI/SSI-062LYS-147GLU-1-dimer.test.845.fchk

                         Distributed Multipole Analysis

Standard DMA

Positions and radii in angstrom
Multipole moments in atomic units, ea_0^k for rank k

C          x =  1.127070  y = -1.852953  z =  0.404681 angstrom
           Maximum rank =  0   Radius =  0.650 angstrom
                   Q00  =  -0.058641

C          x =  1.392070  y = -2.285953  z =  1.843681 angstrom
           Maximum rank =  0   Radius =  0.650 angstrom
                   Q00  =  -0.238395

C          x =  0.573070  y = -3.001953  z = -0.435319 angstrom
           Maximum rank =  0   Radius =  0.650 angstrom
                   Q00  =  -0.231832

H          x =  0.367070  y = -1.077953  z =  0.430681 angstrom
           Maximum rank =  0   Radius =  0.325 angstrom
                   Q00  =   0.090862

H          x =  2.031070  y = -1.451953  z = -0.059319 angstrom
           Maximum rank =  0   Radius =  0.325 angstrom
                   Q00  =   0.026030

H          x =  1.949070  y = -3.222953  z =  1.826681 angstrom
           Maximum rank =  0   Radius =  0.325 angstrom
                   Q00  =   0.034516

H          x =  0.453070  y = -2.475953  z =  2.360681 angstrom
           Maximum rank =  0   Radius =  0.325 angstrom
                   Q00  =   0.088571

H          x = -0.198930  y = -3.523953  z =  0.140681 angstrom
           Maximum rank =  0   Radius =  0.325 angstrom
                   Q00  =   0.070217

H          x =  0.091070  y = -2.574953  z = -1.322319 angstrom
           Maximum rank =  0   Radius =  0.325 angstrom
                   Q00  =   0.098964

H          x =  2.008945  y = -1.560641  z =  2.394488 angstrom
           Maximum rank =  0   Radius =  0.325 angstrom
                   Q00  =   0.075242

H          x =  1.359770  y = -3.701569  z = -0.754131 angstrom
           Maximum rank =  0   Radius =  0.325 angstrom
                   Q00  =   0.045951

C          x =  0.358070  y =  1.785047  z = -0.062319 angstrom
           Maximum rank =  0   Radius =  0.650 angstrom
                   Q00  =  -0.154030

C          x =  0.787070  y =  2.431047  z = -1.372319 angstrom
           Maximum rank =  0   Radius =  0.650 angstrom
                   Q00  =  -0.218805

C          x = -1.033930  y =  1.163047  z = -0.118319 angstrom
           Maximum rank =  0   Radius =  0.650 angstrom
                   Q00  =   0.998342

O          x = -1.611930  y =  1.001047  z = -1.217319 angstrom
           Maximum rank =  0   Radius =  0.650 angstrom
                   Q00  =  -0.962032

O          x = -1.556930  y =  0.844047  z =  0.971681 angstrom
           Maximum rank =  0   Radius =  0.650 angstrom
                   Q00  =  -0.926448

H          x =  1.052070  y =  0.991047  z =  0.179681 angstrom
           Maximum rank =  0   Radius =  0.325 angstrom
                   Q00  =   0.052386

H          x =  0.406070  y =  2.533047  z =  0.732681 angstrom
           Maximum rank =  0   Radius =  0.325 angstrom
                   Q00  =   0.035082

H          x =  0.214070  y =  3.348047  z = -1.507319 angstrom
           Maximum rank =  0   Radius =  0.325 angstrom
                   Q00  =   0.064973

H          x =  0.555070  y =  1.751047  z = -2.185319 angstrom
           Maximum rank =  0   Radius =  0.325 angstrom
                   Q00  =   0.093623

H          x =  1.861074  y =  2.660216  z = -1.435538 angstrom
           Maximum rank =  0   Radius =  0.325 angstrom
                   Q00  =   0.015426

Total multipoles referred to origin at
           x =   0.000000,  y =    0.000000,  z =    0.000000 angstrom
                   Q00  =  -1.000000

Finished at 15:34:20 on 28 Apr 2020

  DMA results are available in the Python driver through the
	  variable('DMA DISTRIBUTED MULTIPOLES')
  and
	  variable('DMA TOTAL MULTIPOLES')
  commands.

    Psi4 stopped on: Tuesday, 28 April 2020 03:34PM
    Psi4 wall time for execution: 0:01:40.31

*** Psi4 exiting successfully. Buy a developer a beer!
