                               Psi4 1.3.2 release

  ==> Input File <==

--------------------------------------------------------------------------
import numpy as np
set {scf_type pk
basis cc-pvdz
d_convergence 10
gdma_switch   0
gdma_limit    0
gdma_origin   [ 0.0,  0.0,  0.0 ]
}
molecule test {
    units Angstrom
    0 1
    --
    0 1
    C                0.212426639030366    -2.304973336179292     3.195666406307592
    C                0.728426639030366    -0.822973336179292     1.091666406307592
    C                0.967426639030366    -1.243973336179292     2.445666406307592
    C                1.662426639030366     0.195026663820708     0.780666406307592
    C                1.997426639030366    -0.481973336179292     2.893666406307592
    C               -0.124573360969634    -0.640973336179292    -1.140333593692408
    C                0.796426639030366     0.373026663820708    -1.418333593692408
    C               -0.166573360969634    -1.240973336179292     0.100666406307592
    C                1.704426639030366     0.807026663820708    -0.463333593692408
    N                2.430426639030366     0.375026663820708     1.901666406307592
    H               -0.805573360969634    -0.968973336179292    -1.907333593692408
    H                0.803426639030366     0.809026663820708    -2.401333593692408
    H               -0.889573360969634    -2.014973336179292     0.307666406307592
    H                2.418426639030366     1.587026663820708    -0.673333593692408
    H                0.787426639030366    -3.224973336179292     3.189666406307592
    H               -0.690573360969634    -2.491973336179293     2.620666406307592
    H                2.434426639030366    -0.545973336179292     3.880666406307592
    H                3.193426639030366     1.037026663820708     2.008666406307591
    H               -0.059313360969634    -2.009383336179293     4.219766406307592
    C               -2.885573360969635     1.283026663820708    -2.400333593692408
    C               -3.972573360969634     2.372026663820708    -2.510333593692408
    C               -2.298573360969634     0.894026663820708    -3.755333593692408
    H               -2.080573360969634     1.638026663820708    -1.755333593692408
    H               -3.282573360969634     0.384026663820708    -1.941333593692408
    H               -4.700573360969634     2.064026663820707    -3.262333593692408
    H               -1.732573360969634     1.720026663820708    -4.183333593692408
    H               -1.630573360969634     0.045026663820708    -3.645333593692409
    H               -3.099573360969635     0.616026663820708    -4.438333593692408
    H               -4.499763360969634     2.492036663820707    -1.552385593692408
    H               -3.517003360969635     3.317756663820708    -2.839034593692408

}
e, wfn = energy('scf', return_wfn=True)
gdma(wfn)
dmavals = variable('DMA DISTRIBUTED MULTIPOLES')
charges = np.array(dmavals)
print(charges)
np.save('SSI-038TRP-082ILE-1-dimer.npy', np.array(charges))--------------------------------------------------------------------------

*** tstart() called on ds3
*** at Mon Apr 27 21:37:29 2020

   => Loading Basis Set <=

    Name: CC-PVDZ
    Role: ORBITAL
    Keyword: BASIS
    atoms 1-9, 20-22   entry C          line   138 file /theoryfs2/ds/metcalf/miniconda2/envs/tf2gpu/share/psi4/basis/cc-pvdz.gbs
    atoms 10           entry N          line   168 file /theoryfs2/ds/metcalf/miniconda2/envs/tf2gpu/share/psi4/basis/cc-pvdz.gbs
    atoms 11-19, 23-30 entry H          line    22 file /theoryfs2/ds/metcalf/miniconda2/envs/tf2gpu/share/psi4/basis/cc-pvdz.gbs

         ---------------------------------------------------------
                                   SCF
               by Justin Turney, Rob Parrish, Andy Simmonett
                          and Daniel G. A. Smith
                              RHF Reference
                        1 Threads,    500 MiB Core
         ---------------------------------------------------------

  ==> Geometry <==

    Molecular point group: c1
    Full point group: C1

    Geometry (in Angstrom), charge = 0, multiplicity = 1:

       Center              X                  Y                   Z               Mass
    ------------   -----------------  -----------------  -----------------  -----------------
         C            0.212426639030    -2.304973336179     3.195666406308    12.000000000000
         C            0.728426639030    -0.822973336179     1.091666406308    12.000000000000
         C            0.967426639030    -1.243973336179     2.445666406308    12.000000000000
         C            1.662426639030     0.195026663821     0.780666406308    12.000000000000
         C            1.997426639030    -0.481973336179     2.893666406308    12.000000000000
         C           -0.124573360970    -0.640973336179    -1.140333593692    12.000000000000
         C            0.796426639030     0.373026663821    -1.418333593692    12.000000000000
         C           -0.166573360970    -1.240973336179     0.100666406308    12.000000000000
         C            1.704426639030     0.807026663821    -0.463333593692    12.000000000000
         N            2.430426639030     0.375026663821     1.901666406308    14.003074004430
         H           -0.805573360970    -0.968973336179    -1.907333593692     1.007825032230
         H            0.803426639030     0.809026663821    -2.401333593692     1.007825032230
         H           -0.889573360970    -2.014973336179     0.307666406308     1.007825032230
         H            2.418426639030     1.587026663821    -0.673333593692     1.007825032230
         H            0.787426639030    -3.224973336179     3.189666406308     1.007825032230
         H           -0.690573360970    -2.491973336179     2.620666406308     1.007825032230
         H            2.434426639030    -0.545973336179     3.880666406308     1.007825032230
         H            3.193426639030     1.037026663821     2.008666406308     1.007825032230
         H           -0.059313360970    -2.009383336179     4.219766406308     1.007825032230
         C           -2.885573360970     1.283026663821    -2.400333593692    12.000000000000
         C           -3.972573360970     2.372026663821    -2.510333593692    12.000000000000
         C           -2.298573360970     0.894026663821    -3.755333593692    12.000000000000
         H           -2.080573360970     1.638026663821    -1.755333593692     1.007825032230
         H           -3.282573360970     0.384026663821    -1.941333593692     1.007825032230
         H           -4.700573360970     2.064026663821    -3.262333593692     1.007825032230
         H           -1.732573360970     1.720026663821    -4.183333593692     1.007825032230
         H           -1.630573360970     0.045026663821    -3.645333593692     1.007825032230
         H           -3.099573360970     0.616026663821    -4.438333593692     1.007825032230
         H           -4.499763360970     2.492036663821    -1.552385593692     1.007825032230
         H           -3.517003360970     3.317756663821    -2.839034593692     1.007825032230

  Running in c1 symmetry.

  Rotational constants: A =      0.04806  B =      0.01058  C =      0.00972 [cm^-1]
  Rotational constants: A =   1440.89472  B =    317.05007  C =    291.45737 [MHz]
  Nuclear repulsion =  732.016595652256342

  Charge       = 0
  Multiplicity = 1
  Electrons    = 96
  Nalpha       = 48
  Nbeta        = 48

  ==> Algorithm <==

  SCF Algorithm Type is PK.
  DIIS enabled.
  MOM disabled.
  Fractional occupation disabled.
  Guess Type is SAD.
  Energy threshold   = 1.00e-06
  Density threshold  = 1.00e-10
  Integral threshold = 0.00e+00

  ==> Primary Basis <==

  Basis Set: CC-PVDZ
    Blend: CC-PVDZ
    Number of shells: 129
    Number of basis function: 267
    Number of Cartesian functions: 280
    Spherical Harmonics?: true
    Max angular momentum: 2

  ==> Pre-Iterations <==

   -------------------------------------------------------
    Irrep   Nso     Nmo     Nalpha   Nbeta   Ndocc  Nsocc
   -------------------------------------------------------
     A        267     267       0       0       0       0
   -------------------------------------------------------
    Total     267     267      48      48      48       0
   -------------------------------------------------------

  ==> Integral Setup <==

  Using integral reordering PK algorithm.
  Sizing the integral batches needed.
  Building batch lookup table.
   Calculation information:
      Number of atoms:                  30
      Number of AO shells:             129
      Number of primitives:            371
      Number of atomic orbitals:       280
      Number of basis functions:       267

      Integral cutoff                 1.00e-12
      Number of threads:                 1

	Batch   1 pq = [       0,    9405] index = [             0,44231715] size =     44231715
	Batch   2 pq = [    9405,   13301] index = [      44231715,88464951] size =     44233236
	Batch   3 pq = [   13301,   16290] index = [      88464951,132690195] size =     44225244
	Batch   4 pq = [   16290,   18810] index = [     132690195,176917455] size =     44227260
	Batch   5 pq = [   18810,   21030] index = [     176917455,221140965] size =     44223510
	Batch   6 pq = [   21030,   23037] index = [     221140965,265363203] size =     44222238
	Batch   7 pq = [   23037,   24883] index = [     265363203,309594286] size =     44231083
	Batch   8 pq = [   24883,   26601] index = [     309594286,353819901] size =     44225615
	Batch   9 pq = [   26601,   28214] index = [     353819901,398029005] size =     44209104
	Batch  10 pq = [   28214,   29740] index = [     398029005,442248670] size =     44219665
	Batch  11 pq = [   29740,   31191] index = [     442248670,486454836] size =     44206166
	Batch  12 pq = [   31191,   32578] index = [     486454836,530679331] size =     44224495
	Batch  13 pq = [   32578,   33908] index = [     530679331,574893186] size =     44213855
	Batch  14 pq = [   33908,   35188] index = [     574893186,619115266] size =     44222080
	Batch  15 pq = [   35188,   35778] index = [     619115266,640050531] size =     20935265
  Task number: 58
  Buffer size: 11059200
  Buffer per thread: 2
  We computed 29401263 shell quartets total.
  Whereas there are 35158305 unique shell quartets.

  ==> DiskJK: Disk-Based J/K Matrices <==

    J tasked:                  Yes
    K tasked:                  Yes
    wK tasked:                  No
    Memory [MiB]:              375
    Schwarz Cutoff:          1E-12

    OpenMP threads:              1

  Minimum eigenvalue in the overlap matrix is 2.3521499210E-04.
  Using Symmetric Orthogonalization.

  SCF Guess: Superposition of Atomic Densities via on-the-fly atomic UHF.

  ==> Iterations <==

                        Total Energy        Delta E     RMS |[F,P]|

   @RHF iter SAD:  -518.09532342597083   -5.18095e+02   0.00000e+00
   @RHF iter   1:  -518.49193958701198   -3.96616e-01   2.49926e-03 DIIS
   @RHF iter   2:  -518.75127990752082   -2.59340e-01   1.10917e-03 DIIS
   @RHF iter   3:  -518.79776923077645   -4.64893e-02   2.87313e-04 DIIS
   @RHF iter   4:  -518.80194989257166   -4.18066e-03   1.30424e-04 DIIS
   @RHF iter   5:  -518.80262905067991   -6.79158e-04   1.93340e-05 DIIS
   @RHF iter   6:  -518.80265957717177   -3.05265e-05   8.53043e-06 DIIS
   @RHF iter   7:  -518.80266567321473   -6.09604e-06   3.41764e-06 DIIS
   @RHF iter   8:  -518.80266723744228   -1.56423e-06   1.41395e-06 DIIS
   @RHF iter   9:  -518.80266757625577   -3.38813e-07   6.13286e-07 DIIS
   @RHF iter  10:  -518.80266764267958   -6.64238e-08   2.73380e-07 DIIS
   @RHF iter  11:  -518.80266765853014   -1.58506e-08   1.07418e-07 DIIS
   @RHF iter  12:  -518.80266766097111   -2.44097e-09   3.93590e-08 DIIS
   @RHF iter  13:  -518.80266766116642   -1.95314e-10   1.08243e-08 DIIS
   @RHF iter  14:  -518.80266766118075   -1.43245e-11   3.94127e-09 DIIS
   @RHF iter  15:  -518.80266766118029    4.54747e-13   2.04118e-09 DIIS
   @RHF iter  16:  -518.80266766118484   -4.54747e-12   8.84684e-10 DIIS
   @RHF iter  17:  -518.80266766118734   -2.50111e-12   4.16142e-10 DIIS
   @RHF iter  18:  -518.80266766119212   -4.77485e-12   1.60417e-10 DIIS
   @RHF iter  19:  -518.80266766118734    4.77485e-12   5.84237e-11 DIIS
  Energy and wave function converged.

  ==> Post-Iterations <==

    Orbital Energies [Eh]
    ---------------------

    Doubly Occupied:

       1A    -15.600347     2A    -11.262654     3A    -11.261536
       4A    -11.229955     5A    -11.227687     6A    -11.227364
       7A    -11.226423     8A    -11.219508     9A    -11.217418
      10A    -11.216767    11A    -11.213743    12A    -11.212154
      13A    -11.210144    14A     -1.292698    15A     -1.129810
      16A     -1.073117    17A     -1.046158    18A     -0.998802
      19A     -0.986560    20A     -0.933013    21A     -0.919828
      22A     -0.839560    23A     -0.804123    24A     -0.792641
      25A     -0.752654    26A     -0.718595    27A     -0.661008
      28A     -0.645106    29A     -0.618953    30A     -0.603655
      31A     -0.594321    32A     -0.591762    33A     -0.588401
      34A     -0.568600    35A     -0.554424    36A     -0.544200
      37A     -0.535140    38A     -0.527601    39A     -0.524381
      40A     -0.493227    41A     -0.473184    42A     -0.468548
      43A     -0.465400    44A     -0.464097    45A     -0.457433
      46A     -0.373268    47A     -0.295299    48A     -0.274547

    Virtual:

      49A      0.125672    50A      0.172023    51A      0.178418
      52A      0.182485    53A      0.193480    54A      0.211999
      55A      0.216793    56A      0.223572    57A      0.227574
      58A      0.241964    59A      0.243176    60A      0.254672
      61A      0.268059    62A      0.271575    63A      0.289780
      64A      0.293565    65A      0.304059    66A      0.312934
      67A      0.313419    68A      0.359989    69A      0.371813
      70A      0.381063    71A      0.394595    72A      0.403905
      73A      0.425120    74A      0.431417    75A      0.452564
      76A      0.468805    77A      0.486988    78A      0.510183
      79A      0.522561    80A      0.579172    81A      0.598545
      82A      0.609009    83A      0.616609    84A      0.624014
      85A      0.629729    86A      0.633367    87A      0.652499
      88A      0.658551    89A      0.677799    90A      0.699124
      91A      0.706859    92A      0.717999    93A      0.728799
      94A      0.736762    95A      0.741108    96A      0.749738
      97A      0.755733    98A      0.763555    99A      0.773595
     100A      0.785200   101A      0.791576   102A      0.796220
     103A      0.821868   104A      0.825257   105A      0.838410
     106A      0.849025   107A      0.862293   108A      0.872151
     109A      0.882080   110A      0.885097   111A      0.891550
     112A      0.894846   113A      0.899413   114A      0.902364
     115A      0.914742   116A      0.923606   117A      0.929592
     118A      0.935926   119A      0.945709   120A      0.955191
     121A      0.955879   122A      0.962224   123A      0.978955
     124A      0.991475   125A      0.997874   126A      1.002628
     127A      1.014192   128A      1.019734   129A      1.056549
     130A      1.084055   131A      1.096341   132A      1.123636
     133A      1.129485   134A      1.139398   135A      1.146549
     136A      1.151181   137A      1.167203   138A      1.191214
     139A      1.208696   140A      1.216343   141A      1.230401
     142A      1.239683   143A      1.245587   144A      1.274406
     145A      1.281807   146A      1.288719   147A      1.301776
     148A      1.330288   149A      1.340930   150A      1.363561
     151A      1.369863   152A      1.402258   153A      1.436381
     154A      1.456142   155A      1.479999   156A      1.491973
     157A      1.518480   158A      1.543489   159A      1.556999
     160A      1.562718   161A      1.599161   162A      1.620224
     163A      1.637685   164A      1.647373   165A      1.659254
     166A      1.678735   167A      1.690430   168A      1.698310
     169A      1.706105   170A      1.710940   171A      1.741628
     172A      1.751216   173A      1.773260   174A      1.794263
     175A      1.816963   176A      1.830962   177A      1.846067
     178A      1.859913   179A      1.877942   180A      1.887454
     181A      1.891445   182A      1.894325   183A      1.897581
     184A      1.902197   185A      1.912993   186A      1.926851
     187A      1.927766   188A      1.940594   189A      1.956651
     190A      1.964146   191A      1.966430   192A      1.972352
     193A      1.978734   194A      1.996229   195A      1.996980
     196A      2.000681   197A      2.010564   198A      2.014552
     199A      2.017694   200A      2.036992   201A      2.046746
     202A      2.059046   203A      2.078810   204A      2.088559
     205A      2.094297   206A      2.098815   207A      2.114894
     208A      2.131027   209A      2.137323   210A      2.151878
     211A      2.157713   212A      2.180633   213A      2.201519
     214A      2.203753   215A      2.239545   216A      2.267643
     217A      2.281112   218A      2.302939   219A      2.311296
     220A      2.315610   221A      2.322521   222A      2.343185
     223A      2.351483   224A      2.358552   225A      2.376913
     226A      2.406852   227A      2.420089   228A      2.458362
     229A      2.475151   230A      2.488086   231A      2.539795
     232A      2.547360   233A      2.585998   234A      2.586856
     235A      2.596200   236A      2.623400   237A      2.627467
     238A      2.643510   239A      2.670892   240A      2.684660
     241A      2.735228   242A      2.759240   243A      2.776738
     244A      2.780458   245A      2.789612   246A      2.795723
     247A      2.797428   248A      2.814956   249A      2.828493
     250A      2.838407   251A      2.844923   252A      2.881792
     253A      2.923648   254A      2.930740   255A      2.965860
     256A      2.976557   257A      2.982755   258A      3.031107
     259A      3.056320   260A      3.069931   261A      3.089059
     262A      3.129016   263A      3.215113   264A      3.313111
     265A      3.377412   266A      3.739736   267A      3.970331

    Final Occupation by Irrep:
              A
    DOCC [    48 ]

  @RHF Final Energy:  -518.80266766118734

   => Energetics <=

    Nuclear Repulsion Energy =            732.0165956522563420
    One-Electron Energy =               -2153.7669018458623214
    Two-Electron Energy =                 902.9476385324185230
    Total Energy =                       -518.8026676611873427

Computation Completed

Properties will be evaluated at   0.000000,   0.000000,   0.000000 [a0]

Properties computed using the SCF density matrix

  Nuclear Dipole Moment: [e a0]
     X:   -16.2732      Y:     4.1742      Z:   -11.6042

  Electronic Dipole Moment: [e a0]
     X:    16.8810      Y:    -3.9306      Z:    12.1580

  Dipole Moment: [e a0]
     X:     0.6078      Y:     0.2436      Z:     0.5538     Total:     0.8576

  Dipole Moment: [D]
     X:     1.5448      Y:     0.6193      Z:     1.4076     Total:     2.1798

*** tstop() called on ds3 at Mon Apr 27 21:43:01 2020
Module time:
	user time   =     238.73 seconds =       3.98 minutes
	system time =     107.02 seconds =       1.78 minutes
	total time  =        332 seconds =       5.53 minutes
Total time:
	user time   =     238.73 seconds =       3.98 minutes
	system time =     107.02 seconds =       1.78 minutes
	total time  =        332 seconds =       5.53 minutes
                                     G D M A

                                 by Anthony Stone

                           version 2.2.06, 22 June 2011

               Distributed Multipoles from Gaussian wavefunctions

Starting at 21:43:1 on 27 Apr 2020

Using SCF density matrix from file ./SSI/SSI-038TRP-082ILE-1-dimer.test.5703.fchk

                         Distributed Multipole Analysis

Standard DMA

Positions and radii in angstrom
Multipole moments in atomic units, ea_0^k for rank k

C          x =  0.212427  y = -2.304973  z =  3.195666 angstrom
           Maximum rank =  0   Radius =  0.650 angstrom
                   Q00  =  -0.217156

C          x =  0.728427  y = -0.822973  z =  1.091666 angstrom
           Maximum rank =  0   Radius =  0.650 angstrom
                   Q00  =  -0.054215

C          x =  0.967427  y = -1.243973  z =  2.445666 angstrom
           Maximum rank =  0   Radius =  0.650 angstrom
                   Q00  =  -0.123882

C          x =  1.662427  y =  0.195027  z =  0.780666 angstrom
           Maximum rank =  0   Radius =  0.650 angstrom
                   Q00  =   0.250997

C          x =  1.997427  y = -0.481973  z =  2.893666 angstrom
           Maximum rank =  0   Radius =  0.650 angstrom
                   Q00  =   0.075907

C          x = -0.124573  y = -0.640973  z = -1.140334 angstrom
           Maximum rank =  0   Radius =  0.650 angstrom
                   Q00  =  -0.094299

C          x =  0.796427  y =  0.373027  z = -1.418334 angstrom
           Maximum rank =  0   Radius =  0.650 angstrom
                   Q00  =  -0.009883

C          x = -0.166573  y = -1.240973  z =  0.100666 angstrom
           Maximum rank =  0   Radius =  0.650 angstrom
                   Q00  =  -0.096396

C          x =  1.704427  y =  0.807027  z = -0.463334 angstrom
           Maximum rank =  0   Radius =  0.650 angstrom
                   Q00  =  -0.119562

N          x =  2.430427  y =  0.375027  z =  1.901666 angstrom
           Maximum rank =  0   Radius =  0.650 angstrom
                   Q00  =  -0.504298

H          x = -0.805573  y = -0.968973  z = -1.907334 angstrom
           Maximum rank =  0   Radius =  0.325 angstrom
                   Q00  =   0.056850

H          x =  0.803427  y =  0.809027  z = -2.401334 angstrom
           Maximum rank =  0   Radius =  0.325 angstrom
                   Q00  =   0.063585

H          x = -0.889573  y = -2.014973  z =  0.307666 angstrom
           Maximum rank =  0   Radius =  0.325 angstrom
                   Q00  =   0.067080

H          x =  2.418427  y =  1.587027  z = -0.673334 angstrom
           Maximum rank =  0   Radius =  0.325 angstrom
                   Q00  =   0.073735

H          x =  0.787427  y = -3.224973  z =  3.189666 angstrom
           Maximum rank =  0   Radius =  0.325 angstrom
                   Q00  =   0.104224

H          x = -0.690573  y = -2.491973  z =  2.620666 angstrom
           Maximum rank =  0   Radius =  0.325 angstrom
                   Q00  =   0.106114

H          x =  2.434427  y = -0.545973  z =  3.880666 angstrom
           Maximum rank =  0   Radius =  0.325 angstrom
                   Q00  =   0.097653

H          x =  3.193427  y =  1.037027  z =  2.008666 angstrom
           Maximum rank =  0   Radius =  0.325 angstrom
                   Q00  =   0.217370

H          x = -0.059313  y = -2.009383  z =  4.219766 angstrom
           Maximum rank =  0   Radius =  0.325 angstrom
                   Q00  =   0.106444

C          x = -2.885573  y =  1.283027  z = -2.400334 angstrom
           Maximum rank =  0   Radius =  0.650 angstrom
                   Q00  =  -0.103428

C          x = -3.972573  y =  2.372027  z = -2.510334 angstrom
           Maximum rank =  0   Radius =  0.650 angstrom
                   Q00  =  -0.218915

C          x = -2.298573  y =  0.894027  z = -3.755334 angstrom
           Maximum rank =  0   Radius =  0.650 angstrom
                   Q00  =  -0.250487

H          x = -2.080573  y =  1.638027  z = -1.755334 angstrom
           Maximum rank =  0   Radius =  0.325 angstrom
                   Q00  =   0.059836

H          x = -3.282573  y =  0.384027  z = -1.941334 angstrom
           Maximum rank =  0   Radius =  0.325 angstrom
                   Q00  =   0.046241

H          x = -4.700573  y =  2.064027  z = -3.262334 angstrom
           Maximum rank =  0   Radius =  0.325 angstrom
                   Q00  =   0.072615

H          x = -1.732573  y =  1.720027  z = -4.183334 angstrom
           Maximum rank =  0   Radius =  0.325 angstrom
                   Q00  =   0.075204

H          x = -1.630573  y =  0.045027  z = -3.645334 angstrom
           Maximum rank =  0   Radius =  0.325 angstrom
                   Q00  =   0.079676

H          x = -3.099573  y =  0.616027  z = -4.438334 angstrom
           Maximum rank =  0   Radius =  0.325 angstrom
                   Q00  =   0.074753

H          x = -4.499763  y =  2.492037  z = -1.552386 angstrom
           Maximum rank =  0   Radius =  0.325 angstrom
                   Q00  =   0.086664

H          x = -3.517003  y =  3.317757  z = -2.839035 angstrom
           Maximum rank =  0   Radius =  0.325 angstrom
                   Q00  =   0.077573

Total multipoles referred to origin at
           x =   0.000000,  y =    0.000000,  z =    0.000000 angstrom
                   Q00  =  -0.000000

Finished at 21:43:1 on 27 Apr 2020

  DMA results are available in the Python driver through the
	  variable('DMA DISTRIBUTED MULTIPOLES')
  and
	  variable('DMA TOTAL MULTIPOLES')
  commands.

    Psi4 stopped on: Monday, 27 April 2020 09:43PM
    Psi4 wall time for execution: 0:05:32.08

*** Psi4 exiting successfully. Buy a developer a beer!
