                               Psi4 1.3.2 release

  ==> Input File <==

--------------------------------------------------------------------------
import numpy as np
set {scf_type pk
basis cc-pvdz
d_convergence 10
gdma_switch   0
gdma_limit    0
gdma_origin   [ 0.0,  0.0,  0.0 ]
}
molecule test {
    units Angstrom
    0 1
    --
    0 1
    C                1.664919591460716     1.586627217634388     0.066853634174933
    C                1.065919591460716     0.395627217634387    -0.663146365825067
    O                0.202919591460715     0.605627217634388    -1.527146365825067
    N                1.460919591460715    -0.808372782365612    -0.285146365825067
    H                0.952919591460715     1.913627217634388     0.824853634174933
    H                1.819919591460716     2.409627217634387    -0.631146365825067
    H                1.042919591460715    -1.602372782365612    -0.749146365825067
    H                2.060919591460715    -0.947372782365613     0.513853634174933
    H                2.606119591460716     1.322317217634388     0.571123634174933
    C               -2.175080408539285    -0.425372782365613     0.540853634174933
    C               -2.158080408539284    -1.245372782365612     1.796853634174933
    H               -2.089080408539285     0.644627217634387     0.717853634174933
    H               -1.354080408539285    -0.749372782365612    -0.091146365825067
    H               -3.063080408539284    -0.682372782365612     0.011853634174933
    H               -2.190080408539284    -2.299372782365613     1.513853634174933
    H               -3.014618408539284    -1.041845782365612     2.456333634174933
    H               -1.212298408539285    -1.056500782365613     2.325833634174933

}
e, wfn = energy('scf', return_wfn=True)
gdma(wfn)
dmavals = variable('DMA DISTRIBUTED MULTIPOLES')
charges = np.array(dmavals)
print(charges)
np.save('SSI-016GLN-048ILE-1-dimer.npy', np.array(charges))--------------------------------------------------------------------------

*** tstart() called on ds3
*** at Tue Apr 28 21:13:02 2020

   => Loading Basis Set <=

    Name: CC-PVDZ
    Role: ORBITAL
    Keyword: BASIS
    atoms 1-2, 10-11 entry C          line   138 file /theoryfs2/ds/metcalf/miniconda2/envs/tf2gpu/share/psi4/basis/cc-pvdz.gbs
    atoms 3          entry O          line   198 file /theoryfs2/ds/metcalf/miniconda2/envs/tf2gpu/share/psi4/basis/cc-pvdz.gbs
    atoms 4          entry N          line   168 file /theoryfs2/ds/metcalf/miniconda2/envs/tf2gpu/share/psi4/basis/cc-pvdz.gbs
    atoms 5-9, 12-17 entry H          line    22 file /theoryfs2/ds/metcalf/miniconda2/envs/tf2gpu/share/psi4/basis/cc-pvdz.gbs

         ---------------------------------------------------------
                                   SCF
               by Justin Turney, Rob Parrish, Andy Simmonett
                          and Daniel G. A. Smith
                              RHF Reference
                        1 Threads,    500 MiB Core
         ---------------------------------------------------------

  ==> Geometry <==

    Molecular point group: c1
    Full point group: C1

    Geometry (in Angstrom), charge = 0, multiplicity = 1:

       Center              X                  Y                   Z               Mass
    ------------   -----------------  -----------------  -----------------  -----------------
         C            1.664919591461     1.586627217634     0.066853634175    12.000000000000
         C            1.065919591461     0.395627217634    -0.663146365825    12.000000000000
         O            0.202919591461     0.605627217634    -1.527146365825    15.994914619570
         N            1.460919591461    -0.808372782366    -0.285146365825    14.003074004430
         H            0.952919591461     1.913627217634     0.824853634175     1.007825032230
         H            1.819919591461     2.409627217634    -0.631146365825     1.007825032230
         H            1.042919591461    -1.602372782366    -0.749146365825     1.007825032230
         H            2.060919591461    -0.947372782366     0.513853634175     1.007825032230
         H            2.606119591461     1.322317217634     0.571123634175     1.007825032230
         C           -2.175080408539    -0.425372782366     0.540853634175    12.000000000000
         C           -2.158080408539    -1.245372782366     1.796853634175    12.000000000000
         H           -2.089080408539     0.644627217634     0.717853634175     1.007825032230
         H           -1.354080408539    -0.749372782366    -0.091146365825     1.007825032230
         H           -3.063080408539    -0.682372782366     0.011853634175     1.007825032230
         H           -2.190080408539    -2.299372782366     1.513853634175     1.007825032230
         H           -3.014618408539    -1.041845782366     2.456333634175     1.007825032230
         H           -1.212298408539    -1.056500782366     2.325833634175     1.007825032230

  Running in c1 symmetry.

  Rotational constants: A =      0.15663  B =      0.04534  C =      0.04381 [cm^-1]
  Rotational constants: A =   4695.77069  B =   1359.39742  C =   1313.43923 [MHz]
  Nuclear repulsion =  238.893888098904199

  Charge       = 0
  Multiplicity = 1
  Electrons    = 50
  Nalpha       = 25
  Nbeta        = 25

  ==> Algorithm <==

  SCF Algorithm Type is PK.
  DIIS enabled.
  MOM disabled.
  Fractional occupation disabled.
  Guess Type is SAD.
  Energy threshold   = 1.00e-06
  Density threshold  = 1.00e-10
  Integral threshold = 0.00e+00

  ==> Primary Basis <==

  Basis Set: CC-PVDZ
    Blend: CC-PVDZ
    Number of shells: 69
    Number of basis function: 139
    Number of Cartesian functions: 145
    Spherical Harmonics?: true
    Max angular momentum: 2

  ==> Pre-Iterations <==

   -------------------------------------------------------
    Irrep   Nso     Nmo     Nalpha   Nbeta   Ndocc  Nsocc
   -------------------------------------------------------
     A        139     139       0       0       0       0
   -------------------------------------------------------
    Total     139     139      25      25      25       0
   -------------------------------------------------------

  ==> Integral Setup <==

  Using integral reordering PK algorithm.
  Sizing the integral batches needed.
  Building batch lookup table.
   Calculation information:
      Number of atoms:                  17
      Number of AO shells:              69
      Number of primitives:            187
      Number of atomic orbitals:       145
      Number of basis functions:       139

      Integral cutoff                 1.00e-12
      Number of threads:                 1

	Batch   1 pq = [       0,    9730] index = [             0,47341315] size =     47341315
  Task number: 5
  Buffer size: 11059200
  Buffer per thread: 2
  We computed 2676736 shell quartets total.
  Whereas there are 2917320 unique shell quartets.

  ==> DiskJK: Disk-Based J/K Matrices <==

    J tasked:                  Yes
    K tasked:                  Yes
    wK tasked:                  No
    Memory [MiB]:              375
    Schwarz Cutoff:          1E-12

    OpenMP threads:              1

  Minimum eigenvalue in the overlap matrix is 4.5307968305E-03.
  Using Symmetric Orthogonalization.

  SCF Guess: Superposition of Atomic Densities via on-the-fly atomic UHF.

  ==> Iterations <==

                        Total Energy        Delta E     RMS |[F,P]|

   @RHF iter SAD:  -285.98697550323317   -2.85987e+02   0.00000e+00
   @RHF iter   1:  -286.98775821594671   -1.00078e+00   4.66959e-03 DIIS
   @RHF iter   2:  -287.16589311828710   -1.78135e-01   2.62450e-03 DIIS
   @RHF iter   3:  -287.21709703185024   -5.12039e-02   5.55785e-04 DIIS
   @RHF iter   4:  -287.22056382188686   -3.46679e-03   2.21963e-04 DIIS
   @RHF iter   5:  -287.22118492695267   -6.21105e-04   3.40550e-05 DIIS
   @RHF iter   6:  -287.22121419771747   -2.92708e-05   1.48419e-05 DIIS
   @RHF iter   7:  -287.22121867938961   -4.48167e-06   5.99027e-06 DIIS
   @RHF iter   8:  -287.22121968320141   -1.00381e-06   2.18485e-06 DIIS
   @RHF iter   9:  -287.22121982599265   -1.42791e-07   5.64364e-07 DIIS
   @RHF iter  10:  -287.22121983323376   -7.24111e-09   1.83860e-07 DIIS
   @RHF iter  11:  -287.22121983405077   -8.17010e-10   4.12304e-08 DIIS
   @RHF iter  12:  -287.22121983409545   -4.46789e-11   9.87736e-09 DIIS
   @RHF iter  13:  -287.22121983409937   -3.92220e-12   2.92470e-09 DIIS
   @RHF iter  14:  -287.22121983409716    2.21689e-12   1.39958e-09 DIIS
   @RHF iter  15:  -287.22121983409983   -2.67164e-12   6.38307e-10 DIIS
   @RHF iter  16:  -287.22121983409875    1.08002e-12   1.93922e-10 DIIS
   @RHF iter  17:  -287.22121983409943   -6.82121e-13   6.42705e-11 DIIS
  Energy and wave function converged.

  ==> Post-Iterations <==

    Orbital Energies [Eh]
    ---------------------

    Doubly Occupied:

       1A    -20.503998     2A    -15.596491     3A    -11.350784
       4A    -11.242301     5A    -11.212361     6A    -11.197437
       7A     -1.363105     8A     -1.223259     9A     -1.019171
      10A     -0.998480    11A     -0.826922    12A     -0.805900
      13A     -0.733082    14A     -0.654465    15A     -0.614622
      16A     -0.598151    17A     -0.590171    18A     -0.566712
      19A     -0.560366    20A     -0.523386    21A     -0.496552
      22A     -0.478493    23A     -0.469689    24A     -0.409413
      25A     -0.405389

    Virtual:

      26A      0.150931    27A      0.190114    28A      0.201983
      29A      0.207167    30A      0.225964    31A      0.247873
      32A      0.256906    33A      0.269566    34A      0.270151
      35A      0.295239    36A      0.307394    37A      0.350099
      38A      0.381387    39A      0.414698    40A      0.466949
      41A      0.555900    42A      0.600134    43A      0.604170
      44A      0.610103    45A      0.632368    46A      0.667246
      47A      0.673940    48A      0.694780    49A      0.699224
      50A      0.717550    51A      0.747906    52A      0.822491
      53A      0.858289    54A      0.869365    55A      0.873403
      56A      0.895101    57A      0.895371    58A      0.897003
      59A      0.908186    60A      0.919343    61A      0.927008
      62A      0.949912    63A      0.959041    64A      0.987141
      65A      1.010313    66A      1.040026    67A      1.056287
      68A      1.111855    69A      1.128316    70A      1.146809
      71A      1.188640    72A      1.263334    73A      1.339006
      74A      1.355351    75A      1.380844    76A      1.411142
      77A      1.431792    78A      1.452681    79A      1.467139
      80A      1.486459    81A      1.518617    82A      1.595509
      83A      1.651048    84A      1.655979    85A      1.684951
      86A      1.701915    87A      1.768252    88A      1.819324
      89A      1.847385    90A      1.861975    91A      1.873556
      92A      1.883375    93A      1.893836    94A      1.915853
      95A      1.932348    96A      1.946829    97A      1.960577
      98A      1.974744    99A      1.977479   100A      1.989750
     101A      2.009232   102A      2.019232   103A      2.037093
     104A      2.084986   105A      2.105087   106A      2.143923
     107A      2.161967   108A      2.226181   109A      2.297847
     110A      2.317151   111A      2.331956   112A      2.409962
     113A      2.441896   114A      2.473307   115A      2.480116
     116A      2.498509   117A      2.539713   118A      2.578746
     119A      2.583024   120A      2.615378   121A      2.639598
     122A      2.740954   123A      2.754688   124A      2.764487
     125A      2.800894   126A      2.837940   127A      2.847625
     128A      2.869334   129A      2.892934   130A      2.976372
     131A      2.984983   132A      3.017448   133A      3.095212
     134A      3.134687   135A      3.265667   136A      3.494063
     137A      3.538672   138A      3.846790   139A      3.896980

    Final Occupation by Irrep:
              A
    DOCC [    25 ]

  @RHF Final Energy:  -287.22121983409943

   => Energetics <=

    Nuclear Repulsion Energy =            238.8938880989041991
    One-Electron Energy =                -863.3488170269662305
    Two-Electron Energy =                 337.2337090939626023
    Total Energy =                       -287.2212198340994291

Computation Completed

Properties will be evaluated at   0.000000,   0.000000,   0.000000 [a0]

Properties computed using the SCF density matrix

  Nuclear Dipole Moment: [e a0]
     X:    -4.1660      Y:    -1.9531      Z:     6.9909

  Electronic Dipole Moment: [e a0]
     X:     5.2773      Y:     1.3859      Z:    -5.9103

  Dipole Moment: [e a0]
     X:     1.1112      Y:    -0.5673      Z:     1.0806     Total:     1.6505

  Dipole Moment: [D]
     X:     2.8244      Y:    -1.4418      Z:     2.7467     Total:     4.1953

*** tstop() called on ds3 at Tue Apr 28 21:13:27 2020
Module time:
	user time   =      17.52 seconds =       0.29 minutes
	system time =       6.33 seconds =       0.11 minutes
	total time  =         25 seconds =       0.42 minutes
Total time:
	user time   =      17.52 seconds =       0.29 minutes
	system time =       6.33 seconds =       0.11 minutes
	total time  =         25 seconds =       0.42 minutes
                                     G D M A

                                 by Anthony Stone

                           version 2.2.06, 22 June 2011

               Distributed Multipoles from Gaussian wavefunctions

Starting at 21:13:27 on 28 Apr 2020

Using SCF density matrix from file ./SSI/SSI-016GLN-048ILE-1-dimer.test.15138.fchk

                         Distributed Multipole Analysis

Standard DMA

Positions and radii in angstrom
Multipole moments in atomic units, ea_0^k for rank k

C          x =  1.664920  y =  1.586627  z =  0.066854 angstrom
           Maximum rank =  0   Radius =  0.650 angstrom
                   Q00  =  -0.257285

C          x =  1.065920  y =  0.395627  z = -0.663146 angstrom
           Maximum rank =  0   Radius =  0.650 angstrom
                   Q00  =   0.799605

O          x =  0.202920  y =  0.605627  z = -1.527146 angstrom
           Maximum rank =  0   Radius =  0.650 angstrom
                   Q00  =  -0.781898

N          x =  1.460920  y = -0.808373  z = -0.285146 angstrom
           Maximum rank =  0   Radius =  0.650 angstrom
                   Q00  =  -0.522978

H          x =  0.952920  y =  1.913627  z =  0.824854 angstrom
           Maximum rank =  0   Radius =  0.325 angstrom
                   Q00  =   0.128251

H          x =  1.819920  y =  2.409627  z = -0.631146 angstrom
           Maximum rank =  0   Radius =  0.325 angstrom
                   Q00  =   0.135793

H          x =  1.042920  y = -1.602373  z = -0.749146 angstrom
           Maximum rank =  0   Radius =  0.325 angstrom
                   Q00  =   0.220555

H          x =  2.060920  y = -0.947373  z =  0.513854 angstrom
           Maximum rank =  0   Radius =  0.325 angstrom
                   Q00  =   0.214323

H          x =  2.606120  y =  1.322317  z =  0.571124 angstrom
           Maximum rank =  0   Radius =  0.325 angstrom
                   Q00  =   0.072586

C          x = -2.175080  y = -0.425373  z =  0.540854 angstrom
           Maximum rank =  0   Radius =  0.650 angstrom
                   Q00  =  -0.202956

C          x = -2.158080  y = -1.245373  z =  1.796854 angstrom
           Maximum rank =  0   Radius =  0.650 angstrom
                   Q00  =  -0.242395

H          x = -2.089080  y =  0.644627  z =  0.717854 angstrom
           Maximum rank =  0   Radius =  0.325 angstrom
                   Q00  =   0.076473

H          x = -1.354080  y = -0.749373  z = -0.091146 angstrom
           Maximum rank =  0   Radius =  0.325 angstrom
                   Q00  =   0.080241

H          x = -3.063080  y = -0.682373  z =  0.011854 angstrom
           Maximum rank =  0   Radius =  0.325 angstrom
                   Q00  =   0.076001

H          x = -2.190080  y = -2.299373  z =  1.513854 angstrom
           Maximum rank =  0   Radius =  0.325 angstrom
                   Q00  =   0.069498

H          x = -3.014618  y = -1.041846  z =  2.456334 angstrom
           Maximum rank =  0   Radius =  0.325 angstrom
                   Q00  =   0.076711

H          x = -1.212298  y = -1.056501  z =  2.325834 angstrom
           Maximum rank =  0   Radius =  0.325 angstrom
                   Q00  =   0.057475

Total multipoles referred to origin at
           x =   0.000000,  y =    0.000000,  z =    0.000000 angstrom
                   Q00  =  -0.000000

Finished at 21:13:27 on 28 Apr 2020

  DMA results are available in the Python driver through the
	  variable('DMA DISTRIBUTED MULTIPOLES')
  and
	  variable('DMA TOTAL MULTIPOLES')
  commands.

    Psi4 stopped on: Tuesday, 28 April 2020 09:13PM
    Psi4 wall time for execution: 0:00:24.48

*** Psi4 exiting successfully. Buy a developer a beer!
