                               Psi4 1.3.2 release

  ==> Input File <==

--------------------------------------------------------------------------
import numpy as np
set {scf_type pk
basis cc-pvdz
d_convergence 10
gdma_switch   0
gdma_limit    0
gdma_origin   [ 0.0,  0.0,  0.0 ]
}
molecule test {
    units Angstrom
    -1 1
    --
    -1 1
    C                0.841867173161696     0.069268309811446     4.460842233009330
    C               -0.397132826838304    -0.116731690188554     3.613842233009330
    O               -0.411132826838304     0.289268309811446     2.435842233009330
    O               -1.353132826838304    -0.686731690188554     4.182842233009330
    H                1.003867173161696    -0.813731690188554     5.080842233009330
    H                0.663867173161696     0.916268309811446     5.126842233009330
    H                1.751707173161696     0.272338309811446     3.876922233009330
    C               -1.132132826838304    -0.634731690188554    -4.538157766990671
    C               -0.507132826838304     0.024268309811446    -0.864157766990670
    C               -1.133132826838304    -0.300731690188554    -2.056157766990670
    C                0.805867173161696     0.384268309811446    -0.838157766990670
    C               -0.429132826838304    -0.294731690188554    -3.250157766990670
    C                1.522867173161696     0.439268309811446    -2.010157766990671
    C                0.908867173161696     0.100268309811446    -3.225157766990670
    O                1.341867173161696     0.699268309811446     0.386842233009330
    H               -1.068132826838304     0.102268309811446     0.042842233009330
    H               -2.185132826838304    -0.558731690188554    -2.051157766990670
    H                0.685867173161696     0.553268309811446     1.098842233009330
    H                2.557867173161696     0.742268309811446    -1.988157766990670
    H               -1.587132826838304    -1.618731690188554    -4.417157766990670
    H               -0.407132826838304    -0.699731690188554    -5.349157766990670
    H                1.478867173161696     0.141268309811446    -4.143157766990670
    H               -1.915598826838304     0.097698309811446    -4.782537766990670

}
e, wfn = energy('scf', return_wfn=True)
gdma(wfn)
dmavals = variable('DMA DISTRIBUTED MULTIPOLES')
charges = np.array(dmavals)
print(charges)
np.save('SSI-050ASP-092TYR-1-dimer.npy', np.array(charges))--------------------------------------------------------------------------

*** tstart() called on ds3
*** at Sun Apr 26 21:07:14 2020

   => Loading Basis Set <=

    Name: CC-PVDZ
    Role: ORBITAL
    Keyword: BASIS
    atoms 1-2, 8-14  entry C          line   138 file /theoryfs2/ds/metcalf/miniconda2/envs/tf2gpu/share/psi4/basis/cc-pvdz.gbs
    atoms 3-4, 15    entry O          line   198 file /theoryfs2/ds/metcalf/miniconda2/envs/tf2gpu/share/psi4/basis/cc-pvdz.gbs
    atoms 5-7, 16-23 entry H          line    22 file /theoryfs2/ds/metcalf/miniconda2/envs/tf2gpu/share/psi4/basis/cc-pvdz.gbs

         ---------------------------------------------------------
                                   SCF
               by Justin Turney, Rob Parrish, Andy Simmonett
                          and Daniel G. A. Smith
                              RHF Reference
                        1 Threads,    500 MiB Core
         ---------------------------------------------------------

  ==> Geometry <==

    Molecular point group: c1
    Full point group: C1

    Geometry (in Angstrom), charge = -1, multiplicity = 1:

       Center              X                  Y                   Z               Mass
    ------------   -----------------  -----------------  -----------------  -----------------
         C            0.841867173162     0.069268309811     4.460842233009    12.000000000000
         C           -0.397132826838    -0.116731690189     3.613842233009    12.000000000000
         O           -0.411132826838     0.289268309811     2.435842233009    15.994914619570
         O           -1.353132826838    -0.686731690189     4.182842233009    15.994914619570
         H            1.003867173162    -0.813731690189     5.080842233009     1.007825032230
         H            0.663867173162     0.916268309811     5.126842233009     1.007825032230
         H            1.751707173162     0.272338309811     3.876922233009     1.007825032230
         C           -1.132132826838    -0.634731690189    -4.538157766991    12.000000000000
         C           -0.507132826838     0.024268309811    -0.864157766991    12.000000000000
         C           -1.133132826838    -0.300731690189    -2.056157766991    12.000000000000
         C            0.805867173162     0.384268309811    -0.838157766991    12.000000000000
         C           -0.429132826838    -0.294731690189    -3.250157766991    12.000000000000
         C            1.522867173162     0.439268309811    -2.010157766991    12.000000000000
         C            0.908867173162     0.100268309811    -3.225157766991    12.000000000000
         O            1.341867173162     0.699268309811     0.386842233009    15.994914619570
         H           -1.068132826838     0.102268309811     0.042842233009     1.007825032230
         H           -2.185132826838    -0.558731690189    -2.051157766991     1.007825032230
         H            0.685867173162     0.553268309811     1.098842233009     1.007825032230
         H            2.557867173162     0.742268309811    -1.988157766991     1.007825032230
         H           -1.587132826838    -1.618731690189    -4.417157766991     1.007825032230
         H           -0.407132826838    -0.699731690189    -5.349157766991     1.007825032230
         H            1.478867173162     0.141268309811    -4.143157766991     1.007825032230
         H           -1.915598826838     0.097698309811    -4.782537766991     1.007825032230

  Running in c1 symmetry.

  Rotational constants: A =      0.07921  B =      0.01077  C =      0.00960 [cm^-1]
  Rotational constants: A =   2374.74684  B =    323.00359  C =    287.71583 [MHz]
  Nuclear repulsion =  632.893880712882265

  Charge       = -1
  Multiplicity = 1
  Electrons    = 90
  Nalpha       = 45
  Nbeta        = 45

  ==> Algorithm <==

  SCF Algorithm Type is PK.
  DIIS enabled.
  MOM disabled.
  Fractional occupation disabled.
  Guess Type is SAD.
  Energy threshold   = 1.00e-06
  Density threshold  = 1.00e-10
  Integral threshold = 0.00e+00

  ==> Primary Basis <==

  Basis Set: CC-PVDZ
    Blend: CC-PVDZ
    Number of shells: 105
    Number of basis function: 223
    Number of Cartesian functions: 235
    Spherical Harmonics?: true
    Max angular momentum: 2

  ==> Pre-Iterations <==

   -------------------------------------------------------
    Irrep   Nso     Nmo     Nalpha   Nbeta   Ndocc  Nsocc
   -------------------------------------------------------
     A        223     223       0       0       0       0
   -------------------------------------------------------
    Total     223     223      45      45      45       0
   -------------------------------------------------------

  ==> Integral Setup <==

  Using integral reordering PK algorithm.
  Sizing the integral batches needed.
  Building batch lookup table.
   Calculation information:
      Number of atoms:                  23
      Number of AO shells:             105
      Number of primitives:            319
      Number of atomic orbitals:       235
      Number of basis functions:       223

      Integral cutoff                 1.00e-12
      Number of threads:                 1

	Batch   1 pq = [       0,    9405] index = [             0,44231715] size =     44231715
	Batch   2 pq = [    9405,   13301] index = [      44231715,88464951] size =     44233236
	Batch   3 pq = [   13301,   16290] index = [      88464951,132690195] size =     44225244
	Batch   4 pq = [   16290,   18810] index = [     132690195,176917455] size =     44227260
	Batch   5 pq = [   18810,   21030] index = [     176917455,221140965] size =     44223510
	Batch   6 pq = [   21030,   23037] index = [     221140965,265363203] size =     44222238
	Batch   7 pq = [   23037,   24976] index = [     265363203,311912776] size =     46549573
  Task number: 29
  Buffer size: 11059200
  Buffer per thread: 2
  We computed 11685266 shell quartets total.
  Whereas there are 15487395 unique shell quartets.

  ==> DiskJK: Disk-Based J/K Matrices <==

    J tasked:                  Yes
    K tasked:                  Yes
    wK tasked:                  No
    Memory [MiB]:              375
    Schwarz Cutoff:          1E-12

    OpenMP threads:              1

  Minimum eigenvalue in the overlap matrix is 3.1380764744E-04.
  Using Symmetric Orthogonalization.

  SCF Guess: Superposition of Atomic Densities via on-the-fly atomic UHF.

  ==> Iterations <==

                        Total Energy        Delta E     RMS |[F,P]|

   @RHF iter SAD:  -570.37558556661816   -5.70376e+02   0.00000e+00
   @RHF iter   1:  -571.56206519524176   -1.18648e+00   3.57815e-03 DIIS
   @RHF iter   2:  -571.83213945134503   -2.70074e-01   1.84887e-03 DIIS
   @RHF iter   3:  -571.89591238184357   -6.37729e-02   3.36240e-04 DIIS
   @RHF iter   4:  -571.89953832109722   -3.62594e-03   1.29083e-04 DIIS
   @RHF iter   5:  -571.90005009162053   -5.11771e-04   2.26755e-05 DIIS
   @RHF iter   6:  -571.90007167437454   -2.15828e-05   1.12052e-05 DIIS
   @RHF iter   7:  -571.90007594582255   -4.27145e-06   3.15023e-06 DIIS
   @RHF iter   8:  -571.90007676430855   -8.18486e-07   1.31524e-06 DIIS
   @RHF iter   9:  -571.90007692422944   -1.59921e-07   5.67199e-07 DIIS
   @RHF iter  10:  -571.90007696152691   -3.72975e-08   2.28687e-07 DIIS
   @RHF iter  11:  -571.90007696842542   -6.89852e-09   9.62978e-08 DIIS
   @RHF iter  12:  -571.90007696949556   -1.07013e-09   3.72774e-08 DIIS
   @RHF iter  13:  -571.90007696965654   -1.60981e-10   1.33134e-08 DIIS
   @RHF iter  14:  -571.90007696967086   -1.43245e-11   5.66603e-09 DIIS
   @RHF iter  15:  -571.90007696966973    1.13687e-12   2.31312e-09 DIIS
   @RHF iter  16:  -571.90007696967768   -7.95808e-12   9.40238e-10 DIIS
   @RHF iter  17:  -571.90007696967348    4.20641e-12   3.10434e-10 DIIS
   @RHF iter  18:  -571.90007696967291    5.68434e-13   1.18767e-10 DIIS
   @RHF iter  19:  -571.90007696967029    2.61480e-12   6.25634e-11 DIIS
  Energy and wave function converged.

  ==> Post-Iterations <==

    Orbital Energies [Eh]
    ---------------------

    Doubly Occupied:

       1A    -20.419494     2A    -20.305934     3A    -20.284298
       4A    -11.168375     5A    -11.147659     6A    -11.141919
       7A    -11.133960     8A    -11.126763     9A    -11.123841
      10A    -11.117704    11A    -11.099681    12A    -11.065811
      13A     -1.238519    14A     -1.185964    15A     -1.074852
      16A     -1.043235    17A     -0.934383    18A     -0.904313
      19A     -0.824758    20A     -0.815695    21A     -0.731250
      22A     -0.683614    23A     -0.599169    24A     -0.556293
      25A     -0.536153    26A     -0.521771    27A     -0.494618
      28A     -0.488167    29A     -0.472393    30A     -0.456607
      31A     -0.443880    32A     -0.438148    33A     -0.431592
      34A     -0.428790    35A     -0.411484    36A     -0.386593
      37A     -0.372852    38A     -0.360431    39A     -0.348769
      40A     -0.333879    41A     -0.226483    42A     -0.220219
      43A     -0.203062    44A     -0.198918    45A     -0.187369

    Virtual:

      46A      0.241683    47A      0.268731    48A      0.272561
      49A      0.303900    50A      0.325397    51A      0.341752
      52A      0.344883    53A      0.357628    54A      0.375336
      55A      0.379910    56A      0.402464    57A      0.430901
      58A      0.460800    59A      0.463762    60A      0.477690
      61A      0.492104    62A      0.551726    63A      0.556564
      64A      0.576907    65A      0.603629    66A      0.618190
      67A      0.634235    68A      0.674287    69A      0.710741
      70A      0.732503    71A      0.737581    72A      0.759731
      73A      0.780008    74A      0.799981    75A      0.801420
      76A      0.808803    77A      0.829852    78A      0.839194
      79A      0.846578    80A      0.856803    81A      0.864273
      82A      0.882510    83A      0.894503    84A      0.897187
      85A      0.905094    86A      0.921841    87A      0.929357
      88A      0.942568    89A      0.957263    90A      0.962619
      91A      0.977119    92A      0.985085    93A      0.997361
      94A      1.012591    95A      1.014618    96A      1.017243
      97A      1.022554    98A      1.035707    99A      1.045764
     100A      1.054132   101A      1.068573   102A      1.086710
     103A      1.127939   104A      1.143106   105A      1.159214
     106A      1.195378   107A      1.213910   108A      1.231332
     109A      1.258501   110A      1.260773   111A      1.280404
     112A      1.316513   113A      1.323409   114A      1.327272
     115A      1.342484   116A      1.353917   117A      1.390092
     118A      1.399760   119A      1.409018   120A      1.425076
     121A      1.449046   122A      1.464202   123A      1.497489
     124A      1.503056   125A      1.524112   126A      1.537939
     127A      1.556044   128A      1.573054   129A      1.615798
     130A      1.620194   131A      1.631445   132A      1.656685
     133A      1.679506   134A      1.698757   135A      1.723973
     136A      1.758276   137A      1.766708   138A      1.780759
     139A      1.809696   140A      1.828452   141A      1.834038
     142A      1.838681   143A      1.849379   144A      1.862593
     145A      1.889770   146A      1.928190   147A      1.933374
     148A      1.966814   149A      1.988453   150A      2.009625
     151A      2.015363   152A      2.021108   153A      2.040906
     154A      2.054191   155A      2.059072   156A      2.062122
     157A      2.078812   158A      2.086772   159A      2.098717
     160A      2.107252   161A      2.124609   162A      2.136785
     163A      2.153669   164A      2.187032   165A      2.189155
     166A      2.198761   167A      2.203368   168A      2.227444
     169A      2.238728   170A      2.298121   171A      2.305860
     172A      2.311112   173A      2.326201   174A      2.354241
     175A      2.363421   176A      2.385469   177A      2.389842
     178A      2.414965   179A      2.424682   180A      2.465080
     181A      2.510883   182A      2.520927   183A      2.553062
     184A      2.574075   185A      2.621207   186A      2.626999
     187A      2.662637   188A      2.665496   189A      2.696250
     190A      2.707480   191A      2.714702   192A      2.787141
     193A      2.853092   194A      2.868050   195A      2.891478
     196A      2.902606   197A      2.915500   198A      2.930459
     199A      2.942242   200A      2.969187   201A      2.980668
     202A      2.999005   203A      3.089114   204A      3.133361
     205A      3.202042   206A      3.219403   207A      3.230799
     208A      3.258938   209A      3.274003   210A      3.335886
     211A      3.410905   212A      3.424135   213A      3.497409
     214A      3.598545   215A      3.730316   216A      3.785954
     217A      3.807925   218A      3.818844   219A      4.031849
     220A      4.076382   221A      4.142869   222A      4.179648
     223A      4.394736

    Final Occupation by Irrep:
              A
    DOCC [    45 ]

  @RHF Final Energy:  -571.90007696967029

   => Energetics <=

    Nuclear Repulsion Energy =            632.8938807128822646
    One-Electron Energy =               -2050.2085934881229150
    Two-Electron Energy =                 845.4146358055703558
    Total Energy =                       -571.9000769696702946

Computation Completed

Properties will be evaluated at   0.000000,   0.000000,   0.000000 [a0]

Properties computed using the SCF density matrix

  Nuclear Dipole Moment: [e a0]
     X:     0.9157      Y:    -0.8100      Z:    -7.0021

  Electronic Dipole Moment: [e a0]
     X:     0.0797      Y:     1.0490      Z:     2.5879

  Dipole Moment: [e a0]
     X:     0.9954      Y:     0.2390      Z:    -4.4142     Total:     4.5313

  Dipole Moment: [D]
     X:     2.5301      Y:     0.6075      Z:   -11.2197     Total:    11.5175

*** tstop() called on ds3 at Sun Apr 26 21:10:40 2020
Module time:
	user time   =     100.65 seconds =       1.68 minutes
	system time =      51.99 seconds =       0.87 minutes
	total time  =        206 seconds =       3.43 minutes
Total time:
	user time   =     100.65 seconds =       1.68 minutes
	system time =      51.99 seconds =       0.87 minutes
	total time  =        206 seconds =       3.43 minutes
                                     G D M A

                                 by Anthony Stone

                           version 2.2.06, 22 June 2011

               Distributed Multipoles from Gaussian wavefunctions

Starting at 21:10:40 on 26 Apr 2020

Using SCF density matrix from file ./SSI/SSI-050ASP-092TYR-1-dimer.test.11021.fchk

                         Distributed Multipole Analysis

Standard DMA

Positions and radii in angstrom
Multipole moments in atomic units, ea_0^k for rank k

C          x =  0.841867  y =  0.069268  z =  4.460842 angstrom
           Maximum rank =  0   Radius =  0.650 angstrom
                   Q00  =  -0.294157

C          x = -0.397133  y = -0.116732  z =  3.613842 angstrom
           Maximum rank =  0   Radius =  0.650 angstrom
                   Q00  =   0.948859

O          x = -0.411133  y =  0.289268  z =  2.435842 angstrom
           Maximum rank =  0   Radius =  0.650 angstrom
                   Q00  =  -0.941843

O          x = -1.353133  y = -0.686732  z =  4.182842 angstrom
           Maximum rank =  0   Radius =  0.650 angstrom
                   Q00  =  -0.906387

H          x =  1.003867  y = -0.813732  z =  5.080842 angstrom
           Maximum rank =  0   Radius =  0.325 angstrom
                   Q00  =   0.072268

H          x =  0.663867  y =  0.916268  z =  5.126842 angstrom
           Maximum rank =  0   Radius =  0.325 angstrom
                   Q00  =   0.085425

H          x =  1.751707  y =  0.272338  z =  3.876922 angstrom
           Maximum rank =  0   Radius =  0.325 angstrom
                   Q00  =   0.061969

C          x = -1.132133  y = -0.634732  z = -4.538158 angstrom
           Maximum rank =  0   Radius =  0.650 angstrom
                   Q00  =  -0.198002

C          x = -0.507133  y =  0.024268  z = -0.864158 angstrom
           Maximum rank =  0   Radius =  0.650 angstrom
                   Q00  =  -0.046764

C          x = -1.133133  y = -0.300732  z = -2.056158 angstrom
           Maximum rank =  0   Radius =  0.650 angstrom
                   Q00  =  -0.010414

C          x =  0.805867  y =  0.384268  z = -0.838158 angstrom
           Maximum rank =  0   Radius =  0.650 angstrom
                   Q00  =   0.317492

C          x = -0.429133  y = -0.294732  z = -3.250158 angstrom
           Maximum rank =  0   Radius =  0.650 angstrom
                   Q00  =  -0.158191

C          x =  1.522867  y =  0.439268  z = -2.010158 angstrom
           Maximum rank =  0   Radius =  0.650 angstrom
                   Q00  =  -0.089485

C          x =  0.908867  y =  0.100268  z = -3.225158 angstrom
           Maximum rank =  0   Radius =  0.650 angstrom
                   Q00  =  -0.065516

O          x =  1.341867  y =  0.699268  z =  0.386842 angstrom
           Maximum rank =  0   Radius =  0.650 angstrom
                   Q00  =  -0.774675

H          x = -1.068133  y =  0.102268  z =  0.042842 angstrom
           Maximum rank =  0   Radius =  0.325 angstrom
                   Q00  =   0.084418

H          x = -2.185133  y = -0.558732  z = -2.051158 angstrom
           Maximum rank =  0   Radius =  0.325 angstrom
                   Q00  =   0.042940

H          x =  0.685867  y =  0.553268  z =  1.098842 angstrom
           Maximum rank =  0   Radius =  0.325 angstrom
                   Q00  =   0.527366

H          x =  2.557867  y =  0.742268  z = -1.988158 angstrom
           Maximum rank =  0   Radius =  0.325 angstrom
                   Q00  =   0.055412

H          x = -1.587133  y = -1.618732  z = -4.417158 angstrom
           Maximum rank =  0   Radius =  0.325 angstrom
                   Q00  =   0.084742

H          x = -0.407133  y = -0.699732  z = -5.349158 angstrom
           Maximum rank =  0   Radius =  0.325 angstrom
                   Q00  =   0.082724

H          x =  1.478867  y =  0.141268  z = -4.143158 angstrom
           Maximum rank =  0   Radius =  0.325 angstrom
                   Q00  =   0.037173

H          x = -1.915599  y =  0.097698  z = -4.782538 angstrom
           Maximum rank =  0   Radius =  0.325 angstrom
                   Q00  =   0.084645

Total multipoles referred to origin at
           x =   0.000000,  y =    0.000000,  z =    0.000000 angstrom
                   Q00  =  -1.000000

Finished at 21:10:40 on 26 Apr 2020

  DMA results are available in the Python driver through the
	  variable('DMA DISTRIBUTED MULTIPOLES')
  and
	  variable('DMA TOTAL MULTIPOLES')
  commands.

    Psi4 stopped on: Sunday, 26 April 2020 09:10PM
    Psi4 wall time for execution: 0:03:25.77

*** Psi4 exiting successfully. Buy a developer a beer!
