                               Psi4 1.3.2 release

  ==> Input File <==

--------------------------------------------------------------------------
import numpy as np
set {scf_type pk
basis cc-pvdz
d_convergence 10
gdma_switch   0
gdma_limit    0
gdma_origin   [ 0.0,  0.0,  0.0 ]
}
molecule test {
    units Angstrom
    0 1
    --
    0 1
    C               -0.687818915058048     0.144141794309059     1.613744006888461
    C               -0.529818915058048     1.183141794309059     2.699744006888461
    C               -1.057818915058048     0.762141794309059     0.291744006888461
    O               -1.026818915058048     1.986141794309059     0.113744006888461
    N               -1.417818915058048    -0.081858205690941    -0.659255993111539
    H                0.242181084941952    -0.402858205690941     1.519744006888461
    H               -1.472818915058048    -0.560858205690941     1.897744006888461
    H                0.275181084941952     1.854141794309059     2.391744006888461
    H               -1.767818915058048     0.311141794309059    -1.530255993111539
    H               -1.553818915058048    -1.061858205690941    -0.462255993111539
    H               -0.239098915058048     0.701405794309059     3.644954006888461
    H               -1.445168915058048     1.779666794309059     2.827414006888461
    C                1.197181084941952    -1.136858205690941    -0.991255993111539
    C                1.194181084941952    -0.819858205690941    -2.507255993111539
    C                2.332181084941952    -1.994858205690941    -0.437255993111539
    H                1.197181084941952    -0.196858205690941    -0.447255993111539
    H                0.305181084941952    -1.729858205690941    -0.799255993111539
    H                0.302181084941952    -0.236858205690941    -2.738255993111539
    H                1.108181084941952    -1.761858205690941    -3.051255993111539
    H                2.405181084941952    -2.902858205690941    -1.046255993111539
    H                3.281181084941952    -1.454858205690941    -0.529255993111539
    H                2.066417084941952    -0.280487205690941    -2.905105993111539
    H                2.142946084941952    -2.268998205690941     0.611094006888461

}
e, wfn = energy('scf', return_wfn=True)
gdma(wfn)
dmavals = variable('DMA DISTRIBUTED MULTIPOLES')
charges = np.array(dmavals)
print(charges)
np.save('SSI-087ASN-091LYS-1-dimer.npy', np.array(charges))--------------------------------------------------------------------------

*** tstart() called on ds3
*** at Mon Apr 27 08:26:43 2020

   => Loading Basis Set <=

    Name: CC-PVDZ
    Role: ORBITAL
    Keyword: BASIS
    atoms 1-3, 13-15  entry C          line   138 file /theoryfs2/ds/metcalf/miniconda2/envs/tf2gpu/share/psi4/basis/cc-pvdz.gbs
    atoms 4           entry O          line   198 file /theoryfs2/ds/metcalf/miniconda2/envs/tf2gpu/share/psi4/basis/cc-pvdz.gbs
    atoms 5           entry N          line   168 file /theoryfs2/ds/metcalf/miniconda2/envs/tf2gpu/share/psi4/basis/cc-pvdz.gbs
    atoms 6-12, 16-23 entry H          line    22 file /theoryfs2/ds/metcalf/miniconda2/envs/tf2gpu/share/psi4/basis/cc-pvdz.gbs

         ---------------------------------------------------------
                                   SCF
               by Justin Turney, Rob Parrish, Andy Simmonett
                          and Daniel G. A. Smith
                              RHF Reference
                        1 Threads,    500 MiB Core
         ---------------------------------------------------------

  ==> Geometry <==

    Molecular point group: c1
    Full point group: C1

    Geometry (in Angstrom), charge = 0, multiplicity = 1:

       Center              X                  Y                   Z               Mass
    ------------   -----------------  -----------------  -----------------  -----------------
         C           -0.687818915058     0.144141794309     1.613744006888    12.000000000000
         C           -0.529818915058     1.183141794309     2.699744006888    12.000000000000
         C           -1.057818915058     0.762141794309     0.291744006888    12.000000000000
         O           -1.026818915058     1.986141794309     0.113744006888    15.994914619570
         N           -1.417818915058    -0.081858205691    -0.659255993112    14.003074004430
         H            0.242181084942    -0.402858205691     1.519744006888     1.007825032230
         H           -1.472818915058    -0.560858205691     1.897744006888     1.007825032230
         H            0.275181084942     1.854141794309     2.391744006888     1.007825032230
         H           -1.767818915058     0.311141794309    -1.530255993112     1.007825032230
         H           -1.553818915058    -1.061858205691    -0.462255993112     1.007825032230
         H           -0.239098915058     0.701405794309     3.644954006888     1.007825032230
         H           -1.445168915058     1.779666794309     2.827414006888     1.007825032230
         C            1.197181084942    -1.136858205691    -0.991255993112    12.000000000000
         C            1.194181084942    -0.819858205691    -2.507255993112    12.000000000000
         C            2.332181084942    -1.994858205691    -0.437255993112    12.000000000000
         H            1.197181084942    -0.196858205691    -0.447255993112     1.007825032230
         H            0.305181084942    -1.729858205691    -0.799255993112     1.007825032230
         H            0.302181084942    -0.236858205691    -2.738255993112     1.007825032230
         H            1.108181084942    -1.761858205691    -3.051255993112     1.007825032230
         H            2.405181084942    -2.902858205691    -1.046255993112     1.007825032230
         H            3.281181084942    -1.454858205691    -0.529255993112     1.007825032230
         H            2.066417084942    -0.280487205691    -2.905105993112     1.007825032230
         H            2.142946084942    -2.268998205691     0.611094006888     1.007825032230

  Running in c1 symmetry.

  Rotational constants: A =      0.08477  B =      0.03256  C =      0.02666 [cm^-1]
  Rotational constants: A =   2541.23519  B =    976.09553  C =    799.18460 [MHz]
  Nuclear repulsion =  394.964476985226611

  Charge       = 0
  Multiplicity = 1
  Electrons    = 66
  Nalpha       = 33
  Nbeta        = 33

  ==> Algorithm <==

  SCF Algorithm Type is PK.
  DIIS enabled.
  MOM disabled.
  Fractional occupation disabled.
  Guess Type is SAD.
  Energy threshold   = 1.00e-06
  Density threshold  = 1.00e-10
  Integral threshold = 0.00e+00

  ==> Primary Basis <==

  Basis Set: CC-PVDZ
    Blend: CC-PVDZ
    Number of shells: 93
    Number of basis function: 187
    Number of Cartesian functions: 195
    Spherical Harmonics?: true
    Max angular momentum: 2

  ==> Pre-Iterations <==

   -------------------------------------------------------
    Irrep   Nso     Nmo     Nalpha   Nbeta   Ndocc  Nsocc
   -------------------------------------------------------
     A        187     187       0       0       0       0
   -------------------------------------------------------
    Total     187     187      33      33      33       0
   -------------------------------------------------------

  ==> Integral Setup <==

  Using integral reordering PK algorithm.
  Sizing the integral batches needed.
  Building batch lookup table.
   Calculation information:
      Number of atoms:                  23
      Number of AO shells:              93
      Number of primitives:            251
      Number of atomic orbitals:       195
      Number of basis functions:       187

      Integral cutoff                 1.00e-12
      Number of threads:                 1

	Batch   1 pq = [       0,    9405] index = [             0,44231715] size =     44231715
	Batch   2 pq = [    9405,   13301] index = [      44231715,88464951] size =     44233236
	Batch   3 pq = [   13301,   16290] index = [      88464951,132690195] size =     44225244
	Batch   4 pq = [   16290,   17578] index = [     132690195,154501831] size =     21811636
  Task number: 14
  Buffer size: 11059200
  Buffer per thread: 2
  We computed 9097176 shell quartets total.
  Whereas there are 9555006 unique shell quartets.

  ==> DiskJK: Disk-Based J/K Matrices <==

    J tasked:                  Yes
    K tasked:                  Yes
    wK tasked:                  No
    Memory [MiB]:              375
    Schwarz Cutoff:          1E-12

    OpenMP threads:              1

  Minimum eigenvalue in the overlap matrix is 2.7206189608E-03.
  Using Symmetric Orthogonalization.

  SCF Guess: Superposition of Atomic Densities via on-the-fly atomic UHF.

  ==> Iterations <==

                        Total Energy        Delta E     RMS |[F,P]|

   @RHF iter SAD:  -364.09058879598996   -3.64091e+02   0.00000e+00
   @RHF iter   1:  -364.99257932275475   -9.01991e-01   3.76643e-03 DIIS
   @RHF iter   2:  -365.21892819518473   -2.26349e-01   2.03920e-03 DIIS
   @RHF iter   3:  -365.27778412199632   -5.88559e-02   4.64565e-04 DIIS
   @RHF iter   4:  -365.28222253143781   -4.43841e-03   1.94136e-04 DIIS
   @RHF iter   5:  -365.28301211862276   -7.89587e-04   2.76133e-05 DIIS
   @RHF iter   6:  -365.28304860380075   -3.64852e-05   1.11978e-05 DIIS
   @RHF iter   7:  -365.28305363458423   -5.03078e-06   4.68020e-06 DIIS
   @RHF iter   8:  -365.28305473344415   -1.09886e-06   1.75267e-06 DIIS
   @RHF iter   9:  -365.28305489739512   -1.63951e-07   4.33390e-07 DIIS
   @RHF iter  10:  -365.28305490501191   -7.61679e-09   1.50109e-07 DIIS
   @RHF iter  11:  -365.28305490589958   -8.87667e-10   4.05076e-08 DIIS
   @RHF iter  12:  -365.28305490597126   -7.16796e-11   1.01622e-08 DIIS
   @RHF iter  13:  -365.28305490597529   -4.03588e-12   3.08741e-09 DIIS
   @RHF iter  14:  -365.28305490597756   -2.27374e-12   1.27046e-09 DIIS
   @RHF iter  15:  -365.28305490597592    1.64846e-12   6.02069e-10 DIIS
   @RHF iter  16:  -365.28305490597558    3.41061e-13   2.34295e-10 DIIS
   @RHF iter  17:  -365.28305490597745   -1.87583e-12   8.71379e-11 DIIS
  Energy and wave function converged.

  ==> Post-Iterations <==

    Orbital Energies [Eh]
    ---------------------

    Doubly Occupied:

       1A    -20.506498     2A    -15.585432     3A    -11.343557
       4A    -11.237215     5A    -11.225525     6A    -11.222137
       7A    -11.221801     8A    -11.219150     9A     -1.365357
      10A     -1.218073    11A     -1.055112    12A     -1.051519
      13A     -0.931656    14A     -0.887347    15A     -0.803660
      16A     -0.782634    17A     -0.721335    18A     -0.665655
      19A     -0.644064    20A     -0.631304    21A     -0.595671
      22A     -0.586068    23A     -0.562126    24A     -0.541702
      25A     -0.534789    26A     -0.518467    27A     -0.506060
      28A     -0.488467    29A     -0.483252    30A     -0.473340
      31A     -0.462017    32A     -0.411946    33A     -0.398580

    Virtual:

      34A      0.156450    35A      0.180128    36A      0.190449
      37A      0.205429    38A      0.210379    39A      0.226063
      40A      0.244990    41A      0.249267    42A      0.262199
      43A      0.265119    44A      0.278130    45A      0.291037
      46A      0.306984    47A      0.309595    48A      0.321753
      49A      0.348881    50A      0.380427    51A      0.389147
      52A      0.417990    53A      0.440080    54A      0.482636
      55A      0.554276    56A      0.567365    57A      0.588587
      58A      0.598658    59A      0.611236    60A      0.621652
      61A      0.644457    62A      0.669075    63A      0.677676
      64A      0.718528    65A      0.751286    66A      0.776835
      67A      0.793741    68A      0.804683    69A      0.822774
      70A      0.847424    71A      0.860352    72A      0.872876
      73A      0.876803    74A      0.885752    75A      0.889936
      76A      0.896067    77A      0.900141    78A      0.901666
      79A      0.903253    80A      0.909254    81A      0.923156
      82A      0.930533    83A      0.946726    84A      0.961633
      85A      0.963228    86A      0.974852    87A      0.979634
      88A      0.993356    89A      1.059715    90A      1.081832
      91A      1.096477    92A      1.121791    93A      1.132971
      94A      1.146567    95A      1.214051    96A      1.233595
      97A      1.313100    98A      1.330252    99A      1.350797
     100A      1.372277   101A      1.393951   102A      1.421820
     103A      1.431512   104A      1.459009   105A      1.483552
     106A      1.500789   107A      1.527516   108A      1.589676
     109A      1.627331   110A      1.652747   111A      1.663645
     112A      1.678518   113A      1.688499   114A      1.694878
     115A      1.697210   116A      1.751789   117A      1.773729
     118A      1.808387   119A      1.836623   120A      1.854202
     121A      1.871362   122A      1.879448   123A      1.890321
     124A      1.902832   125A      1.903246   126A      1.916566
     127A      1.935570   128A      1.942197   129A      1.954221
     130A      1.965582   131A      1.969894   132A      1.997995
     133A      2.003192   134A      2.015430   135A      2.020848
     136A      2.024278   137A      2.031097   138A      2.050364
     139A      2.055926   140A      2.081624   141A      2.104229
     142A      2.153462   143A      2.167948   144A      2.195169
     145A      2.202771   146A      2.244297   147A      2.266429
     148A      2.299787   149A      2.312488   150A      2.326974
     151A      2.341188   152A      2.402947   153A      2.407850
     154A      2.434155   155A      2.492872   156A      2.509708
     157A      2.524207   158A      2.554012   159A      2.566429
     160A      2.593160   161A      2.600160   162A      2.609875
     163A      2.616929   164A      2.639318   165A      2.683608
     166A      2.746833   167A      2.751728   168A      2.766416
     169A      2.770842   170A      2.775873   171A      2.816196
     172A      2.831713   173A      2.904884   174A      2.907563
     175A      2.912044   176A      2.960617   177A      2.981759
     178A      2.995705   179A      3.044113   180A      3.069821
     181A      3.109918   182A      3.160993   183A      3.308055
     184A      3.509497   185A      3.544894   186A      3.860137
     187A      3.898211

    Final Occupation by Irrep:
              A
    DOCC [    33 ]

  @RHF Final Energy:  -365.28305490597745

   => Energetics <=

    Nuclear Repulsion Energy =            394.9644769852266109
    One-Electron Energy =               -1278.7320287726736296
    Two-Electron Energy =                 518.4844968814695676
    Total Energy =                       -365.2830549059774512

Computation Completed

Properties will be evaluated at   0.000000,   0.000000,   0.000000 [a0]

Properties computed using the SCF density matrix

  Nuclear Dipole Moment: [e a0]
     X:     6.4181      Y:    -7.6886      Z:    -0.5755

  Electronic Dipole Moment: [e a0]
     X:    -6.6828      Y:     6.1359      Z:     0.5133

  Dipole Moment: [e a0]
     X:    -0.2647      Y:    -1.5527      Z:    -0.0621     Total:     1.5763

  Dipole Moment: [D]
     X:    -0.6727      Y:    -3.9466      Z:    -0.1578     Total:     4.0066

*** tstop() called on ds3 at Mon Apr 27 08:31:16 2020
Module time:
	user time   =      56.66 seconds =       0.94 minutes
	system time =      20.25 seconds =       0.34 minutes
	total time  =        273 seconds =       4.55 minutes
Total time:
	user time   =      56.66 seconds =       0.94 minutes
	system time =      20.25 seconds =       0.34 minutes
	total time  =        273 seconds =       4.55 minutes
                                     G D M A

                                 by Anthony Stone

                           version 2.2.06, 22 June 2011

               Distributed Multipoles from Gaussian wavefunctions

Starting at 8:31:16 on 27 Apr 2020

Using SCF density matrix from file ./SSI/SSI-087ASN-091LYS-1-dimer.test.897.fchk

                         Distributed Multipole Analysis

Standard DMA

Positions and radii in angstrom
Multipole moments in atomic units, ea_0^k for rank k

C          x = -0.687819  y =  0.144142  z =  1.613744 angstrom
           Maximum rank =  0   Radius =  0.650 angstrom
                   Q00  =  -0.194834

C          x = -0.529819  y =  1.183142  z =  2.699744 angstrom
           Maximum rank =  0   Radius =  0.650 angstrom
                   Q00  =  -0.201397

C          x = -1.057819  y =  0.762142  z =  0.291744 angstrom
           Maximum rank =  0   Radius =  0.650 angstrom
                   Q00  =   0.869375

O          x = -1.026819  y =  1.986142  z =  0.113744 angstrom
           Maximum rank =  0   Radius =  0.650 angstrom
                   Q00  =  -0.823847

N          x = -1.417819  y = -0.081858  z = -0.659256 angstrom
           Maximum rank =  0   Radius =  0.650 angstrom
                   Q00  =  -0.498301

H          x =  0.242181  y = -0.402858  z =  1.519744 angstrom
           Maximum rank =  0   Radius =  0.325 angstrom
                   Q00  =   0.105914

H          x = -1.472819  y = -0.560858  z =  1.897744 angstrom
           Maximum rank =  0   Radius =  0.325 angstrom
                   Q00  =   0.071961

H          x =  0.275181  y =  1.854142  z =  2.391744 angstrom
           Maximum rank =  0   Radius =  0.325 angstrom
                   Q00  =   0.103662

H          x = -1.767819  y =  0.311142  z = -1.530256 angstrom
           Maximum rank =  0   Radius =  0.325 angstrom
                   Q00  =   0.215389

H          x = -1.553819  y = -1.061858  z = -0.462256 angstrom
           Maximum rank =  0   Radius =  0.325 angstrom
                   Q00  =   0.203792

H          x = -0.239099  y =  0.701406  z =  3.644954 angstrom
           Maximum rank =  0   Radius =  0.325 angstrom
                   Q00  =   0.075569

H          x = -1.445169  y =  1.779667  z =  2.827414 angstrom
           Maximum rank =  0   Radius =  0.325 angstrom
                   Q00  =   0.099682

C          x =  1.197181  y = -1.136858  z = -0.991256 angstrom
           Maximum rank =  0   Radius =  0.650 angstrom
                   Q00  =  -0.070680

C          x =  1.194181  y = -0.819858  z = -2.507256 angstrom
           Maximum rank =  0   Radius =  0.650 angstrom
                   Q00  =  -0.236388

C          x =  2.332181  y = -1.994858  z = -0.437256 angstrom
           Maximum rank =  0   Radius =  0.650 angstrom
                   Q00  =  -0.241494

H          x =  1.197181  y = -0.196858  z = -0.447256 angstrom
           Maximum rank =  0   Radius =  0.325 angstrom
                   Q00  =   0.040158

H          x =  0.305181  y = -1.729858  z = -0.799256 angstrom
           Maximum rank =  0   Radius =  0.325 angstrom
                   Q00  =   0.000553

H          x =  0.302181  y = -0.236858  z = -2.738256 angstrom
           Maximum rank =  0   Radius =  0.325 angstrom
                   Q00  =   0.082371

H          x =  1.108181  y = -1.761858  z = -3.051256 angstrom
           Maximum rank =  0   Radius =  0.325 angstrom
                   Q00  =   0.070737

H          x =  2.405181  y = -2.902858  z = -1.046256 angstrom
           Maximum rank =  0   Radius =  0.325 angstrom
                   Q00  =   0.074553

H          x =  3.281181  y = -1.454858  z = -0.529256 angstrom
           Maximum rank =  0   Radius =  0.325 angstrom
                   Q00  =   0.082504

H          x =  2.066417  y = -0.280487  z = -2.905106 angstrom
           Maximum rank =  0   Radius =  0.325 angstrom
                   Q00  =   0.090528

H          x =  2.142946  y = -2.268998  z =  0.611094 angstrom
           Maximum rank =  0   Radius =  0.325 angstrom
                   Q00  =   0.080192

Total multipoles referred to origin at
           x =   0.000000,  y =    0.000000,  z =    0.000000 angstrom
                   Q00  =  -0.000000

Finished at 8:31:16 on 27 Apr 2020

  DMA results are available in the Python driver through the
	  variable('DMA DISTRIBUTED MULTIPOLES')
  and
	  variable('DMA TOTAL MULTIPOLES')
  commands.

    Psi4 stopped on: Monday, 27 April 2020 08:31AM
    Psi4 wall time for execution: 0:04:32.79

*** Psi4 exiting successfully. Buy a developer a beer!
