                               Psi4 1.3.2 release

  ==> Input File <==

--------------------------------------------------------------------------
import numpy as np
set {scf_type pk
basis cc-pvdz
d_convergence 10
gdma_switch   0
gdma_limit    0
gdma_origin   [ 0.0,  0.0,  0.0 ]
}
molecule test {
    units Angstrom
    0 1
    --
    0 1
    C               -0.175379888471552    -1.297880218870006     1.306573268915459
    C               -1.459379888471552    -1.336880218870006     2.125573268915459
    H                0.480620111528448    -2.107880218870007     1.621573268915459
    H               -0.413379888471552    -1.434880218870007     0.251573268915459
    H                0.332620111528448    -0.341880218870007     1.437573268915459
    H               -1.951379888471552    -2.275880218870006     1.883573268915459
    H               -1.237513388471552    -1.348260218870006     3.202906268915459
    H               -2.142770888471552    -0.521100218870007     1.847208268915459
    C                0.799620111528448     0.561119781129993    -1.765426731084541
    C                0.841620111528448     2.087119781129994    -1.667426731084541
    H                1.412620111528448     0.215119781129993    -2.600426731084541
    H                1.120620111528448     0.089119781129993    -0.842426731084541
    H               -0.214379888471552     0.195119781129993    -1.907426731084541
    H                0.341620111528448     2.376119781129994    -0.746426731084541
    H                0.310127711528448     2.557396781129994    -2.507876731084541
    H                1.884034111528448     2.436511781129993    -1.631406731084541

}
e, wfn = energy('scf', return_wfn=True)
gdma(wfn)
dmavals = variable('DMA DISTRIBUTED MULTIPOLES')
charges = np.array(dmavals)
print(charges)
np.save('SSI-009VAL-084ILE-1-dimer.npy', np.array(charges))--------------------------------------------------------------------------

*** tstart() called on ds3
*** at Tue Apr 28 03:20:34 2020

   => Loading Basis Set <=

    Name: CC-PVDZ
    Role: ORBITAL
    Keyword: BASIS
    atoms 1-2, 9-10  entry C          line   138 file /theoryfs2/ds/metcalf/miniconda2/envs/tf2gpu/share/psi4/basis/cc-pvdz.gbs
    atoms 3-8, 11-16 entry H          line    22 file /theoryfs2/ds/metcalf/miniconda2/envs/tf2gpu/share/psi4/basis/cc-pvdz.gbs

         ---------------------------------------------------------
                                   SCF
               by Justin Turney, Rob Parrish, Andy Simmonett
                          and Daniel G. A. Smith
                              RHF Reference
                        1 Threads,    500 MiB Core
         ---------------------------------------------------------

  ==> Geometry <==

    Molecular point group: c1
    Full point group: C1

    Geometry (in Angstrom), charge = 0, multiplicity = 1:

       Center              X                  Y                   Z               Mass
    ------------   -----------------  -----------------  -----------------  -----------------
         C           -0.175379888472    -1.297880218870     1.306573268915    12.000000000000
         C           -1.459379888472    -1.336880218870     2.125573268915    12.000000000000
         H            0.480620111528    -2.107880218870     1.621573268915     1.007825032230
         H           -0.413379888472    -1.434880218870     0.251573268915     1.007825032230
         H            0.332620111528    -0.341880218870     1.437573268915     1.007825032230
         H           -1.951379888472    -2.275880218870     1.883573268915     1.007825032230
         H           -1.237513388472    -1.348260218870     3.202906268915     1.007825032230
         H           -2.142770888472    -0.521100218870     1.847208268915     1.007825032230
         C            0.799620111528     0.561119781130    -1.765426731085    12.000000000000
         C            0.841620111528     2.087119781130    -1.667426731085    12.000000000000
         H            1.412620111528     0.215119781130    -2.600426731085     1.007825032230
         H            1.120620111528     0.089119781130    -0.842426731085     1.007825032230
         H           -0.214379888472     0.195119781130    -1.907426731085     1.007825032230
         H            0.341620111528     2.376119781130    -0.746426731085     1.007825032230
         H            0.310127711528     2.557396781130    -2.507876731085     1.007825032230
         H            1.884034111528     2.436511781130    -1.631406731085     1.007825032230

  Running in c1 symmetry.

  Rotational constants: A =      0.48102  B =      0.04769  C =      0.04583 [cm^-1]
  Rotational constants: A =  14420.48671  B =   1429.65208  C =   1373.83556 [MHz]
  Nuclear repulsion =  121.917473590005201

  Charge       = 0
  Multiplicity = 1
  Electrons    = 36
  Nalpha       = 18
  Nbeta        = 18

  ==> Algorithm <==

  SCF Algorithm Type is PK.
  DIIS enabled.
  MOM disabled.
  Fractional occupation disabled.
  Guess Type is SAD.
  Energy threshold   = 1.00e-06
  Density threshold  = 1.00e-10
  Integral threshold = 0.00e+00

  ==> Primary Basis <==

  Basis Set: CC-PVDZ
    Blend: CC-PVDZ
    Number of shells: 60
    Number of basis function: 116
    Number of Cartesian functions: 120
    Spherical Harmonics?: true
    Max angular momentum: 2

  ==> Pre-Iterations <==

   -------------------------------------------------------
    Irrep   Nso     Nmo     Nalpha   Nbeta   Ndocc  Nsocc
   -------------------------------------------------------
     A        116     116       0       0       0       0
   -------------------------------------------------------
    Total     116     116      18      18      18       0
   -------------------------------------------------------

  ==> Integral Setup <==

  Using integral reordering PK algorithm.
  Sizing the integral batches needed.
  Building batch lookup table.
   Calculation information:
      Number of atoms:                  16
      Number of AO shells:              60
      Number of primitives:            148
      Number of atomic orbitals:       120
      Number of basis functions:       116

      Integral cutoff                 1.00e-12
      Number of threads:                 1

	Batch   1 pq = [       0,    6786] index = [             0,23028291] size =     23028291
  Task number: 3
  Buffer size: 11059200
  Buffer per thread: 2
  We computed 1417132 shell quartets total.
  Whereas there are 1675365 unique shell quartets.

  ==> DiskJK: Disk-Based J/K Matrices <==

    J tasked:                  Yes
    K tasked:                  Yes
    wK tasked:                  No
    Memory [MiB]:              375
    Schwarz Cutoff:          1E-12

    OpenMP threads:              1

  Minimum eigenvalue in the overlap matrix is 6.7663470347E-03.
  Using Symmetric Orthogonalization.

  SCF Guess: Superposition of Atomic Densities via on-the-fly atomic UHF.

  ==> Iterations <==

                        Total Energy        Delta E     RMS |[F,P]|

   @RHF iter SAD:  -157.36520655101847   -1.57365e+02   0.00000e+00
   @RHF iter   1:  -158.30576340791862   -9.40557e-01   4.21847e-03 DIIS
   @RHF iter   2:  -158.43937008562577   -1.33607e-01   1.80108e-03 DIIS
   @RHF iter   3:  -158.46289487814562   -2.35248e-02   3.50924e-04 DIIS
   @RHF iter   4:  -158.46474263659690   -1.84776e-03   3.93958e-05 DIIS
   @RHF iter   5:  -158.46476710855353   -2.44720e-05   6.77924e-06 DIIS
   @RHF iter   6:  -158.46476778051959   -6.71966e-07   1.20615e-06 DIIS
   @RHF iter   7:  -158.46476779461494   -1.40953e-08   3.29594e-07 DIIS
   @RHF iter   8:  -158.46476779561957   -1.00462e-09   4.27271e-08 DIIS
   @RHF iter   9:  -158.46476779565046   -3.08944e-11   7.93996e-09 DIIS
   @RHF iter  10:  -158.46476779565194   -1.47793e-12   1.99553e-09 DIIS
   @RHF iter  11:  -158.46476779565160    3.41061e-13   4.29983e-10 DIIS
   @RHF iter  12:  -158.46476779565188   -2.84217e-13   1.28284e-10 DIIS
   @RHF iter  13:  -158.46476779565188    0.00000e+00   2.66191e-11 DIIS
  Energy and wave function converged.

  ==> Post-Iterations <==

    Orbital Energies [Eh]
    ---------------------

    Doubly Occupied:

       1A    -11.219356     2A    -11.218931     3A    -11.216787
       4A    -11.214454     5A     -1.021093     6A     -1.016413
       7A     -0.841002     8A     -0.834404     9A     -0.604864
      10A     -0.598722    11A     -0.596174    12A     -0.591801
      13A     -0.508601    14A     -0.499021    15A     -0.490062
      16A     -0.485104    17A     -0.482520    18A     -0.478373

    Virtual:

      19A      0.171191    20A      0.198214    21A      0.225410
      22A      0.232776    23A      0.244423    24A      0.255319
      25A      0.264120    26A      0.278302    27A      0.284914
      28A      0.291602    29A      0.310784    30A      0.325467
      31A      0.398348    32A      0.416068    33A      0.575921
      34A      0.593826    35A      0.598657    36A      0.607573
      37A      0.614246    38A      0.635263    39A      0.653949
      40A      0.675712    41A      0.694149    42A      0.808251
      43A      0.846361    44A      0.864585    45A      0.885008
      46A      0.890542    47A      0.892898    48A      0.893966
      49A      0.898783    50A      0.903630    51A      0.910244
      52A      0.914599    53A      0.933852    54A      0.955683
      55A      0.973210    56A      0.986771    57A      1.121553
      58A      1.126416    59A      1.134343    60A      1.175319
      61A      1.236370    62A      1.255252    63A      1.464725
      64A      1.470253    65A      1.477533    66A      1.488355
      67A      1.547569    68A      1.602113    69A      1.678397
      70A      1.683363    71A      1.692265    72A      1.706371
      73A      1.851114    74A      1.861153    75A      1.870899
      76A      1.883864    77A      1.897842    78A      1.915261
      79A      1.930292    80A      1.936640    81A      1.942998
      82A      1.949348    83A      1.952712    84A      1.962684
      85A      1.972130    86A      1.979853    87A      1.994005
      88A      1.996002    89A      2.087062    90A      2.103446
      91A      2.120683    92A      2.133157    93A      2.297604
      94A      2.301407    95A      2.314737    96A      2.340703
      97A      2.444855    98A      2.449382    99A      2.454361
     100A      2.489644   101A      2.552793   102A      2.562558
     103A      2.577971   104A      2.586375   105A      2.759647
     106A      2.762870   107A      2.787375   108A      2.798298
     109A      2.841808   110A      2.856380   111A      2.861940
     112A      2.873458   113A      2.935831   114A      2.952729
     115A      2.971025   116A      2.981097

    Final Occupation by Irrep:
              A
    DOCC [    18 ]

  @RHF Final Energy:  -158.46476779565188

   => Energetics <=

    Nuclear Repulsion Energy =            121.9174735900052013
    One-Electron Energy =                -452.9291169790279241
    Two-Electron Energy =                 172.5468755933708280
    Total Energy =                       -158.4647677956518805

Computation Completed

Properties will be evaluated at   0.000000,   0.000000,   0.000000 [a0]

Properties computed using the SCF density matrix

  Nuclear Dipole Moment: [e a0]
     X:    -0.0723      Y:    -0.1505      Z:     0.0079

  Electronic Dipole Moment: [e a0]
     X:     0.0621      Y:     0.1163      Z:     0.0058

  Dipole Moment: [e a0]
     X:    -0.0103      Y:    -0.0341      Z:     0.0137     Total:     0.0382

  Dipole Moment: [D]
     X:    -0.0261      Y:    -0.0868      Z:     0.0348     Total:     0.0971

*** tstop() called on ds3 at Tue Apr 28 03:20:47 2020
Module time:
	user time   =       8.78 seconds =       0.15 minutes
	system time =       3.64 seconds =       0.06 minutes
	total time  =         13 seconds =       0.22 minutes
Total time:
	user time   =       8.78 seconds =       0.15 minutes
	system time =       3.64 seconds =       0.06 minutes
	total time  =         13 seconds =       0.22 minutes
                                     G D M A

                                 by Anthony Stone

                           version 2.2.06, 22 June 2011

               Distributed Multipoles from Gaussian wavefunctions

Starting at 3:20:47 on 28 Apr 2020

Using SCF density matrix from file ./SSI/SSI-009VAL-084ILE-1-dimer.test.25792.fchk

                         Distributed Multipole Analysis

Standard DMA

Positions and radii in angstrom
Multipole moments in atomic units, ea_0^k for rank k

C          x = -0.175380  y = -1.297880  z =  1.306573 angstrom
           Maximum rank =  0   Radius =  0.650 angstrom
                   Q00  =  -0.235974

C          x = -1.459380  y = -1.336880  z =  2.125573 angstrom
           Maximum rank =  0   Radius =  0.650 angstrom
                   Q00  =  -0.233705

H          x =  0.480620  y = -2.107880  z =  1.621573 angstrom
           Maximum rank =  0   Radius =  0.325 angstrom
                   Q00  =   0.080412

H          x = -0.413380  y = -1.434880  z =  0.251573 angstrom
           Maximum rank =  0   Radius =  0.325 angstrom
                   Q00  =   0.079758

H          x =  0.332620  y = -0.341880  z =  1.437573 angstrom
           Maximum rank =  0   Radius =  0.325 angstrom
                   Q00  =   0.075609

H          x = -1.951380  y = -2.275880  z =  1.883573 angstrom
           Maximum rank =  0   Radius =  0.325 angstrom
                   Q00  =   0.074993

H          x = -1.237513  y = -1.348260  z =  3.202906 angstrom
           Maximum rank =  0   Radius =  0.325 angstrom
                   Q00  =   0.080183

H          x = -2.142771  y = -0.521100  z =  1.847208 angstrom
           Maximum rank =  0   Radius =  0.325 angstrom
                   Q00  =   0.080257

C          x =  0.799620  y =  0.561120  z = -1.765427 angstrom
           Maximum rank =  0   Radius =  0.650 angstrom
                   Q00  =  -0.246130

C          x =  0.841620  y =  2.087120  z = -1.667427 angstrom
           Maximum rank =  0   Radius =  0.650 angstrom
                   Q00  =  -0.232677

H          x =  1.412620  y =  0.215120  z = -2.600427 angstrom
           Maximum rank =  0   Radius =  0.325 angstrom
                   Q00  =   0.078006

H          x =  1.120620  y =  0.089120  z = -0.842427 angstrom
           Maximum rank =  0   Radius =  0.325 angstrom
                   Q00  =   0.085432

H          x = -0.214380  y =  0.195120  z = -1.907427 angstrom
           Maximum rank =  0   Radius =  0.325 angstrom
                   Q00  =   0.075990

H          x =  0.341620  y =  2.376120  z = -0.746427 angstrom
           Maximum rank =  0   Radius =  0.325 angstrom
                   Q00  =   0.077045

H          x =  0.310128  y =  2.557397  z = -2.507877 angstrom
           Maximum rank =  0   Radius =  0.325 angstrom
                   Q00  =   0.080910

H          x =  1.884034  y =  2.436512  z = -1.631407 angstrom
           Maximum rank =  0   Radius =  0.325 angstrom
                   Q00  =   0.079892

Total multipoles referred to origin at
           x =   0.000000,  y =    0.000000,  z =    0.000000 angstrom
                   Q00  =  -0.000000

Finished at 3:20:47 on 28 Apr 2020

  DMA results are available in the Python driver through the
	  variable('DMA DISTRIBUTED MULTIPOLES')
  and
	  variable('DMA TOTAL MULTIPOLES')
  commands.

    Psi4 stopped on: Tuesday, 28 April 2020 03:20AM
    Psi4 wall time for execution: 0:00:12.41

*** Psi4 exiting successfully. Buy a developer a beer!
