                               Psi4 1.3.2 release

  ==> Input File <==

--------------------------------------------------------------------------
import numpy as np
set {scf_type pk
basis cc-pvdz
d_convergence 10
gdma_switch   0
gdma_limit    0
gdma_origin   [ 0.0,  0.0,  0.0 ]
}
molecule test {
    units Angstrom
    0 1
    --
    0 1
    C               -1.343715163399931     2.800912045056018     0.046080111219547
    C               -0.906715163399931     3.290912045056019    -1.339919888780453
    C               -0.319715163399931     3.020912045056018     1.163080111219547
    H               -2.271715163399931     3.289912045056018     0.326080111219547
    H               -1.549715163399931     1.729912045056018    -0.016919888780453
    H                0.027284836600069     2.794912045056018    -1.602919888780453
    H               -0.140715163399931     4.085912045056017     1.286080111219547
    H               -0.736905163399931     4.377725045056018    -1.339919888780453
    H               -1.615905163399931     2.977633045056018    -2.120239888780453
    H               -0.708135163399931     2.628885045056018     2.114630111219548
    H                0.642834836600069     2.546131045056018     0.922082111219547
    C               -0.181715163399931    -2.467087954943981     2.163080111219547
    C               -0.468715163399931    -0.677087954943982    -1.160919888780453
    C               -0.797715163399931    -1.253087954943982     0.058080111219547
    C                0.846284836600069    -0.689087954943982    -1.601919888780453
    C                0.182284836600069    -1.846087954943982     0.844080111219547
    C                1.830284836600069    -1.278087954943982    -0.821919888780453
    C                1.497284836600069    -1.854087954943982     0.397080111219547
    H               -1.239715163399931    -0.217087954943982    -1.760919888780452
    H               -1.824715163399931    -1.236087954943982     0.398080111219547
    H                1.100284836600069    -0.245087954943982    -2.550919888780453
    H                2.856284836600069    -1.294087954943982    -1.164919888780453
    H               -0.897715163399931    -1.807087954943982     2.653080111219547
    H                0.699284836600069    -2.517087954943982     2.805080111219547
    H                2.270284836600069    -2.315087954943982     0.997080111219547
    H               -0.633725163399931    -3.465539954943982     2.069362111219547

}
e, wfn = energy('scf', return_wfn=True)
gdma(wfn)
dmavals = variable('DMA DISTRIBUTED MULTIPOLES')
charges = np.array(dmavals)
print(charges)
np.save('SSI-179LEU-239PHE-1-dimer.npy', np.array(charges))--------------------------------------------------------------------------

*** tstart() called on ds3
*** at Tue Apr 28 20:42:28 2020

   => Loading Basis Set <=

    Name: CC-PVDZ
    Role: ORBITAL
    Keyword: BASIS
    atoms 1-3, 12-18  entry C          line   138 file /theoryfs2/ds/metcalf/miniconda2/envs/tf2gpu/share/psi4/basis/cc-pvdz.gbs
    atoms 4-11, 19-26 entry H          line    22 file /theoryfs2/ds/metcalf/miniconda2/envs/tf2gpu/share/psi4/basis/cc-pvdz.gbs

         ---------------------------------------------------------
                                   SCF
               by Justin Turney, Rob Parrish, Andy Simmonett
                          and Daniel G. A. Smith
                              RHF Reference
                        1 Threads,    500 MiB Core
         ---------------------------------------------------------

  ==> Geometry <==

    Molecular point group: c1
    Full point group: C1

    Geometry (in Angstrom), charge = 0, multiplicity = 1:

       Center              X                  Y                   Z               Mass
    ------------   -----------------  -----------------  -----------------  -----------------
         C           -1.343715163400     2.800912045056     0.046080111220    12.000000000000
         C           -0.906715163400     3.290912045056    -1.339919888780    12.000000000000
         C           -0.319715163400     3.020912045056     1.163080111220    12.000000000000
         H           -2.271715163400     3.289912045056     0.326080111220     1.007825032230
         H           -1.549715163400     1.729912045056    -0.016919888780     1.007825032230
         H            0.027284836600     2.794912045056    -1.602919888780     1.007825032230
         H           -0.140715163400     4.085912045056     1.286080111220     1.007825032230
         H           -0.736905163400     4.377725045056    -1.339919888780     1.007825032230
         H           -1.615905163400     2.977633045056    -2.120239888780     1.007825032230
         H           -0.708135163400     2.628885045056     2.114630111220     1.007825032230
         H            0.642834836600     2.546131045056     0.922082111220     1.007825032230
         C           -0.181715163400    -2.467087954944     2.163080111220    12.000000000000
         C           -0.468715163400    -0.677087954944    -1.160919888780    12.000000000000
         C           -0.797715163400    -1.253087954944     0.058080111220    12.000000000000
         C            0.846284836600    -0.689087954944    -1.601919888780    12.000000000000
         C            0.182284836600    -1.846087954944     0.844080111220    12.000000000000
         C            1.830284836600    -1.278087954944    -0.821919888780    12.000000000000
         C            1.497284836600    -1.854087954944     0.397080111220    12.000000000000
         H           -1.239715163400    -0.217087954944    -1.760919888780     1.007825032230
         H           -1.824715163400    -1.236087954944     0.398080111220     1.007825032230
         H            1.100284836600    -0.245087954944    -2.550919888780     1.007825032230
         H            2.856284836600    -1.294087954944    -1.164919888780     1.007825032230
         H           -0.897715163400    -1.807087954944     2.653080111220     1.007825032230
         H            0.699284836600    -2.517087954944     2.805080111220     1.007825032230
         H            2.270284836600    -2.315087954944     0.997080111220     1.007825032230
         H           -0.633725163400    -3.465539954944     2.069362111220     1.007825032230

  Running in c1 symmetry.

  Rotational constants: A =      0.05699  B =      0.02110  C =      0.01826 [cm^-1]
  Rotational constants: A =   1708.45994  B =    632.50116  C =    547.46661 [MHz]
  Nuclear repulsion =  490.933683076632292

  Charge       = 0
  Multiplicity = 1
  Electrons    = 76
  Nalpha       = 38
  Nbeta        = 38

  ==> Algorithm <==

  SCF Algorithm Type is PK.
  DIIS enabled.
  MOM disabled.
  Fractional occupation disabled.
  Guess Type is SAD.
  Energy threshold   = 1.00e-06
  Density threshold  = 1.00e-10
  Integral threshold = 0.00e+00

  ==> Primary Basis <==

  Basis Set: CC-PVDZ
    Blend: CC-PVDZ
    Number of shells: 108
    Number of basis function: 220
    Number of Cartesian functions: 230
    Spherical Harmonics?: true
    Max angular momentum: 2

  ==> Pre-Iterations <==

   -------------------------------------------------------
    Irrep   Nso     Nmo     Nalpha   Nbeta   Ndocc  Nsocc
   -------------------------------------------------------
     A        220     220       0       0       0       0
   -------------------------------------------------------
    Total     220     220      38      38      38       0
   -------------------------------------------------------

  ==> Integral Setup <==

  Using integral reordering PK algorithm.
  Sizing the integral batches needed.
  Building batch lookup table.
   Calculation information:
      Number of atoms:                  26
      Number of AO shells:             108
      Number of primitives:            300
      Number of atomic orbitals:       230
      Number of basis functions:       220

      Integral cutoff                 1.00e-12
      Number of threads:                 1

	Batch   1 pq = [       0,    9405] index = [             0,44231715] size =     44231715
	Batch   2 pq = [    9405,   13301] index = [      44231715,88464951] size =     44233236
	Batch   3 pq = [   13301,   16290] index = [      88464951,132690195] size =     44225244
	Batch   4 pq = [   16290,   18810] index = [     132690195,176917455] size =     44227260
	Batch   5 pq = [   18810,   21030] index = [     176917455,221140965] size =     44223510
	Batch   6 pq = [   21030,   23037] index = [     221140965,265363203] size =     44222238
	Batch   7 pq = [   23037,   24310] index = [     265363203,295500205] size =     30137002
  Task number: 27
  Buffer size: 11059200
  Buffer per thread: 2
  We computed 15985063 shell quartets total.
  Whereas there are 17325441 unique shell quartets.

  ==> DiskJK: Disk-Based J/K Matrices <==

    J tasked:                  Yes
    K tasked:                  Yes
    wK tasked:                  No
    Memory [MiB]:              375
    Schwarz Cutoff:          1E-12

    OpenMP threads:              1

  Minimum eigenvalue in the overlap matrix is 3.0238612451E-04.
  Using Symmetric Orthogonalization.

  SCF Guess: Superposition of Atomic Densities via on-the-fly atomic UHF.

  ==> Iterations <==

                        Total Energy        Delta E     RMS |[F,P]|

   @RHF iter SAD:  -386.90294303273026   -3.86903e+02   0.00000e+00
   @RHF iter   1:  -387.77178561980003   -8.68843e-01   2.76115e-03 DIIS
   @RHF iter   2:  -387.99128418120216   -2.19499e-01   1.17427e-03 DIIS
   @RHF iter   3:  -388.02740412396690   -3.61199e-02   2.51273e-04 DIIS
   @RHF iter   4:  -388.03030878200889   -2.90466e-03   5.18957e-05 DIIS
   @RHF iter   5:  -388.03039787835337   -8.90963e-05   1.56264e-05 DIIS
   @RHF iter   6:  -388.03040559545974   -7.71711e-06   4.68924e-06 DIIS
   @RHF iter   7:  -388.03040634911497   -7.53655e-07   1.19853e-06 DIIS
   @RHF iter   8:  -388.03040640172338   -5.26084e-08   2.41943e-07 DIIS
   @RHF iter   9:  -388.03040640515587   -3.43249e-09   7.78696e-08 DIIS
   @RHF iter  10:  -388.03040640548869   -3.32818e-10   3.09516e-08 DIIS
   @RHF iter  11:  -388.03040640555412   -6.54268e-11   9.65766e-09 DIIS
   @RHF iter  12:  -388.03040640556316   -9.03810e-12   4.57568e-09 DIIS
   @RHF iter  13:  -388.03040640556299    1.70530e-13   2.55396e-09 DIIS
   @RHF iter  14:  -388.03040640556509   -2.10321e-12   8.46322e-10 DIIS
   @RHF iter  15:  -388.03040640556617   -1.08002e-12   2.65902e-10 DIIS
   @RHF iter  16:  -388.03040640556770   -1.53477e-12   8.15295e-11 DIIS
  Energy and wave function converged.

  ==> Post-Iterations <==

    Orbital Energies [Eh]
    ---------------------

    Doubly Occupied:

       1A    -11.239795     2A    -11.235327     3A    -11.235162
       4A    -11.230521     5A    -11.230027     6A    -11.229888
       7A    -11.229349     8A    -11.214608     9A    -11.214018
      10A    -11.211732    11A     -1.156409    12A     -1.046822
      13A     -1.045375    14A     -1.014071    15A     -0.932353
      16A     -0.920049    17A     -0.826472    18A     -0.797595
      19A     -0.791662    20A     -0.693043    21A     -0.633603
      22A     -0.630402    23A     -0.618686    24A     -0.588571
      25A     -0.583628    26A     -0.578004    27A     -0.563708
      28A     -0.544187    29A     -0.535453    30A     -0.525821
      31A     -0.489853    32A     -0.485539    33A     -0.482639
      34A     -0.469756    35A     -0.462482    36A     -0.461066
      37A     -0.333524    38A     -0.323668

    Virtual:

      39A      0.134084    40A      0.140293    41A      0.170343
      42A      0.193341    43A      0.200583    44A      0.213396
      45A      0.229381    46A      0.232969    47A      0.250698
      48A      0.255672    49A      0.260458    50A      0.266469
      51A      0.273005    52A      0.287450    53A      0.292257
      54A      0.300818    55A      0.312200    56A      0.331102
      57A      0.368174    58A      0.373096    59A      0.382928
      60A      0.428300    61A      0.457043    62A      0.463377
      63A      0.481019    64A      0.499256    65A      0.561962
      66A      0.576433    67A      0.593335    68A      0.601564
      69A      0.620589    70A      0.621761    71A      0.639094
      72A      0.644205    73A      0.686740    74A      0.690416
      75A      0.704840    76A      0.719889    77A      0.738150
      78A      0.743068    79A      0.749708    80A      0.761143
      81A      0.772093    82A      0.779135    83A      0.787469
      84A      0.809507    85A      0.817574    86A      0.835971
      87A      0.845285    88A      0.858025    89A      0.864180
      90A      0.874265    91A      0.883811    92A      0.885598
      93A      0.895737    94A      0.898805    95A      0.902497
      96A      0.906502    97A      0.912957    98A      0.915611
      99A      0.928984   100A      0.936353   101A      0.940199
     102A      0.963840   103A      0.967897   104A      0.978575
     105A      0.995437   106A      1.009008   107A      1.033524
     108A      1.068093   109A      1.122886   110A      1.124005
     111A      1.137280   112A      1.142321   113A      1.156454
     114A      1.166842   115A      1.190243   116A      1.234360
     117A      1.240878   118A      1.249838   119A      1.256702
     120A      1.262420   121A      1.299248   122A      1.310678
     123A      1.324311   124A      1.329058   125A      1.374383
     126A      1.413189   127A      1.475532   128A      1.500567
     129A      1.505789   130A      1.514132   131A      1.523899
     132A      1.559241   133A      1.602722   134A      1.630815
     135A      1.672347   136A      1.683545   137A      1.693801
     138A      1.696411   139A      1.699622   140A      1.736574
     141A      1.755101   142A      1.770106   143A      1.794053
     144A      1.813382   145A      1.853948   146A      1.861619
     147A      1.876439   148A      1.885977   149A      1.891894
     150A      1.901590   151A      1.903889   152A      1.915774
     153A      1.920358   154A      1.933113   155A      1.935864
     156A      1.951701   157A      1.957708   158A      1.964278
     159A      1.969382   160A      1.971634   161A      1.980960
     162A      1.982357   163A      1.990214   164A      1.997836
     165A      2.007224   166A      2.015023   167A      2.034537
     168A      2.044946   169A      2.059480   170A      2.083110
     171A      2.110840   172A      2.125370   173A      2.143584
     174A      2.156112   175A      2.159043   176A      2.169885
     177A      2.180497   178A      2.190919   179A      2.251481
     180A      2.276681   181A      2.288600   182A      2.294772
     183A      2.298219   184A      2.303952   185A      2.325985
     186A      2.329242   187A      2.337802   188A      2.357796
     189A      2.467753   190A      2.473405   191A      2.496450
     192A      2.508293   193A      2.537443   194A      2.542811
     195A      2.595600   196A      2.608420   197A      2.625346
     198A      2.633088   199A      2.736919   200A      2.753831
     201A      2.760688   202A      2.763549   203A      2.768882
     204A      2.791895   205A      2.798721   206A      2.807261
     207A      2.813612   208A      2.849580   209A      2.872774
     210A      2.935922   211A      2.974534   212A      2.984857
     213A      2.989631   214A      3.018798   215A      3.031245
     216A      3.080264   217A      3.163064   218A      3.212102
     219A      3.305460   220A      3.985333

    Final Occupation by Irrep:
              A
    DOCC [    38 ]

  @RHF Final Energy:  -388.03040640556770

   => Energetics <=

    Nuclear Repulsion Energy =            490.9336830766322919
    One-Electron Energy =               -1496.3184437831362175
    Two-Electron Energy =                 617.3543543009362793
    Total Energy =                       -388.0304064055676463

Computation Completed

Properties will be evaluated at   0.000000,   0.000000,   0.000000 [a0]

Properties computed using the SCF density matrix

  Nuclear Dipole Moment: [e a0]
     X:    -3.7712      Y:    10.6252      Z:     2.8263

  Electronic Dipole Moment: [e a0]
     X:     3.7563      Y:   -10.7719      Z:    -2.7106

  Dipole Moment: [e a0]
     X:    -0.0149      Y:    -0.1467      Z:     0.1157     Total:     0.1874

  Dipole Moment: [D]
     X:    -0.0379      Y:    -0.3730      Z:     0.2940     Total:     0.4764

*** tstop() called on ds3 at Tue Apr 28 20:44:50 2020
Module time:
	user time   =     107.61 seconds =       1.79 minutes
	system time =      39.76 seconds =       0.66 minutes
	total time  =        142 seconds =       2.37 minutes
Total time:
	user time   =     107.61 seconds =       1.79 minutes
	system time =      39.76 seconds =       0.66 minutes
	total time  =        142 seconds =       2.37 minutes
                                     G D M A

                                 by Anthony Stone

                           version 2.2.06, 22 June 2011

               Distributed Multipoles from Gaussian wavefunctions

Starting at 20:44:50 on 28 Apr 2020

Using SCF density matrix from file ./SSI/SSI-179LEU-239PHE-1-dimer.test.22596.fchk

                         Distributed Multipole Analysis

Standard DMA

Positions and radii in angstrom
Multipole moments in atomic units, ea_0^k for rank k

C          x = -1.343715  y =  2.800912  z =  0.046080 angstrom
           Maximum rank =  0   Radius =  0.650 angstrom
                   Q00  =  -0.081254

C          x = -0.906715  y =  3.290912  z = -1.339920 angstrom
           Maximum rank =  0   Radius =  0.650 angstrom
                   Q00  =  -0.239528

C          x = -0.319715  y =  3.020912  z =  1.163080 angstrom
           Maximum rank =  0   Radius =  0.650 angstrom
                   Q00  =  -0.248416

H          x = -2.271715  y =  3.289912  z =  0.326080 angstrom
           Maximum rank =  0   Radius =  0.325 angstrom
                   Q00  =   0.042297

H          x = -1.549715  y =  1.729912  z = -0.016920 angstrom
           Maximum rank =  0   Radius =  0.325 angstrom
                   Q00  =   0.050103

H          x =  0.027285  y =  2.794912  z = -1.602920 angstrom
           Maximum rank =  0   Radius =  0.325 angstrom
                   Q00  =   0.076653

H          x = -0.140715  y =  4.085912  z =  1.286080 angstrom
           Maximum rank =  0   Radius =  0.325 angstrom
                   Q00  =   0.072098

H          x = -0.736905  y =  4.377725  z = -1.339920 angstrom
           Maximum rank =  0   Radius =  0.325 angstrom
                   Q00  =   0.077969

H          x = -1.615905  y =  2.977633  z = -2.120240 angstrom
           Maximum rank =  0   Radius =  0.325 angstrom
                   Q00  =   0.081497

H          x = -0.708135  y =  2.628885  z =  2.114630 angstrom
           Maximum rank =  0   Radius =  0.325 angstrom
                   Q00  =   0.083166

H          x =  0.642835  y =  2.546131  z =  0.922082 angstrom
           Maximum rank =  0   Radius =  0.325 angstrom
                   Q00  =   0.083827

C          x = -0.181715  y = -2.467088  z =  2.163080 angstrom
           Maximum rank =  0   Radius =  0.650 angstrom
                   Q00  =  -0.198351

C          x = -0.468715  y = -0.677088  z = -1.160920 angstrom
           Maximum rank =  0   Radius =  0.650 angstrom
                   Q00  =  -0.066191

C          x = -0.797715  y = -1.253088  z =  0.058080 angstrom
           Maximum rank =  0   Radius =  0.650 angstrom
                   Q00  =  -0.061415

C          x =  0.846285  y = -0.689088  z = -1.601920 angstrom
           Maximum rank =  0   Radius =  0.650 angstrom
                   Q00  =  -0.090287

C          x =  0.182285  y = -1.846088  z =  0.844080 angstrom
           Maximum rank =  0   Radius =  0.650 angstrom
                   Q00  =  -0.098339

C          x =  1.830285  y = -1.278088  z = -0.821920 angstrom
           Maximum rank =  0   Radius =  0.650 angstrom
                   Q00  =  -0.077156

C          x =  1.497285  y = -1.854088  z =  0.397080 angstrom
           Maximum rank =  0   Radius =  0.650 angstrom
                   Q00  =  -0.009750

H          x = -1.239715  y = -0.217088  z = -1.760920 angstrom
           Maximum rank =  0   Radius =  0.325 angstrom
                   Q00  =   0.064625

H          x = -1.824715  y = -1.236088  z =  0.398080 angstrom
           Maximum rank =  0   Radius =  0.325 angstrom
                   Q00  =   0.055355

H          x =  1.100285  y = -0.245088  z = -2.550920 angstrom
           Maximum rank =  0   Radius =  0.325 angstrom
                   Q00  =   0.060717

H          x =  2.856285  y = -1.294088  z = -1.164920 angstrom
           Maximum rank =  0   Radius =  0.325 angstrom
                   Q00  =   0.064630

H          x = -0.897715  y = -1.807088  z =  2.653080 angstrom
           Maximum rank =  0   Radius =  0.325 angstrom
                   Q00  =   0.097108

H          x =  0.699285  y = -2.517088  z =  2.805080 angstrom
           Maximum rank =  0   Radius =  0.325 angstrom
                   Q00  =   0.098224

H          x =  2.270285  y = -2.315088  z =  0.997080 angstrom
           Maximum rank =  0   Radius =  0.325 angstrom
                   Q00  =   0.057163

H          x = -0.633725  y = -3.465540  z =  2.069362 angstrom
           Maximum rank =  0   Radius =  0.325 angstrom
                   Q00  =   0.105256

Total multipoles referred to origin at
           x =   0.000000,  y =    0.000000,  z =    0.000000 angstrom
                   Q00  =  -0.000000

Finished at 20:44:50 on 28 Apr 2020

  DMA results are available in the Python driver through the
	  variable('DMA DISTRIBUTED MULTIPOLES')
  and
	  variable('DMA TOTAL MULTIPOLES')
  commands.

    Psi4 stopped on: Tuesday, 28 April 2020 08:44PM
    Psi4 wall time for execution: 0:02:21.76

*** Psi4 exiting successfully. Buy a developer a beer!
