                               Psi4 1.3.2 release

  ==> Input File <==

--------------------------------------------------------------------------
import numpy as np
set {scf_type pk
basis cc-pvdz
d_convergence 10
gdma_switch   0
gdma_limit    0
gdma_origin   [ 0.0,  0.0,  0.0 ]
}
molecule test {
    units Angstrom
    0 1
    --
    0 1
    C                2.265242102166348    -0.178602489764485     0.623485461882387
    C                3.689242102166348    -0.642602489764485     0.909485461882386
    H                1.708242102166349    -0.059602489764485     1.552485461882386
    H                2.278242102166349     0.782397510235515     0.120485461882387
    H                1.779242102166348    -0.921602489764485    -0.003514538117613
    H                4.122242102166349    -1.037602489764485    -0.006514538117613
    H                3.635812102166348    -1.427403489764485     1.678405461882386
    H                4.310552102166349     0.202670510235515     1.240365461882386
    C               -1.281757897833651     0.293397510235515    -0.146514538117613
    C               -1.521757897833651     1.524397510235515    -1.019514538117614
    C               -2.522757897833651    -0.105602489764485     0.658485461882386
    C               -0.809757897833651    -0.849602489764485    -1.038514538117614
    H               -0.484757897833652     0.521397510235515     0.559485461882386
    H               -2.205757897833651     1.255397510235515    -1.821514538117614
    H               -0.572757897833651     1.773397510235515    -1.490514538117613
    H               -3.376757897833652    -0.230602489764485    -0.007514538117613
    H               -2.332757897833651    -1.048602489764485     1.170485461882387
    H               -2.742757897833652     0.651397510235515     1.408485461882386
    H               -0.030757897833651    -0.501602489764485    -1.715514538117614
    H               -0.391757897833652    -1.628602489764485    -0.411514538117613
    H               -1.644757897833651    -1.243602489764485    -1.620514538117614
    H               -1.889857897833651     2.419800510235515    -0.497254538117613

}
e, wfn = energy('scf', return_wfn=True)
gdma(wfn)
dmavals = variable('DMA DISTRIBUTED MULTIPOLES')
charges = np.array(dmavals)
print(charges)
np.save('SSI-150LEU-202LEU-1-dimer.npy', np.array(charges))--------------------------------------------------------------------------

*** tstart() called on ds3
*** at Tue Apr 28 09:52:16 2020

   => Loading Basis Set <=

    Name: CC-PVDZ
    Role: ORBITAL
    Keyword: BASIS
    atoms 1-2, 9-12  entry C          line   138 file /theoryfs2/ds/metcalf/miniconda2/envs/tf2gpu/share/psi4/basis/cc-pvdz.gbs
    atoms 3-8, 13-22 entry H          line    22 file /theoryfs2/ds/metcalf/miniconda2/envs/tf2gpu/share/psi4/basis/cc-pvdz.gbs

         ---------------------------------------------------------
                                   SCF
               by Justin Turney, Rob Parrish, Andy Simmonett
                          and Daniel G. A. Smith
                              RHF Reference
                        1 Threads,    500 MiB Core
         ---------------------------------------------------------

  ==> Geometry <==

    Molecular point group: c1
    Full point group: C1

    Geometry (in Angstrom), charge = 0, multiplicity = 1:

       Center              X                  Y                   Z               Mass
    ------------   -----------------  -----------------  -----------------  -----------------
         C            2.265242102166    -0.178602489764     0.623485461882    12.000000000000
         C            3.689242102166    -0.642602489764     0.909485461882    12.000000000000
         H            1.708242102166    -0.059602489764     1.552485461882     1.007825032230
         H            2.278242102166     0.782397510236     0.120485461882     1.007825032230
         H            1.779242102166    -0.921602489764    -0.003514538118     1.007825032230
         H            4.122242102166    -1.037602489764    -0.006514538118     1.007825032230
         H            3.635812102166    -1.427403489764     1.678405461882     1.007825032230
         H            4.310552102166     0.202670510236     1.240365461882     1.007825032230
         C           -1.281757897834     0.293397510236    -0.146514538118    12.000000000000
         C           -1.521757897834     1.524397510236    -1.019514538118    12.000000000000
         C           -2.522757897834    -0.105602489764     0.658485461882    12.000000000000
         C           -0.809757897834    -0.849602489764    -1.038514538118    12.000000000000
         H           -0.484757897834     0.521397510236     0.559485461882     1.007825032230
         H           -2.205757897834     1.255397510236    -1.821514538118     1.007825032230
         H           -0.572757897834     1.773397510236    -1.490514538118     1.007825032230
         H           -3.376757897834    -0.230602489764    -0.007514538118     1.007825032230
         H           -2.332757897834    -1.048602489764     1.170485461882     1.007825032230
         H           -2.742757897834     0.651397510236     1.408485461882     1.007825032230
         H           -0.030757897834    -0.501602489764    -1.715514538118     1.007825032230
         H           -0.391757897834    -1.628602489764    -0.411514538118     1.007825032230
         H           -1.644757897834    -1.243602489764    -1.620514538118     1.007825032230
         H           -1.889857897834     2.419800510236    -0.497254538118     1.007825032230

  Running in c1 symmetry.

  Rotational constants: A =      0.16409  B =      0.03203  C =      0.03105 [cm^-1]
  Rotational constants: A =   4919.28364  B =    960.10185  C =    930.84262 [MHz]
  Nuclear repulsion =  246.500876708477762

  Charge       = 0
  Multiplicity = 1
  Electrons    = 52
  Nalpha       = 26
  Nbeta        = 26

  ==> Algorithm <==

  SCF Algorithm Type is PK.
  DIIS enabled.
  MOM disabled.
  Fractional occupation disabled.
  Guess Type is SAD.
  Energy threshold   = 1.00e-06
  Density threshold  = 1.00e-10
  Integral threshold = 0.00e+00

  ==> Primary Basis <==

  Basis Set: CC-PVDZ
    Blend: CC-PVDZ
    Number of shells: 84
    Number of basis function: 164
    Number of Cartesian functions: 170
    Spherical Harmonics?: true
    Max angular momentum: 2

  ==> Pre-Iterations <==

   -------------------------------------------------------
    Irrep   Nso     Nmo     Nalpha   Nbeta   Ndocc  Nsocc
   -------------------------------------------------------
     A        164     164       0       0       0       0
   -------------------------------------------------------
    Total     164     164      26      26      26       0
   -------------------------------------------------------

  ==> Integral Setup <==

  Using integral reordering PK algorithm.
  Sizing the integral batches needed.
  Building batch lookup table.
   Calculation information:
      Number of atoms:                  22
      Number of AO shells:              84
      Number of primitives:            212
      Number of atomic orbitals:       170
      Number of basis functions:       164

      Integral cutoff                 1.00e-12
      Number of threads:                 1

	Batch   1 pq = [       0,    9405] index = [             0,44231715] size =     44231715
	Batch   2 pq = [    9405,   13530] index = [      44231715,91537215] size =     47305500
  Task number: 9
  Buffer size: 11059200
  Buffer per thread: 2
  We computed 5792095 shell quartets total.
  Whereas there are 6374235 unique shell quartets.

  ==> DiskJK: Disk-Based J/K Matrices <==

    J tasked:                  Yes
    K tasked:                  Yes
    wK tasked:                  No
    Memory [MiB]:              375
    Schwarz Cutoff:          1E-12

    OpenMP threads:              1

  Minimum eigenvalue in the overlap matrix is 4.4846323226E-03.
  Using Symmetric Orthogonalization.

  SCF Guess: Superposition of Atomic Densities via on-the-fly atomic UHF.

  ==> Iterations <==

                        Total Energy        Delta E     RMS |[F,P]|

   @RHF iter SAD:  -235.48063690356398   -2.35481e+02   0.00000e+00
   @RHF iter   1:  -236.30772507705595   -8.27088e-01   3.54761e-03 DIIS
   @RHF iter   2:  -236.49992073164694   -1.92196e-01   1.53003e-03 DIIS
   @RHF iter   3:  -236.53372618898584   -3.38055e-02   3.15554e-04 DIIS
   @RHF iter   4:  -236.53637746187863   -2.65127e-03   7.09241e-05 DIIS
   @RHF iter   5:  -236.53646690627167   -8.94444e-05   1.59135e-05 DIIS
   @RHF iter   6:  -236.53647271374899   -5.80748e-06   2.82348e-06 DIIS
   @RHF iter   7:  -236.53647291581575   -2.02067e-07   6.86640e-07 DIIS
   @RHF iter   8:  -236.53647293021143   -1.43957e-08   1.72201e-07 DIIS
   @RHF iter   9:  -236.53647293110745   -8.96023e-10   5.07855e-08 DIIS
   @RHF iter  10:  -236.53647293119607   -8.86189e-11   1.07739e-08 DIIS
   @RHF iter  11:  -236.53647293120036   -4.29168e-12   2.12274e-09 DIIS
   @RHF iter  12:  -236.53647293120036    0.00000e+00   4.71030e-10 DIIS
   @RHF iter  13:  -236.53647293119943    9.37916e-13   1.35141e-10 DIIS
   @RHF iter  14:  -236.53647293119920    2.27374e-13   2.58448e-11 DIIS
  Energy and wave function converged.

  ==> Post-Iterations <==

    Orbital Energies [Eh]
    ---------------------

    Doubly Occupied:

       1A    -11.220661     2A    -11.218485     3A    -11.214801
       4A    -11.212542     5A    -11.212189     6A    -11.211515
       7A     -1.081775     8A     -1.020852     9A     -0.928816
      10A     -0.923563    11A     -0.836353    12A     -0.762923
      13A     -0.632383    14A     -0.602325    15A     -0.600632
      16A     -0.591485    17A     -0.583366    18A     -0.537785
      19A     -0.533726    20A     -0.507129    21A     -0.499227
      22A     -0.486593    23A     -0.484137    24A     -0.457501
      25A     -0.455454    26A     -0.454401

    Virtual:

      27A      0.170288    28A      0.193497    29A      0.218231
      30A      0.218790    31A      0.232441    32A      0.247338
      33A      0.251980    34A      0.258295    35A      0.265122
      36A      0.274556    37A      0.292327    38A      0.296777
      39A      0.302162    40A      0.318672    41A      0.328616
      42A      0.344167    43A      0.370930    44A      0.399367
      45A      0.413537    46A      0.420306    47A      0.566153
      48A      0.575628    49A      0.593467    50A      0.598242
      51A      0.600666    52A      0.615713    53A      0.629409
      54A      0.686442    55A      0.700173    56A      0.737951
      57A      0.769353    58A      0.777340    59A      0.821282
      60A      0.837902    61A      0.846755    62A      0.863676
      63A      0.876976    64A      0.889431    65A      0.891453
      66A      0.896459    67A      0.900592    68A      0.906460
      69A      0.913095    70A      0.917233    71A      0.921347
      72A      0.927192    73A      0.934385    74A      0.950319
      75A      0.961661    76A      0.975201    77A      0.985177
      78A      0.994188    79A      1.001641    80A      1.047204
      81A      1.124205    82A      1.128119    83A      1.134871
      84A      1.137662    85A      1.183558    86A      1.248719
      87A      1.370218    88A      1.403077    89A      1.413932
      90A      1.487287    91A      1.496402    92A      1.535659
      93A      1.573853    94A      1.603938    95A      1.662148
      96A      1.669796    97A      1.677254    98A      1.682210
      99A      1.688757   100A      1.693093   101A      1.705301
     102A      1.725630   103A      1.736016   104A      1.834998
     105A      1.841450   106A      1.853042   107A      1.866696
     108A      1.884694   109A      1.910793   110A      1.928437
     111A      1.933367   112A      1.939388   113A      1.945297
     114A      1.949186   115A      1.955517   116A      1.959316
     117A      1.977269   118A      1.985500   119A      2.004733
     120A      2.016295   121A      2.028742   122A      2.044366
     123A      2.063951   124A      2.094389   125A      2.128818
     126A      2.141419   127A      2.152048   128A      2.160664
     129A      2.182520   130A      2.245193   131A      2.255303
     132A      2.305489   133A      2.308950   134A      2.317030
     135A      2.332037   136A      2.347004   137A      2.384471
     138A      2.390771   139A      2.443339   140A      2.451063
     141A      2.475774   142A      2.570690   143A      2.595498
     144A      2.597979   145A      2.617745   146A      2.639353
     147A      2.718222   148A      2.726229   149A      2.761465
     150A      2.769314   151A      2.788627   152A      2.794086
     153A      2.804104   154A      2.824314   155A      2.838331
     156A      2.839256   157A      2.847469   158A      2.862958
     159A      2.871816   160A      2.952580   161A      2.969208
     162A      3.018652   163A      3.030847   164A      3.125798

    Final Occupation by Irrep:
              A
    DOCC [    26 ]

  @RHF Final Energy:  -236.53647293119920

   => Energetics <=

    Nuclear Repulsion Energy =            246.5008767084777617
    One-Electron Energy =                -805.5334676854708960
    Two-Electron Energy =                 322.4961180457938781
    Total Energy =                       -236.5364729311992278

Computation Completed

Properties will be evaluated at   0.000000,   0.000000,   0.000000 [a0]

Properties computed using the SCF density matrix

  Nuclear Dipole Moment: [e a0]
     X:     2.0265      Y:    -0.4620      Z:     0.1461

  Electronic Dipole Moment: [e a0]
     X:    -1.9759      Y:     0.4617      Z:    -0.1239

  Dipole Moment: [e a0]
     X:     0.0506      Y:    -0.0003      Z:     0.0221     Total:     0.0552

  Dipole Moment: [D]
     X:     0.1285      Y:    -0.0007      Z:     0.0563     Total:     0.1403

*** tstop() called on ds3 at Tue Apr 28 09:53:01 2020
Module time:
	user time   =      33.12 seconds =       0.55 minutes
	system time =      12.82 seconds =       0.21 minutes
	total time  =         45 seconds =       0.75 minutes
Total time:
	user time   =      33.12 seconds =       0.55 minutes
	system time =      12.82 seconds =       0.21 minutes
	total time  =         45 seconds =       0.75 minutes
                                     G D M A

                                 by Anthony Stone

                           version 2.2.06, 22 June 2011

               Distributed Multipoles from Gaussian wavefunctions

Starting at 9:53:1 on 28 Apr 2020

Using SCF density matrix from file ./SSI/SSI-150LEU-202LEU-1-dimer.test.18052.fchk

                         Distributed Multipole Analysis

Standard DMA

Positions and radii in angstrom
Multipole moments in atomic units, ea_0^k for rank k

C          x =  2.265242  y = -0.178602  z =  0.623485 angstrom
           Maximum rank =  0   Radius =  0.650 angstrom
                   Q00  =  -0.250895

C          x =  3.689242  y = -0.642602  z =  0.909485 angstrom
           Maximum rank =  0   Radius =  0.650 angstrom
                   Q00  =  -0.216341

H          x =  1.708242  y = -0.059602  z =  1.552485 angstrom
           Maximum rank =  0   Radius =  0.325 angstrom
                   Q00  =   0.075120

H          x =  2.278242  y =  0.782398  z =  0.120485 angstrom
           Maximum rank =  0   Radius =  0.325 angstrom
                   Q00  =   0.077801

H          x =  1.779242  y = -0.921602  z = -0.003515 angstrom
           Maximum rank =  0   Radius =  0.325 angstrom
                   Q00  =   0.080969

H          x =  4.122242  y = -1.037602  z = -0.006515 angstrom
           Maximum rank =  0   Radius =  0.325 angstrom
                   Q00  =   0.079560

H          x =  3.635812  y = -1.427403  z =  1.678405 angstrom
           Maximum rank =  0   Radius =  0.325 angstrom
                   Q00  =   0.077877

H          x =  4.310552  y =  0.202671  z =  1.240365 angstrom
           Maximum rank =  0   Radius =  0.325 angstrom
                   Q00  =   0.078452

C          x = -1.281758  y =  0.293398  z = -0.146515 angstrom
           Maximum rank =  0   Radius =  0.650 angstrom
                   Q00  =   0.018180

C          x = -1.521758  y =  1.524398  z = -1.019515 angstrom
           Maximum rank =  0   Radius =  0.650 angstrom
                   Q00  =  -0.254972

C          x = -2.522758  y = -0.105602  z =  0.658485 angstrom
           Maximum rank =  0   Radius =  0.650 angstrom
                   Q00  =  -0.247445

C          x = -0.809758  y = -0.849602  z = -1.038515 angstrom
           Maximum rank =  0   Radius =  0.650 angstrom
                   Q00  =  -0.236810

H          x = -0.484758  y =  0.521398  z =  0.559485 angstrom
           Maximum rank =  0   Radius =  0.325 angstrom
                   Q00  =   0.015955

H          x = -2.205758  y =  1.255398  z = -1.821515 angstrom
           Maximum rank =  0   Radius =  0.325 angstrom
                   Q00  =   0.072605

H          x = -0.572758  y =  1.773398  z = -1.490515 angstrom
           Maximum rank =  0   Radius =  0.325 angstrom
                   Q00  =   0.076800

H          x = -3.376758  y = -0.230602  z = -0.007515 angstrom
           Maximum rank =  0   Radius =  0.325 angstrom
                   Q00  =   0.076005

H          x = -2.332758  y = -1.048602  z =  1.170485 angstrom
           Maximum rank =  0   Radius =  0.325 angstrom
                   Q00  =   0.078205

H          x = -2.742758  y =  0.651398  z =  1.408485 angstrom
           Maximum rank =  0   Radius =  0.325 angstrom
                   Q00  =   0.083225

H          x = -0.030758  y = -0.501602  z = -1.715515 angstrom
           Maximum rank =  0   Radius =  0.325 angstrom
                   Q00  =   0.078318

H          x = -0.391758  y = -1.628602  z = -0.411515 angstrom
           Maximum rank =  0   Radius =  0.325 angstrom
                   Q00  =   0.080304

H          x = -1.644758  y = -1.243602  z = -1.620515 angstrom
           Maximum rank =  0   Radius =  0.325 angstrom
                   Q00  =   0.075353

H          x = -1.889858  y =  2.419801  z = -0.497255 angstrom
           Maximum rank =  0   Radius =  0.325 angstrom
                   Q00  =   0.081734

Total multipoles referred to origin at
           x =   0.000000,  y =    0.000000,  z =    0.000000 angstrom
                   Q00  =  -0.000000

Finished at 9:53:1 on 28 Apr 2020

  DMA results are available in the Python driver through the
	  variable('DMA DISTRIBUTED MULTIPOLES')
  and
	  variable('DMA TOTAL MULTIPOLES')
  commands.

    Psi4 stopped on: Tuesday, 28 April 2020 09:53AM
    Psi4 wall time for execution: 0:00:44.60

*** Psi4 exiting successfully. Buy a developer a beer!
