                               Psi4 1.3.2 release

  ==> Input File <==

--------------------------------------------------------------------------
import numpy as np
set {scf_type pk
basis cc-pvdz
d_convergence 10
gdma_switch   0
gdma_limit    0
gdma_origin   [ 0.0,  0.0,  0.0 ]
}
molecule test {
    units Angstrom
    0 1
    --
    0 1
    C               -0.058463489769603    -0.541432700453901     3.329083377611354
    C               -1.722463489769603    -0.482432700453901     1.373083377611353
    C               -1.303463489769603    -0.926432700453901     2.659083377611353
    C               -2.949463489769603    -1.136432700453901     1.092083377611353
    C               -2.205463489769603    -1.859432700453902     3.059083377611354
    C               -1.919463489769603     0.659567299546098    -0.729916622388647
    C               -3.140463489769604    -0.020432700453901    -0.988916622388647
    C               -1.230463489769603     0.456567299546098     0.465083377611353
    C               -3.671463489769603    -0.912432700453902    -0.072916622388647
    N               -3.228463489769604    -1.937432700453901     2.168083377611354
    H               -1.562463489769603     1.393567299546099    -1.439916622388647
    H               -3.669463489769603     0.167567299546099    -1.913916622388647
    H               -0.449463489769603     1.127567299546099     0.774083377611353
    H               -4.606463489769603    -1.419432700453901    -0.260916622388647
    H                0.472536510230397     0.174567299546099     2.701083377611353
    H                0.552536510230397    -1.432432700453901     3.346083377611353
    H               -2.145463489769603    -2.453432700453901     3.961083377611353
    H               -4.036463489769604    -2.540432700453901     2.276083377611353
    H               -0.124011489769603    -0.111002700453901     4.339243377611353
    C                2.515536510230397     3.608567299546099    -2.527916622388647
    C                1.559536510230396     1.716567299546098    -1.134916622388647
    C                2.527536510230397     2.165567299546098    -2.053916622388646
    C                1.616536510230397     0.406567299546099    -0.648916622388647
    C                3.560536510230397     1.281567299546098    -2.432916622388646
    C                2.588536510230397    -0.469432700453901    -1.086916622388647
    C                3.607536510230397    -0.042432700453901    -1.939916622388647
    O                2.629536510230396    -1.725432700453901    -0.590916622388647
    H                0.746536510230397     2.365567299546099    -0.855916622388647
    H                0.987536510230397    -0.011432700453901     0.096083377611353
    H                1.536536510230397     4.055567299546099    -2.349916622388647
    H                2.699536510230397     3.619567299546099    -3.600916622388647
    H                4.341536510230397     1.627567299546099    -3.091916622388647
    H                4.404536510230397    -0.708432700453901    -2.239916622388646
    H                3.367536510230396    -2.232432700453901    -0.944916622388647
    H                3.293701510230396     4.195557299546099    -2.018106622388647

}
e, wfn = energy('scf', return_wfn=True)
gdma(wfn)
dmavals = variable('DMA DISTRIBUTED MULTIPOLES')
charges = np.array(dmavals)
print(charges)
np.save('SSI-133TRP-277TYR-1-dimer.npy', np.array(charges))--------------------------------------------------------------------------

*** tstart() called on ds3
*** at Mon Apr 27 03:24:43 2020

   => Loading Basis Set <=

    Name: CC-PVDZ
    Role: ORBITAL
    Keyword: BASIS
    atoms 1-9, 20-26   entry C          line   138 file /theoryfs2/ds/metcalf/miniconda2/envs/tf2gpu/share/psi4/basis/cc-pvdz.gbs
    atoms 10           entry N          line   168 file /theoryfs2/ds/metcalf/miniconda2/envs/tf2gpu/share/psi4/basis/cc-pvdz.gbs
    atoms 11-19, 28-35 entry H          line    22 file /theoryfs2/ds/metcalf/miniconda2/envs/tf2gpu/share/psi4/basis/cc-pvdz.gbs
    atoms 27           entry O          line   198 file /theoryfs2/ds/metcalf/miniconda2/envs/tf2gpu/share/psi4/basis/cc-pvdz.gbs

         ---------------------------------------------------------
                                   SCF
               by Justin Turney, Rob Parrish, Andy Simmonett
                          and Daniel G. A. Smith
                              RHF Reference
                        1 Threads,    500 MiB Core
         ---------------------------------------------------------

  ==> Geometry <==

    Molecular point group: c1
    Full point group: C1

    Geometry (in Angstrom), charge = 0, multiplicity = 1:

       Center              X                  Y                   Z               Mass
    ------------   -----------------  -----------------  -----------------  -----------------
         C           -0.058463489770    -0.541432700454     3.329083377611    12.000000000000
         C           -1.722463489770    -0.482432700454     1.373083377611    12.000000000000
         C           -1.303463489770    -0.926432700454     2.659083377611    12.000000000000
         C           -2.949463489770    -1.136432700454     1.092083377611    12.000000000000
         C           -2.205463489770    -1.859432700454     3.059083377611    12.000000000000
         C           -1.919463489770     0.659567299546    -0.729916622389    12.000000000000
         C           -3.140463489770    -0.020432700454    -0.988916622389    12.000000000000
         C           -1.230463489770     0.456567299546     0.465083377611    12.000000000000
         C           -3.671463489770    -0.912432700454    -0.072916622389    12.000000000000
         N           -3.228463489770    -1.937432700454     2.168083377611    14.003074004430
         H           -1.562463489770     1.393567299546    -1.439916622389     1.007825032230
         H           -3.669463489770     0.167567299546    -1.913916622389     1.007825032230
         H           -0.449463489770     1.127567299546     0.774083377611     1.007825032230
         H           -4.606463489770    -1.419432700454    -0.260916622389     1.007825032230
         H            0.472536510230     0.174567299546     2.701083377611     1.007825032230
         H            0.552536510230    -1.432432700454     3.346083377611     1.007825032230
         H           -2.145463489770    -2.453432700454     3.961083377611     1.007825032230
         H           -4.036463489770    -2.540432700454     2.276083377611     1.007825032230
         H           -0.124011489770    -0.111002700454     4.339243377611     1.007825032230
         C            2.515536510230     3.608567299546    -2.527916622389    12.000000000000
         C            1.559536510230     1.716567299546    -1.134916622389    12.000000000000
         C            2.527536510230     2.165567299546    -2.053916622389    12.000000000000
         C            1.616536510230     0.406567299546    -0.648916622389    12.000000000000
         C            3.560536510230     1.281567299546    -2.432916622389    12.000000000000
         C            2.588536510230    -0.469432700454    -1.086916622389    12.000000000000
         C            3.607536510230    -0.042432700454    -1.939916622389    12.000000000000
         O            2.629536510230    -1.725432700454    -0.590916622389    15.994914619570
         H            0.746536510230     2.365567299546    -0.855916622389     1.007825032230
         H            0.987536510230    -0.011432700454     0.096083377611     1.007825032230
         H            1.536536510230     4.055567299546    -2.349916622389     1.007825032230
         H            2.699536510230     3.619567299546    -3.600916622389     1.007825032230
         H            4.341536510230     1.627567299546    -3.091916622389     1.007825032230
         H            4.404536510230    -0.708432700454    -2.239916622389     1.007825032230
         H            3.367536510230    -2.232432700454    -0.944916622389     1.007825032230
         H            3.293701510230     4.195557299546    -2.018106622389     1.007825032230

  Running in c1 symmetry.

  Rotational constants: A =      0.02364  B =      0.00695  C =      0.00616 [cm^-1]
  Rotational constants: A =    708.74831  B =    208.24774  C =    184.73280 [MHz]
  Nuclear repulsion = 1194.089497147447446

  Charge       = 0
  Multiplicity = 1
  Electrons    = 128
  Nalpha       = 64
  Nbeta        = 64

  ==> Algorithm <==

  SCF Algorithm Type is PK.
  DIIS enabled.
  MOM disabled.
  Fractional occupation disabled.
  Guess Type is SAD.
  Energy threshold   = 1.00e-06
  Density threshold  = 1.00e-10
  Integral threshold = 0.00e+00

  ==> Primary Basis <==

  Basis Set: CC-PVDZ
    Blend: CC-PVDZ
    Number of shells: 159
    Number of basis function: 337
    Number of Cartesian functions: 355
    Spherical Harmonics?: true
    Max angular momentum: 2

  ==> Pre-Iterations <==

   -------------------------------------------------------
    Irrep   Nso     Nmo     Nalpha   Nbeta   Ndocc  Nsocc
   -------------------------------------------------------
     A        337     337       0       0       0       0
   -------------------------------------------------------
    Total     337     337      64      64      64       0
   -------------------------------------------------------

  ==> Integral Setup <==

  Using integral reordering PK algorithm.
  Sizing the integral batches needed.
  Building batch lookup table.
   Calculation information:
      Number of atoms:                  35
      Number of AO shells:             159
      Number of primitives:            481
      Number of atomic orbitals:       355
      Number of basis functions:       337

      Integral cutoff                 1.00e-12
      Number of threads:                 1

	Batch   1 pq = [       0,    9405] index = [             0,44231715] size =     44231715
	Batch   2 pq = [    9405,   13301] index = [      44231715,88464951] size =     44233236
	Batch   3 pq = [   13301,   16290] index = [      88464951,132690195] size =     44225244
	Batch   4 pq = [   16290,   18810] index = [     132690195,176917455] size =     44227260
	Batch   5 pq = [   18810,   21030] index = [     176917455,221140965] size =     44223510
	Batch   6 pq = [   21030,   23037] index = [     221140965,265363203] size =     44222238
	Batch   7 pq = [   23037,   24883] index = [     265363203,309594286] size =     44231083
	Batch   8 pq = [   24883,   26601] index = [     309594286,353819901] size =     44225615
	Batch   9 pq = [   26601,   28214] index = [     353819901,398029005] size =     44209104
	Batch  10 pq = [   28214,   29740] index = [     398029005,442248670] size =     44219665
	Batch  11 pq = [   29740,   31191] index = [     442248670,486454836] size =     44206166
	Batch  12 pq = [   31191,   32578] index = [     486454836,530679331] size =     44224495
	Batch  13 pq = [   32578,   33908] index = [     530679331,574893186] size =     44213855
	Batch  14 pq = [   33908,   35188] index = [     574893186,619115266] size =     44222080
	Batch  15 pq = [   35188,   36423] index = [     619115266,663335676] size =     44220410
	Batch  16 pq = [   36423,   37617] index = [     663335676,707538153] size =     44202477
	Batch  17 pq = [   37617,   38775] index = [     707538153,751769700] size =     44231547
	Batch  18 pq = [   38775,   39899] index = [     751769700,795985050] size =     44215350
	Batch  19 pq = [   39899,   40992] index = [     795985050,840192528] size =     44207478
	Batch  20 pq = [   40992,   42057] index = [     840192528,884416653] size =     44224125
	Batch  21 pq = [   42057,   43095] index = [     884416653,928611060] size =     44194407
	Batch  22 pq = [   43095,   44109] index = [     928611060,972823995] size =     44212935
	Batch  23 pq = [   44109,   45100] index = [     972823995,1017027550] size =     44203555
	Batch  24 pq = [   45100,   46070] index = [    1017027550,1061245485] size =     44217935
	Batch  25 pq = [   46070,   47020] index = [    1061245485,1105463710] size =     44218225
	Batch  26 pq = [   47020,   47951] index = [    1105463710,1149673176] size =     44209466
	Batch  27 pq = [   47951,   48864] index = [    1149673176,1193869680] size =     44196504
	Batch  28 pq = [   48864,   49761] index = [    1193869680,1238103441] size =     44233761
	Batch  29 pq = [   49761,   50642] index = [    1238103441,1282331403] size =     44227962
	Batch  30 pq = [   50642,   51508] index = [    1282331403,1326562786] size =     44231383
	Batch  31 pq = [   51508,   52359] index = [    1326562786,1370758620] size =     44195834
	Batch  32 pq = [   52359,   53197] index = [    1370758620,1414987003] size =     44228383
	Batch  33 pq = [   53197,   54022] index = [    1414987003,1459215253] size =     44228250
	Batch  34 pq = [   54022,   54834] index = [    1459215253,1503411195] size =     44195942
	Batch  35 pq = [   54834,   55634] index = [    1503411195,1547598795] size =     44187600
	Batch  36 pq = [   55634,   56423] index = [    1547598795,1591805676] size =     44206881
	Batch  37 pq = [   56423,   56953] index = [    1591805676,1621850581] size =     30044905
  Task number: 147
  Buffer size: 11059200
  Buffer per thread: 2
  We computed 85058167 shell quartets total.
  Whereas there are 80905560 unique shell quartets.
     5.13 percent of shell quartets recomputed by reordering.

  ==> DiskJK: Disk-Based J/K Matrices <==

    J tasked:                  Yes
    K tasked:                  Yes
    wK tasked:                  No
    Memory [MiB]:              375
    Schwarz Cutoff:          1E-12

    OpenMP threads:              1

  Minimum eigenvalue in the overlap matrix is 2.4847275059E-04.
  Using Symmetric Orthogonalization.

  SCF Guess: Superposition of Atomic Densities via on-the-fly atomic UHF.

  ==> Iterations <==

                        Total Energy        Delta E     RMS |[F,P]|

   @RHF iter SAD:  -744.52365492723720   -7.44524e+02   0.00000e+00
   @RHF iter   1:  -744.75912627673188   -2.35471e-01   2.20783e-03 DIIS
   @RHF iter   2:  -745.07640591983204   -3.17280e-01   9.59992e-04 DIIS
   @RHF iter   3:  -745.12918231891138   -5.27764e-02   2.63516e-04 DIIS
   @RHF iter   4:  -745.13436334113123   -5.18102e-03   1.18776e-04 DIIS
   @RHF iter   5:  -745.13527759516580   -9.14254e-04   1.76400e-05 DIIS
   @RHF iter   6:  -745.13531564155301   -3.80464e-05   8.47204e-06 DIIS
   @RHF iter   7:  -745.13532402114208   -8.37959e-06   3.11454e-06 DIIS
   @RHF iter   8:  -745.13532605866499   -2.03752e-06   1.33585e-06 DIIS
   @RHF iter   9:  -745.13532649893671   -4.40272e-07   6.29123e-07 DIIS
   @RHF iter  10:  -745.13532661071190   -1.11775e-07   2.93145e-07 DIIS
   @RHF iter  11:  -745.13532663987598   -2.91641e-08   1.17342e-07 DIIS
   @RHF iter  12:  -745.13532664398690   -4.11092e-09   4.44591e-08 DIIS
   @RHF iter  13:  -745.13532664442516   -4.38263e-10   1.49263e-08 DIIS
   @RHF iter  14:  -745.13532664445984   -3.46745e-11   5.10018e-09 DIIS
   @RHF iter  15:  -745.13532664446927   -9.43601e-12   1.92951e-09 DIIS
   @RHF iter  16:  -745.13532664446234    6.93490e-12   9.33671e-10 DIIS
   @RHF iter  17:  -745.13532664445620    6.13909e-12   4.55657e-10 DIIS
   @RHF iter  18:  -745.13532664447007   -1.38698e-11   1.98052e-10 DIIS
   @RHF iter  19:  -745.13532664446041    9.66338e-12   9.09573e-11 DIIS
  Energy and wave function converged.

  ==> Post-Iterations <==

    Orbital Energies [Eh]
    ---------------------

    Doubly Occupied:

       1A    -20.577048     2A    -15.598887     3A    -11.289675
       4A    -11.259121     5A    -11.256530     6A    -11.237737
       7A    -11.236394     8A    -11.233436     9A    -11.231052
      10A    -11.227949    11A    -11.226583    12A    -11.226466
      13A    -11.225726    14A    -11.220103    15A    -11.217177
      16A    -11.217059    17A    -11.215227    18A    -11.208819
      19A     -1.399421    20A     -1.297698    21A     -1.139351
      22A     -1.124847    23A     -1.075692    24A     -1.030392
      25A     -1.010364    26A     -0.995564    27A     -0.983352
      28A     -0.930893    29A     -0.921473    30A     -0.843039
      31A     -0.837080    32A     -0.802374    33A     -0.794210
      34A     -0.751168    35A     -0.729310    36A     -0.719186
      37A     -0.662191    38A     -0.657479    39A     -0.642765
      40A     -0.638503    41A     -0.605420    42A     -0.603110
      43A     -0.594218    44A     -0.593221    45A     -0.582927
      46A     -0.571456    47A     -0.567810    48A     -0.563656
      49A     -0.562678    50A     -0.552216    51A     -0.538020
      52A     -0.522319    53A     -0.519744    54A     -0.494443
      55A     -0.491472    56A     -0.479877    57A     -0.471037
      58A     -0.458689    59A     -0.451218    60A     -0.369233
      61A     -0.330332    62A     -0.295148    63A     -0.289745
      64A     -0.267432

    Virtual:

      65A      0.125367    66A      0.132920    67A      0.157738
      68A      0.169935    69A      0.182338    70A      0.183217
      71A      0.187124    72A      0.198953    73A      0.209264
      74A      0.219449    75A      0.224918    76A      0.229106
      77A      0.236138    78A      0.258283    79A      0.264551
      80A      0.270936    81A      0.275065    82A      0.284225
      83A      0.295211    84A      0.306553    85A      0.321636
      86A      0.353675    87A      0.374005    88A      0.378269
      89A      0.380939    90A      0.393297    91A      0.421262
      92A      0.427019    93A      0.444143    94A      0.458027
      95A      0.462480    96A      0.470577    97A      0.482837
      98A      0.490273    99A      0.497061   100A      0.511618
     101A      0.529121   102A      0.558776   103A      0.602743
     104A      0.620913   105A      0.635956   106A      0.640258
     107A      0.649457   108A      0.652301   109A      0.657395
     110A      0.660542   111A      0.676178   112A      0.681656
     113A      0.692217   114A      0.696983   115A      0.702857
     116A      0.711940   117A      0.721281   118A      0.726501
     119A      0.727056   120A      0.733099   121A      0.734437
     122A      0.749152   123A      0.750382   124A      0.758836
     125A      0.763267   126A      0.771450   127A      0.777316
     128A      0.781769   129A      0.784826   130A      0.785810
     131A      0.796628   132A      0.803854   133A      0.814618
     134A      0.817483   135A      0.840068   136A      0.841015
     137A      0.850724   138A      0.858780   139A      0.876694
     140A      0.884831   141A      0.888372   142A      0.892012
     143A      0.898166   144A      0.900654   145A      0.905350
     146A      0.912887   147A      0.919929   148A      0.929122
     149A      0.943153   150A      0.944187   151A      0.950520
     152A      0.954155   153A      0.956885   154A      0.972046
     155A      0.979633   156A      0.995216   157A      0.995931
     158A      1.020437   159A      1.028870   160A      1.039635
     161A      1.055056   162A      1.062602   163A      1.090802
     164A      1.098895   165A      1.120321   166A      1.129050
     167A      1.133848   168A      1.138966   169A      1.150006
     170A      1.152497   171A      1.160916   172A      1.168039
     173A      1.176709   174A      1.203642   175A      1.214206
     176A      1.218411   177A      1.231674   178A      1.236307
     179A      1.247555   180A      1.260015   181A      1.267689
     182A      1.274532   183A      1.284531   184A      1.288189
     185A      1.293516   186A      1.296038   187A      1.307099
     188A      1.320113   189A      1.322230   190A      1.334529
     191A      1.339201   192A      1.360564   193A      1.364759
     194A      1.377809   195A      1.388104   196A      1.399232
     197A      1.452012   198A      1.465011   199A      1.473590
     200A      1.496599   201A      1.525366   202A      1.534810
     203A      1.548945   204A      1.565550   205A      1.573868
     206A      1.591521   207A      1.613063   208A      1.624801
     209A      1.631121   210A      1.637867   211A      1.652917
     212A      1.684914   213A      1.690722   214A      1.704070
     215A      1.710408   216A      1.714488   217A      1.731446
     218A      1.737264   219A      1.752261   220A      1.754675
     221A      1.762514   222A      1.781302   223A      1.798954
     224A      1.809688   225A      1.810879   226A      1.823411
     227A      1.836024   228A      1.843919   229A      1.859669
     230A      1.878724   231A      1.885778   232A      1.890446
     233A      1.900759   234A      1.902331   235A      1.908657
     236A      1.913309   237A      1.919353   238A      1.930476
     239A      1.931436   240A      1.940932   241A      1.950641
     242A      1.958300   243A      1.969646   244A      1.974537
     245A      1.987412   246A      1.991632   247A      2.003912
     248A      2.014808   249A      2.022293   250A      2.028492
     251A      2.034314   252A      2.046595   253A      2.051354
     254A      2.064317   255A      2.069201   256A      2.084931
     257A      2.090169   258A      2.100462   259A      2.106580
     260A      2.109535   261A      2.116358   262A      2.136607
     263A      2.154940   264A      2.168782   265A      2.169088
     266A      2.180427   267A      2.183965   268A      2.193126
     269A      2.219350   270A      2.223199   271A      2.245324
     272A      2.263054   273A      2.271281   274A      2.280888
     275A      2.290724   276A      2.310056   277A      2.317318
     278A      2.330968   279A      2.334207   280A      2.352041
     281A      2.363745   282A      2.393862   283A      2.394328
     284A      2.409335   285A      2.418050   286A      2.430365
     287A      2.468239   288A      2.489630   289A      2.491942
     290A      2.502453   291A      2.515607   292A      2.528227
     293A      2.546489   294A      2.565876   295A      2.602150
     296A      2.610730   297A      2.621438   298A      2.637409
     299A      2.655337   300A      2.670730   301A      2.699518
     302A      2.754857   303A      2.757731   304A      2.775856
     305A      2.781425   306A      2.786582   307A      2.789212
     308A      2.799039   309A      2.816457   310A      2.828712
     311A      2.835022   312A      2.864824   313A      2.885367
     314A      2.892119   315A      2.902048   316A      2.930165
     317A      2.942255   318A      2.988571   319A      3.031054
     320A      3.056631   321A      3.062743   322A      3.078546
     323A      3.089418   324A      3.101297   325A      3.130761
     326A      3.219439   327A      3.257789   328A      3.309127
     329A      3.323274   330A      3.360141   331A      3.397690
     332A      3.595483   333A      3.675720   334A      3.762747
     335A      3.937370   336A      3.972082   337A      4.195958

    Final Occupation by Irrep:
              A
    DOCC [    64 ]

  @RHF Final Energy:  -745.13532664446041

   => Energetics <=

    Nuclear Repulsion Energy =           1194.0894971474474460
    One-Electron Energy =               -3383.1161255177289604
    Two-Electron Energy =                1443.8913017258207674
    Total Energy =                       -745.1353266444605197

Computation Completed

Properties will be evaluated at   0.000000,   0.000000,   0.000000 [a0]

Properties computed using the SCF density matrix

  Nuclear Dipole Moment: [e a0]
     X:     5.4675      Y:     7.3265      Z:    -1.1553

  Electronic Dipole Moment: [e a0]
     X:    -5.4542      Y:    -7.9052      Z:     1.3159

  Dipole Moment: [e a0]
     X:     0.0133      Y:    -0.5787      Z:     0.1606     Total:     0.6007

  Dipole Moment: [D]
     X:     0.0338      Y:    -1.4709      Z:     0.4082     Total:     1.5269

*** tstop() called on ds3 at Mon Apr 27 06:29:59 2020
Module time:
	user time   =     805.76 seconds =      13.43 minutes
	system time =     304.05 seconds =       5.07 minutes
	total time  =      11116 seconds =     185.27 minutes
Total time:
	user time   =     805.76 seconds =      13.43 minutes
	system time =     304.05 seconds =       5.07 minutes
	total time  =      11116 seconds =     185.27 minutes
                                     G D M A

                                 by Anthony Stone

                           version 2.2.06, 22 June 2011

               Distributed Multipoles from Gaussian wavefunctions

Starting at 6:29:59 on 27 Apr 2020

Using SCF density matrix from file ./SSI/SSI-133TRP-277TYR-1-dimer.test.18091.fchk

                         Distributed Multipole Analysis

Standard DMA

Positions and radii in angstrom
Multipole moments in atomic units, ea_0^k for rank k

C          x = -0.058463  y = -0.541433  z =  3.329083 angstrom
           Maximum rank =  0   Radius =  0.650 angstrom
                   Q00  =  -0.228881

C          x = -1.722463  y = -0.482433  z =  1.373083 angstrom
           Maximum rank =  0   Radius =  0.650 angstrom
                   Q00  =  -0.026107

C          x = -1.303463  y = -0.926433  z =  2.659083 angstrom
           Maximum rank =  0   Radius =  0.650 angstrom
                   Q00  =  -0.113667

C          x = -2.949463  y = -1.136433  z =  1.092083 angstrom
           Maximum rank =  0   Radius =  0.650 angstrom
                   Q00  =   0.282913

C          x = -2.205463  y = -1.859433  z =  3.059083 angstrom
           Maximum rank =  0   Radius =  0.650 angstrom
                   Q00  =   0.074198

C          x = -1.919463  y =  0.659567  z = -0.729917 angstrom
           Maximum rank =  0   Radius =  0.650 angstrom
                   Q00  =  -0.086663

C          x = -3.140463  y = -0.020433  z = -0.988917 angstrom
           Maximum rank =  0   Radius =  0.650 angstrom
                   Q00  =  -0.070954

C          x = -1.230463  y =  0.456567  z =  0.465083 angstrom
           Maximum rank =  0   Radius =  0.650 angstrom
                   Q00  =  -0.129842

C          x = -3.671463  y = -0.912433  z = -0.072917 angstrom
           Maximum rank =  0   Radius =  0.650 angstrom
                   Q00  =  -0.113211

N          x = -3.228463  y = -1.937433  z =  2.168083 angstrom
           Maximum rank =  0   Radius =  0.650 angstrom
                   Q00  =  -0.481779

H          x = -1.562463  y =  1.393567  z = -1.439917 angstrom
           Maximum rank =  0   Radius =  0.325 angstrom
                   Q00  =   0.062168

H          x = -3.669463  y =  0.167567  z = -1.913917 angstrom
           Maximum rank =  0   Radius =  0.325 angstrom
                   Q00  =   0.064850

H          x = -0.449463  y =  1.127567  z =  0.774083 angstrom
           Maximum rank =  0   Radius =  0.325 angstrom
                   Q00  =   0.079106

H          x = -4.606463  y = -1.419433  z = -0.260917 angstrom
           Maximum rank =  0   Radius =  0.325 angstrom
                   Q00  =   0.072766

H          x =  0.472537  y =  0.174567  z =  2.701083 angstrom
           Maximum rank =  0   Radius =  0.325 angstrom
                   Q00  =   0.104635

H          x =  0.552537  y = -1.432433  z =  3.346083 angstrom
           Maximum rank =  0   Radius =  0.325 angstrom
                   Q00  =   0.103678

H          x = -2.145463  y = -2.453433  z =  3.961083 angstrom
           Maximum rank =  0   Radius =  0.325 angstrom
                   Q00  =   0.095442

H          x = -4.036463  y = -2.540433  z =  2.276083 angstrom
           Maximum rank =  0   Radius =  0.325 angstrom
                   Q00  =   0.216864

H          x = -0.124011  y = -0.111003  z =  4.339243 angstrom
           Maximum rank =  0   Radius =  0.325 angstrom
                   Q00  =   0.102367

C          x =  2.515537  y =  3.608567  z = -2.527917 angstrom
           Maximum rank =  0   Radius =  0.650 angstrom
                   Q00  =  -0.195580

C          x =  1.559537  y =  1.716567  z = -1.134917 angstrom
           Maximum rank =  0   Radius =  0.650 angstrom
                   Q00  =  -0.073086

C          x =  2.527537  y =  2.165567  z = -2.053917 angstrom
           Maximum rank =  0   Radius =  0.650 angstrom
                   Q00  =  -0.138603

C          x =  1.616537  y =  0.406567  z = -0.648917 angstrom
           Maximum rank =  0   Radius =  0.650 angstrom
                   Q00  =  -0.012908

C          x =  3.560537  y =  1.281567  z = -2.432917 angstrom
           Maximum rank =  0   Radius =  0.650 angstrom
                   Q00  =  -0.071844

C          x =  2.588537  y = -0.469433  z = -1.086917 angstrom
           Maximum rank =  0   Radius =  0.650 angstrom
                   Q00  =   0.384615

C          x =  3.607537  y = -0.042433  z = -1.939917 angstrom
           Maximum rank =  0   Radius =  0.650 angstrom
                   Q00  =  -0.187857

O          x =  2.629537  y = -1.725433  z = -0.590917 angstrom
           Maximum rank =  0   Radius =  0.650 angstrom
                   Q00  =  -0.687575

H          x =  0.746537  y =  2.365567  z = -0.855917 angstrom
           Maximum rank =  0   Radius =  0.325 angstrom
                   Q00  =   0.064525

H          x =  0.987537  y = -0.011433  z =  0.096083 angstrom
           Maximum rank =  0   Radius =  0.325 angstrom
                   Q00  =   0.071921

H          x =  1.536537  y =  4.055567  z = -2.349917 angstrom
           Maximum rank =  0   Radius =  0.325 angstrom
                   Q00  =   0.097695

H          x =  2.699537  y =  3.619567  z = -3.600917 angstrom
           Maximum rank =  0   Radius =  0.325 angstrom
                   Q00  =   0.096375

H          x =  4.341537  y =  1.627567  z = -3.091917 angstrom
           Maximum rank =  0   Radius =  0.325 angstrom
                   Q00  =   0.068010

H          x =  4.404537  y = -0.708433  z = -2.239917 angstrom
           Maximum rank =  0   Radius =  0.325 angstrom
                   Q00  =   0.072468

H          x =  3.367537  y = -2.232433  z = -0.944917 angstrom
           Maximum rank =  0   Radius =  0.325 angstrom
                   Q00  =   0.404886

H          x =  3.293702  y =  4.195557  z = -2.018107 angstrom
           Maximum rank =  0   Radius =  0.325 angstrom
                   Q00  =   0.099075

Total multipoles referred to origin at
           x =   0.000000,  y =    0.000000,  z =    0.000000 angstrom
                   Q00  =  -0.000000

Finished at 6:29:59 on 27 Apr 2020

  DMA results are available in the Python driver through the
	  variable('DMA DISTRIBUTED MULTIPOLES')
  and
	  variable('DMA TOTAL MULTIPOLES')
  commands.

    Psi4 stopped on: Monday, 27 April 2020 06:29AM
    Psi4 wall time for execution: 3:05:16.72

*** Psi4 exiting successfully. Buy a developer a beer!
