                               Psi4 1.3.2 release

  ==> Input File <==

--------------------------------------------------------------------------
import numpy as np
set {scf_type pk
basis cc-pvdz
d_convergence 10
gdma_switch   0
gdma_limit    0
gdma_origin   [ 0.0,  0.0,  0.0 ]
}
molecule test {
    units Angstrom
    0 1
    --
    0 1
    C                0.247251895606427    -2.546109031828995     1.311535581439168
    C                1.619251895606427    -0.960109031828996    -0.005464418560832
    N                0.458251895606427    -1.369109031828996     0.486535581439168
    N                2.728251895606427    -1.634109031828996     0.172535581439168
    N                1.634251895606426     0.134890968171004    -0.716464418560832
    H               -0.363748104393573    -0.817109031828996     0.227535581439168
    H                0.823251895606427    -2.461109031828996     2.236535581439168
    H                0.582251895606427    -3.433109031828996     0.768535581439168
    H                2.711251895606427    -2.491109031828996     0.703535581439168
    H                3.593251895606427    -1.313109031828996    -0.234464418560832
    H                0.775251895606427     0.688890968171004    -0.777464418560832
    H                2.514251895606427     0.557890968171004    -0.986464418560832
    H               -0.814288104393573    -2.682759031828996     1.565413981439168
    C               -2.777748104393573     2.416890968171004     0.156535581439168
    C               -1.674748104393573     1.555890968171004    -0.382464418560832
    O               -1.699748104393574     0.314890968171004    -0.267464418560832
    O               -0.622748104393573     2.103890968171004    -0.769464418560832
    H               -3.538748104393573     1.774890968171004     0.595535581439168
    H               -3.217748104393573     3.003890968171004    -0.649464418560832
    H               -2.395578104393573     3.083160968171004     0.943951281439168

}
e, wfn = energy('scf', return_wfn=True)
gdma(wfn)
dmavals = variable('DMA DISTRIBUTED MULTIPOLES')
charges = np.array(dmavals)
print(charges)
np.save('SSI-173ARG-234ASP-1-dimer.npy', np.array(charges))--------------------------------------------------------------------------

*** tstart() called on ds3
*** at Tue Apr 28 12:27:17 2020

   => Loading Basis Set <=

    Name: CC-PVDZ
    Role: ORBITAL
    Keyword: BASIS
    atoms 1-2, 14-15  entry C          line   138 file /theoryfs2/ds/metcalf/miniconda2/envs/tf2gpu/share/psi4/basis/cc-pvdz.gbs
    atoms 3-5         entry N          line   168 file /theoryfs2/ds/metcalf/miniconda2/envs/tf2gpu/share/psi4/basis/cc-pvdz.gbs
    atoms 6-13, 18-20 entry H          line    22 file /theoryfs2/ds/metcalf/miniconda2/envs/tf2gpu/share/psi4/basis/cc-pvdz.gbs
    atoms 16-17       entry O          line   198 file /theoryfs2/ds/metcalf/miniconda2/envs/tf2gpu/share/psi4/basis/cc-pvdz.gbs

         ---------------------------------------------------------
                                   SCF
               by Justin Turney, Rob Parrish, Andy Simmonett
                          and Daniel G. A. Smith
                              RHF Reference
                        1 Threads,    500 MiB Core
         ---------------------------------------------------------

  ==> Geometry <==

    Molecular point group: c1
    Full point group: C1

    Geometry (in Angstrom), charge = 0, multiplicity = 1:

       Center              X                  Y                   Z               Mass
    ------------   -----------------  -----------------  -----------------  -----------------
         C            0.247251895606    -2.546109031829     1.311535581439    12.000000000000
         C            1.619251895606    -0.960109031829    -0.005464418561    12.000000000000
         N            0.458251895606    -1.369109031829     0.486535581439    14.003074004430
         N            2.728251895606    -1.634109031829     0.172535581439    14.003074004430
         N            1.634251895606     0.134890968171    -0.716464418561    14.003074004430
         H           -0.363748104394    -0.817109031829     0.227535581439     1.007825032230
         H            0.823251895606    -2.461109031829     2.236535581439     1.007825032230
         H            0.582251895606    -3.433109031829     0.768535581439     1.007825032230
         H            2.711251895606    -2.491109031829     0.703535581439     1.007825032230
         H            3.593251895606    -1.313109031829    -0.234464418561     1.007825032230
         H            0.775251895606     0.688890968171    -0.777464418561     1.007825032230
         H            2.514251895606     0.557890968171    -0.986464418561     1.007825032230
         H           -0.814288104394    -2.682759031829     1.565413981439     1.007825032230
         C           -2.777748104394     2.416890968171     0.156535581439    12.000000000000
         C           -1.674748104394     1.555890968171    -0.382464418561    12.000000000000
         O           -1.699748104394     0.314890968171    -0.267464418561    15.994914619570
         O           -0.622748104394     2.103890968171    -0.769464418561    15.994914619570
         H           -3.538748104394     1.774890968171     0.595535581439     1.007825032230
         H           -3.217748104394     3.003890968171    -0.649464418561     1.007825032230
         H           -2.395578104394     3.083160968171     0.943951281439     1.007825032230

  Running in c1 symmetry.

  Rotational constants: A =      0.09725  B =      0.02445  C =      0.02011 [cm^-1]
  Rotational constants: A =   2915.58316  B =    732.98017  C =    602.91524 [MHz]
  Nuclear repulsion =  465.073967380440820

  Charge       = 0
  Multiplicity = 1
  Electrons    = 72
  Nalpha       = 36
  Nbeta        = 36

  ==> Algorithm <==

  SCF Algorithm Type is PK.
  DIIS enabled.
  MOM disabled.
  Fractional occupation disabled.
  Guess Type is SAD.
  Energy threshold   = 1.00e-06
  Density threshold  = 1.00e-10
  Integral threshold = 0.00e+00

  ==> Primary Basis <==

  Basis Set: CC-PVDZ
    Blend: CC-PVDZ
    Number of shells: 87
    Number of basis function: 181
    Number of Cartesian functions: 190
    Spherical Harmonics?: true
    Max angular momentum: 2

  ==> Pre-Iterations <==

   -------------------------------------------------------
    Irrep   Nso     Nmo     Nalpha   Nbeta   Ndocc  Nsocc
   -------------------------------------------------------
     A        181     181       0       0       0       0
   -------------------------------------------------------
    Total     181     181      36      36      36       0
   -------------------------------------------------------

  ==> Integral Setup <==

  Using integral reordering PK algorithm.
  Sizing the integral batches needed.
  Building batch lookup table.
   Calculation information:
      Number of atoms:                  20
      Number of AO shells:              87
      Number of primitives:            253
      Number of atomic orbitals:       190
      Number of basis functions:       181

      Integral cutoff                 1.00e-12
      Number of threads:                 1

	Batch   1 pq = [       0,    9405] index = [             0,44231715] size =     44231715
	Batch   2 pq = [    9405,   13301] index = [      44231715,88464951] size =     44233236
	Batch   3 pq = [   13301,   16471] index = [      88464951,135655156] size =     47190205
  Task number: 13
  Buffer size: 11059200
  Buffer per thread: 2
  We computed 6106679 shell quartets total.
  Whereas there are 7328706 unique shell quartets.

  ==> DiskJK: Disk-Based J/K Matrices <==

    J tasked:                  Yes
    K tasked:                  Yes
    wK tasked:                  No
    Memory [MiB]:              375
    Schwarz Cutoff:          1E-12

    OpenMP threads:              1

  Minimum eigenvalue in the overlap matrix is 3.6495723269E-03.
  Using Symmetric Orthogonalization.

  SCF Guess: Superposition of Atomic Densities via on-the-fly atomic UHF.

  ==> Iterations <==

                        Total Energy        Delta E     RMS |[F,P]|

   @RHF iter SAD:  -469.84213150123401   -4.69842e+02   0.00000e+00
   @RHF iter   1:  -470.71888322964054   -8.76752e-01   4.20159e-03 DIIS
   @RHF iter   2:  -470.94178872170284   -2.22905e-01   2.16272e-03 DIIS
   @RHF iter   3:  -470.99744955418851   -5.56608e-02   3.87317e-04 DIIS
   @RHF iter   4:  -471.00057613875890   -3.12658e-03   1.30412e-04 DIIS
   @RHF iter   5:  -471.00092739964248   -3.51261e-04   2.37173e-05 DIIS
   @RHF iter   6:  -471.00094356968680   -1.61700e-05   8.95103e-06 DIIS
   @RHF iter   7:  -471.00094514630314   -1.57662e-06   2.73424e-06 DIIS
   @RHF iter   8:  -471.00094534265349   -1.96350e-07   1.00362e-06 DIIS
   @RHF iter   9:  -471.00094536600682   -2.33533e-08   2.75704e-07 DIIS
   @RHF iter  10:  -471.00094536833973   -2.33291e-09   7.50143e-08 DIIS
   @RHF iter  11:  -471.00094536858359   -2.43858e-10   2.55965e-08 DIIS
   @RHF iter  12:  -471.00094536861457   -3.09797e-11   1.15378e-08 DIIS
   @RHF iter  13:  -471.00094536861701   -2.44427e-12   4.21144e-09 DIIS
   @RHF iter  14:  -471.00094536861678    2.27374e-13   1.14063e-09 DIIS
   @RHF iter  15:  -471.00094536861747   -6.82121e-13   3.96974e-10 DIIS
   @RHF iter  16:  -471.00094536861911   -1.64846e-12   1.40599e-10 DIIS
   @RHF iter  17:  -471.00094536861747    1.64846e-12   5.70829e-11 DIIS
  Energy and wave function converged.

  ==> Post-Iterations <==

    Orbital Energies [Eh]
    ---------------------

    Doubly Occupied:

       1A    -20.422125     2A    -20.414184     3A    -15.650501
       4A    -15.606470     5A    -15.605920     6A    -11.423962
       7A    -11.303511     8A    -11.266723     9A    -11.173925
      10A     -1.390631    11A     -1.317804    12A     -1.247863
      13A     -1.228022    14A     -1.192277    15A     -0.992046
      16A     -0.931376    17A     -0.883288    18A     -0.819694
      19A     -0.780843    20A     -0.710797    21A     -0.688817
      22A     -0.674625    23A     -0.647986    24A     -0.634873
      25A     -0.602680    26A     -0.579584    27A     -0.559376
      28A     -0.548840    29A     -0.544496    30A     -0.480269
      31A     -0.468452    32A     -0.454281    33A     -0.415699
      34A     -0.348642    35A     -0.326321    36A     -0.322896

    Virtual:

      37A      0.122942    38A      0.155956    39A      0.179857
      40A      0.207473    41A      0.215432    42A      0.235554
      43A      0.245799    44A      0.246494    45A      0.272220
      46A      0.299781    47A      0.309504    48A      0.344032
      49A      0.365082    50A      0.410311    51A      0.438754
      52A      0.453405    53A      0.482746    54A      0.494644
      55A      0.584809    56A      0.597000    57A      0.610296
      58A      0.619694    59A      0.653723    60A      0.672429
      61A      0.675364    62A      0.693240    63A      0.717670
      64A      0.723915    65A      0.731093    66A      0.736758
      67A      0.806345    68A      0.820241    69A      0.832345
      70A      0.846748    71A      0.849434    72A      0.860076
      73A      0.894759    74A      0.904617    75A      0.913679
      76A      0.922456    77A      0.938725    78A      0.942147
      79A      0.958660    80A      0.974748    81A      0.988687
      82A      0.992794    83A      1.058169    84A      1.068764
      85A      1.091769    86A      1.102521    87A      1.120840
      88A      1.143346    89A      1.193222    90A      1.223611
      91A      1.237517    92A      1.265682    93A      1.283689
      94A      1.306532    95A      1.333391    96A      1.347723
      97A      1.366467    98A      1.400506    99A      1.423843
     100A      1.439061   101A      1.456962   102A      1.494117
     103A      1.502720   104A      1.542959   105A      1.563688
     106A      1.595372   107A      1.627312   108A      1.635361
     109A      1.645589   110A      1.692971   111A      1.697557
     112A      1.720578   113A      1.723236   114A      1.730983
     115A      1.805007   116A      1.829961   117A      1.859505
     118A      1.878322   119A      1.900776   120A      1.903862
     121A      1.918874   122A      1.946278   123A      1.947920
     124A      1.962765   125A      1.972597   126A      1.973385
     127A      1.983514   128A      2.004983   129A      2.025251
     130A      2.075821   131A      2.092997   132A      2.153413
     133A      2.179899   134A      2.192987   135A      2.208555
     136A      2.228234   137A      2.253660   138A      2.282842
     139A      2.289489   140A      2.321694   141A      2.364783
     142A      2.399708   143A      2.411776   144A      2.452497
     145A      2.462819   146A      2.497383   147A      2.502460
     148A      2.529557   149A      2.573594   150A      2.578397
     151A      2.596340   152A      2.659941   153A      2.686276
     154A      2.710699   155A      2.734657   156A      2.752412
     157A      2.799368   158A      2.812806   159A      2.849102
     160A      2.869193   161A      2.883465   162A      2.924873
     163A      2.959455   164A      2.999970   165A      3.008620
     166A      3.047970   167A      3.097211   168A      3.129032
     169A      3.160972   170A      3.209280   171A      3.236394
     172A      3.282038   173A      3.340396   174A      3.509338
     175A      3.582589   176A      3.667800   177A      3.767286
     178A      3.815038   179A      3.937428   180A      3.950643
     181A      4.091347

    Final Occupation by Irrep:
              A
    DOCC [    36 ]

  @RHF Final Energy:  -471.00094536861747

   => Energetics <=

    Nuclear Repulsion Energy =            465.0739673804408199
    One-Electron Energy =               -1566.8302283058876583
    Two-Electron Energy =                 630.7553155568293732
    Total Energy =                       -471.0009453686175220

Computation Completed

Properties will be evaluated at   0.000000,   0.000000,   0.000000 [a0]

Properties computed using the SCF density matrix

  Nuclear Dipole Moment: [e a0]
     X:     0.6024      Y:    -3.8139      Z:     4.1137

  Electronic Dipole Moment: [e a0]
     X:     2.8862      Y:     0.9559      Z:    -3.0495

  Dipole Moment: [e a0]
     X:     3.4886      Y:    -2.8580      Z:     1.0642     Total:     4.6337

  Dipole Moment: [D]
     X:     8.8671      Y:    -7.2643      Z:     2.7049     Total:    11.7776

*** tstop() called on ds3 at Tue Apr 28 12:29:49 2020
Module time:
	user time   =      46.31 seconds =       0.77 minutes
	system time =      17.48 seconds =       0.29 minutes
	total time  =        152 seconds =       2.53 minutes
Total time:
	user time   =      46.31 seconds =       0.77 minutes
	system time =      17.48 seconds =       0.29 minutes
	total time  =        152 seconds =       2.53 minutes
                                     G D M A

                                 by Anthony Stone

                           version 2.2.06, 22 June 2011

               Distributed Multipoles from Gaussian wavefunctions

Starting at 12:29:49 on 28 Apr 2020

Using SCF density matrix from file ./SSI/SSI-173ARG-234ASP-1-dimer.test.14945.fchk

                         Distributed Multipole Analysis

Standard DMA

Positions and radii in angstrom
Multipole moments in atomic units, ea_0^k for rank k

C          x =  0.247252  y = -2.546109  z =  1.311536 angstrom
           Maximum rank =  0   Radius =  0.650 angstrom
                   Q00  =  -0.099989

C          x =  1.619252  y = -0.960109  z = -0.005464 angstrom
           Maximum rank =  0   Radius =  0.650 angstrom
                   Q00  =   1.071007

N          x =  0.458252  y = -1.369109  z =  0.486536 angstrom
           Maximum rank =  0   Radius =  0.650 angstrom
                   Q00  =  -0.527822

N          x =  2.728252  y = -1.634109  z =  0.172536 angstrom
           Maximum rank =  0   Radius =  0.650 angstrom
                   Q00  =  -0.579925

N          x =  1.634252  y =  0.134891  z = -0.716464 angstrom
           Maximum rank =  0   Radius =  0.650 angstrom
                   Q00  =  -0.583469

H          x = -0.363748  y = -0.817109  z =  0.227536 angstrom
           Maximum rank =  0   Radius =  0.325 angstrom
                   Q00  =   0.332945

H          x =  0.823252  y = -2.461109  z =  2.236536 angstrom
           Maximum rank =  0   Radius =  0.325 angstrom
                   Q00  =   0.082712

H          x =  0.582252  y = -3.433109  z =  0.768536 angstrom
           Maximum rank =  0   Radius =  0.325 angstrom
                   Q00  =   0.076046

H          x =  2.711252  y = -2.491109  z =  0.703536 angstrom
           Maximum rank =  0   Radius =  0.325 angstrom
                   Q00  =   0.243630

H          x =  3.593252  y = -1.313109  z = -0.234464 angstrom
           Maximum rank =  0   Radius =  0.325 angstrom
                   Q00  =   0.242765

H          x =  0.775252  y =  0.688891  z = -0.777464 angstrom
           Maximum rank =  0   Radius =  0.325 angstrom
                   Q00  =   0.305908

H          x =  2.514252  y =  0.557891  z = -0.986464 angstrom
           Maximum rank =  0   Radius =  0.325 angstrom
                   Q00  =   0.225190

H          x = -0.814288  y = -2.682759  z =  1.565414 angstrom
           Maximum rank =  0   Radius =  0.325 angstrom
                   Q00  =   0.157433

C          x = -2.777748  y =  2.416891  z =  0.156536 angstrom
           Maximum rank =  0   Radius =  0.650 angstrom
                   Q00  =  -0.252968

C          x = -1.674748  y =  1.555891  z = -0.382464 angstrom
           Maximum rank =  0   Radius =  0.650 angstrom
                   Q00  =   0.902587

O          x = -1.699748  y =  0.314891  z = -0.267464 angstrom
           Maximum rank =  0   Radius =  0.650 angstrom
                   Q00  =  -0.957084

O          x = -0.622748  y =  2.103891  z = -0.769464 angstrom
           Maximum rank =  0   Radius =  0.650 angstrom
                   Q00  =  -0.917502

H          x = -3.538748  y =  1.774891  z =  0.595536 angstrom
           Maximum rank =  0   Radius =  0.325 angstrom
                   Q00  =   0.073853

H          x = -3.217748  y =  3.003891  z = -0.649464 angstrom
           Maximum rank =  0   Radius =  0.325 angstrom
                   Q00  =   0.104954

H          x = -2.395578  y =  3.083161  z =  0.943951 angstrom
           Maximum rank =  0   Radius =  0.325 angstrom
                   Q00  =   0.099728

Total multipoles referred to origin at
           x =   0.000000,  y =    0.000000,  z =    0.000000 angstrom
                   Q00  =  -0.000000

Finished at 12:29:49 on 28 Apr 2020

  DMA results are available in the Python driver through the
	  variable('DMA DISTRIBUTED MULTIPOLES')
  and
	  variable('DMA TOTAL MULTIPOLES')
  commands.

    Psi4 stopped on: Tuesday, 28 April 2020 12:29PM
    Psi4 wall time for execution: 0:02:32.55

*** Psi4 exiting successfully. Buy a developer a beer!
