                               Psi4 1.3.2 release

  ==> Input File <==

--------------------------------------------------------------------------
import numpy as np
set {scf_type pk
basis cc-pvdz
d_convergence 10
gdma_switch   0
gdma_limit    0
gdma_origin   [ 0.0,  0.0,  0.0 ]
}
molecule test {
    units Angstrom
    0 1
    --
    0 1
    C               -2.201631181018145    -4.107579964025250     1.025269141506047
    C               -1.016631181018145    -0.630579964025250     0.386269141506047
    C               -0.785631181018145    -2.020579964025250     0.404269141506047
    C               -1.978631181018145    -2.642579964025249     0.898269141506047
    C               -2.865631181018145    -1.638579964025250     1.145269141506047
    C               -0.045631181018145     0.270420035974750    -0.019730858493953
    C                1.174368818981855    -0.236579964025250    -0.430730858493953
    C                1.423368818981855    -1.609579964025249    -0.426730858493953
    C                0.468368818981855    -2.501579964025249     0.001269141506047
    N               -2.291631181018145    -0.433579964025250     0.843269141506047
    H               -0.240631181018145     1.331420035974751    -0.008730858493953
    H                1.956368818981855     0.437420035974750    -0.751730858493953
    H               -2.715631181018145     0.483420035974750     1.006269141506047
    H                2.397368818981855    -1.975579964025250    -0.715730858493953
    H               -3.875631181018145    -1.777579964025249     1.513269141506047
    H                0.682368818981855    -3.556579964025250     0.057269141506047
    H               -2.798631181018145    -4.302579964025250     1.917269141506047
    H               -1.233631181018145    -4.581579964025249     1.187269141506047
    H               -2.666031181018145    -4.580591964025249     0.147439141506047
    C                1.053368818981855     3.826420035974750    -2.022730858493953
    C                1.939368818981855     3.447420035974750    -0.862730858493953
    O                2.980368818981855     2.762420035974750    -1.014730858493953
    N                1.550368818981855     3.911420035974750     0.306269141506047
    H                0.062368818981855     3.416420035974750    -1.828730858493953
    H                1.435368818981855     3.359420035974750    -2.929730858493953
    H                2.103368818981855     3.668420035974751     1.115269141506047
    H                0.670368818981855     4.389420035974750     0.422269141506047
    H                0.976528818981855     4.914390035974751    -2.165640858493952

}
e, wfn = energy('scf', return_wfn=True)
gdma(wfn)
dmavals = variable('DMA DISTRIBUTED MULTIPOLES')
charges = np.array(dmavals)
print(charges)
np.save('SSI-108TRP-151ASN-1-dimer.npy', np.array(charges))--------------------------------------------------------------------------

*** tstart() called on ds3
*** at Mon Apr 27 00:24:54 2020

   => Loading Basis Set <=

    Name: CC-PVDZ
    Role: ORBITAL
    Keyword: BASIS
    atoms 1-9, 20-21   entry C          line   138 file /theoryfs2/ds/metcalf/miniconda2/envs/tf2gpu/share/psi4/basis/cc-pvdz.gbs
    atoms 10, 23       entry N          line   168 file /theoryfs2/ds/metcalf/miniconda2/envs/tf2gpu/share/psi4/basis/cc-pvdz.gbs
    atoms 11-19, 24-28 entry H          line    22 file /theoryfs2/ds/metcalf/miniconda2/envs/tf2gpu/share/psi4/basis/cc-pvdz.gbs
    atoms 22           entry O          line   198 file /theoryfs2/ds/metcalf/miniconda2/envs/tf2gpu/share/psi4/basis/cc-pvdz.gbs

         ---------------------------------------------------------
                                   SCF
               by Justin Turney, Rob Parrish, Andy Simmonett
                          and Daniel G. A. Smith
                              RHF Reference
                        1 Threads,    500 MiB Core
         ---------------------------------------------------------

  ==> Geometry <==

    Molecular point group: c1
    Full point group: C1

    Geometry (in Angstrom), charge = 0, multiplicity = 1:

       Center              X                  Y                   Z               Mass
    ------------   -----------------  -----------------  -----------------  -----------------
         C           -2.201631181018    -4.107579964025     1.025269141506    12.000000000000
         C           -1.016631181018    -0.630579964025     0.386269141506    12.000000000000
         C           -0.785631181018    -2.020579964025     0.404269141506    12.000000000000
         C           -1.978631181018    -2.642579964025     0.898269141506    12.000000000000
         C           -2.865631181018    -1.638579964025     1.145269141506    12.000000000000
         C           -0.045631181018     0.270420035975    -0.019730858494    12.000000000000
         C            1.174368818982    -0.236579964025    -0.430730858494    12.000000000000
         C            1.423368818982    -1.609579964025    -0.426730858494    12.000000000000
         C            0.468368818982    -2.501579964025     0.001269141506    12.000000000000
         N           -2.291631181018    -0.433579964025     0.843269141506    14.003074004430
         H           -0.240631181018     1.331420035975    -0.008730858494     1.007825032230
         H            1.956368818982     0.437420035975    -0.751730858494     1.007825032230
         H           -2.715631181018     0.483420035975     1.006269141506     1.007825032230
         H            2.397368818982    -1.975579964025    -0.715730858494     1.007825032230
         H           -3.875631181018    -1.777579964025     1.513269141506     1.007825032230
         H            0.682368818982    -3.556579964025     0.057269141506     1.007825032230
         H           -2.798631181018    -4.302579964025     1.917269141506     1.007825032230
         H           -1.233631181018    -4.581579964025     1.187269141506     1.007825032230
         H           -2.666031181018    -4.580591964025     0.147439141506     1.007825032230
         C            1.053368818982     3.826420035975    -2.022730858494    12.000000000000
         C            1.939368818982     3.447420035975    -0.862730858494    12.000000000000
         O            2.980368818982     2.762420035975    -1.014730858494    15.994914619570
         N            1.550368818982     3.911420035975     0.306269141506    14.003074004430
         H            0.062368818982     3.416420035975    -1.828730858494     1.007825032230
         H            1.435368818982     3.359420035975    -2.929730858494     1.007825032230
         H            2.103368818982     3.668420035975     1.115269141506     1.007825032230
         H            0.670368818982     4.389420035975     0.422269141506     1.007825032230
         H            0.976528818982     4.914390035975    -2.165640858494     1.007825032230

  Running in c1 symmetry.

  Rotational constants: A =      0.05113  B =      0.00929  C =      0.00826 [cm^-1]
  Rotational constants: A =   1532.88830  B =    278.51124  C =    247.65328 [MHz]
  Nuclear repulsion =  813.124206936579981

  Charge       = 0
  Multiplicity = 1
  Electrons    = 102
  Nalpha       = 51
  Nbeta        = 51

  ==> Algorithm <==

  SCF Algorithm Type is PK.
  DIIS enabled.
  MOM disabled.
  Fractional occupation disabled.
  Guess Type is SAD.
  Energy threshold   = 1.00e-06
  Density threshold  = 1.00e-10
  Integral threshold = 0.00e+00

  ==> Primary Basis <==

  Basis Set: CC-PVDZ
    Blend: CC-PVDZ
    Number of shells: 126
    Number of basis function: 266
    Number of Cartesian functions: 280
    Spherical Harmonics?: true
    Max angular momentum: 2

  ==> Pre-Iterations <==

   -------------------------------------------------------
    Irrep   Nso     Nmo     Nalpha   Nbeta   Ndocc  Nsocc
   -------------------------------------------------------
     A        266     266       0       0       0       0
   -------------------------------------------------------
    Total     266     266      51      51      51       0
   -------------------------------------------------------

  ==> Integral Setup <==

  Using integral reordering PK algorithm.
  Sizing the integral batches needed.
  Building batch lookup table.
   Calculation information:
      Number of atoms:                  28
      Number of AO shells:             126
      Number of primitives:            378
      Number of atomic orbitals:       280
      Number of basis functions:       266

      Integral cutoff                 1.00e-12
      Number of threads:                 1

	Batch   1 pq = [       0,    9405] index = [             0,44231715] size =     44231715
	Batch   2 pq = [    9405,   13301] index = [      44231715,88464951] size =     44233236
	Batch   3 pq = [   13301,   16290] index = [      88464951,132690195] size =     44225244
	Batch   4 pq = [   16290,   18810] index = [     132690195,176917455] size =     44227260
	Batch   5 pq = [   18810,   21030] index = [     176917455,221140965] size =     44223510
	Batch   6 pq = [   21030,   23037] index = [     221140965,265363203] size =     44222238
	Batch   7 pq = [   23037,   24883] index = [     265363203,309594286] size =     44231083
	Batch   8 pq = [   24883,   26601] index = [     309594286,353819901] size =     44225615
	Batch   9 pq = [   26601,   28214] index = [     353819901,398029005] size =     44209104
	Batch  10 pq = [   28214,   29740] index = [     398029005,442248670] size =     44219665
	Batch  11 pq = [   29740,   31191] index = [     442248670,486454836] size =     44206166
	Batch  12 pq = [   31191,   32578] index = [     486454836,530679331] size =     44224495
	Batch  13 pq = [   32578,   33908] index = [     530679331,574893186] size =     44213855
	Batch  14 pq = [   33908,   35188] index = [     574893186,619115266] size =     44222080
	Batch  15 pq = [   35188,   35511] index = [     619115266,630533316] size =     11418050
  Task number: 58
  Buffer size: 11059200
  Buffer per thread: 2
  We computed 26593617 shell quartets total.
  Whereas there are 32012001 unique shell quartets.

  ==> DiskJK: Disk-Based J/K Matrices <==

    J tasked:                  Yes
    K tasked:                  Yes
    wK tasked:                  No
    Memory [MiB]:              375
    Schwarz Cutoff:          1E-12

    OpenMP threads:              1

  Minimum eigenvalue in the overlap matrix is 2.3162290649E-04.
  Using Symmetric Orthogonalization.

  SCF Guess: Superposition of Atomic Densities via on-the-fly atomic UHF.

  ==> Iterations <==

                        Total Energy        Delta E     RMS |[F,P]|

   @RHF iter SAD:  -607.70352048424513   -6.07704e+02   0.00000e+00
   @RHF iter   1:  -608.16787255626582   -4.64352e-01   2.88159e-03 DIIS
   @RHF iter   2:  -608.44420736011261   -2.76335e-01   1.59096e-03 DIIS
   @RHF iter   3:  -608.51852205543094   -7.43147e-02   3.82138e-04 DIIS
   @RHF iter   4:  -608.52446061683918   -5.93856e-03   1.43667e-04 DIIS
   @RHF iter   5:  -608.52537252519483   -9.11908e-04   2.37548e-05 DIIS
   @RHF iter   6:  -608.52542490509450   -5.23799e-05   1.17512e-05 DIIS
   @RHF iter   7:  -608.52543680220583   -1.18971e-05   4.81711e-06 DIIS
   @RHF iter   8:  -608.52543974480000   -2.94259e-06   1.79561e-06 DIIS
   @RHF iter   9:  -608.52544022389634   -4.79096e-07   8.33769e-07 DIIS
   @RHF iter  10:  -608.52544032556625   -1.01670e-07   3.52719e-07 DIIS
   @RHF iter  11:  -608.52544035076596   -2.51997e-08   1.28330e-07 DIIS
   @RHF iter  12:  -608.52544035388121   -3.11525e-09   6.46443e-08 DIIS
   @RHF iter  13:  -608.52544035434744   -4.66230e-10   2.43630e-08 DIIS
   @RHF iter  14:  -608.52544035443987   -9.24274e-11   9.36807e-09 DIIS
   @RHF iter  15:  -608.52544035444703   -7.16227e-12   3.10949e-09 DIIS
   @RHF iter  16:  -608.52544035444851   -1.47793e-12   1.26703e-09 DIIS
   @RHF iter  17:  -608.52544035445226   -3.75167e-12   5.22874e-10 DIIS
   @RHF iter  18:  -608.52544035444873    3.52429e-12   2.01932e-10 DIIS
   @RHF iter  19:  -608.52544035444532    3.41061e-12   9.43085e-11 DIIS
  Energy and wave function converged.

  ==> Post-Iterations <==

    Orbital Energies [Eh]
    ---------------------

    Doubly Occupied:

       1A    -20.509628     2A    -15.599462     3A    -15.598155
       4A    -11.355072     5A    -11.259518     6A    -11.256537
       7A    -11.244998     8A    -11.223721     9A    -11.222437
      10A    -11.222052    11A    -11.216976    12A    -11.212758
      13A    -11.211816    14A    -11.210271    15A     -1.359405
      16A     -1.294274    17A     -1.226451    18A     -1.125719
      19A     -1.070159    20A     -1.006269    21A     -0.994773
      22A     -0.982366    23A     -0.928840    24A     -0.835046
      25A     -0.810175    26A     -0.797642    27A     -0.750349
      28A     -0.735705    29A     -0.715701    30A     -0.657482
      31A     -0.655815    32A     -0.638443    33A     -0.618937
      34A     -0.597587    35A     -0.590800    36A     -0.586160
      37A     -0.568632    38A     -0.564330    39A     -0.558390
      40A     -0.551468    41A     -0.534867    42A     -0.526305
      43A     -0.514591    44A     -0.487701    45A     -0.466717
      46A     -0.457896    47A     -0.415195    48A     -0.406665
      49A     -0.367800    50A     -0.292624    51A     -0.269148

    Virtual:

      52A      0.130919    53A      0.148664    54A      0.177918
      55A      0.181068    56A      0.187898    57A      0.194250
      58A      0.208367    59A      0.221622    60A      0.225574
      61A      0.229441    62A      0.238018    63A      0.245360
      64A      0.263400    65A      0.264791    66A      0.294990
      67A      0.303109    68A      0.319664    69A      0.328380
      70A      0.375225    71A      0.380394    72A      0.394221
      73A      0.410011    74A      0.429090    75A      0.443318
      76A      0.465729    77A      0.485468    78A      0.492441
      79A      0.515955    80A      0.526134    81A      0.564889
      82A      0.600925    83A      0.621633    84A      0.629400
      85A      0.640787    86A      0.649916    87A      0.650802
      88A      0.668627    89A      0.687517    90A      0.697379
      91A      0.704069    92A      0.720107    93A      0.721887
      94A      0.728424    95A      0.733843    96A      0.745238
      97A      0.749079    98A      0.757826    99A      0.758525
     100A      0.765350   101A      0.770264   102A      0.786338
     103A      0.796970   104A      0.800975   105A      0.828253
     106A      0.842082   107A      0.855955   108A      0.862020
     109A      0.866318   110A      0.878105   111A      0.881310
     112A      0.893912   113A      0.898415   114A      0.911698
     115A      0.918301   116A      0.922413   117A      0.932814
     118A      0.942218   119A      0.953992   120A      0.956503
     121A      0.967167   122A      0.979266   123A      0.994740
     124A      1.007931   125A      1.018758   126A      1.052117
     127A      1.057299   128A      1.068782   129A      1.078988
     130A      1.105992   131A      1.127991   132A      1.142551
     133A      1.148164   134A      1.149070   135A      1.162372
     136A      1.175505   137A      1.211677   138A      1.221501
     139A      1.226850   140A      1.237388   141A      1.247519
     142A      1.276136   143A      1.285233   144A      1.294431
     145A      1.309070   146A      1.328654   147A      1.331826
     148A      1.337516   149A      1.350170   150A      1.365730
     151A      1.386156   152A      1.392213   153A      1.401464
     154A      1.428693   155A      1.458419   156A      1.471220
     157A      1.497364   158A      1.529581   159A      1.537696
     160A      1.556120   161A      1.586337   162A      1.615332
     163A      1.638389   164A      1.639660   165A      1.647972
     166A      1.656621   167A      1.661900   168A      1.696887
     169A      1.703028   170A      1.737449   171A      1.746343
     172A      1.768630   173A      1.772615   174A      1.786606
     175A      1.794829   176A      1.822573   177A      1.830645
     178A      1.851843   179A      1.865550   180A      1.874815
     181A      1.891187   182A      1.897736   183A      1.903694
     184A      1.910428   185A      1.914581   186A      1.918299
     187A      1.924047   188A      1.941450   189A      1.954605
     190A      1.963663   191A      1.970461   192A      1.984243
     193A      1.993542   194A      2.009675   195A      2.013158
     196A      2.022968   197A      2.036756   198A      2.052033
     199A      2.079007   200A      2.092048   201A      2.097614
     202A      2.110336   203A      2.118556   204A      2.122034
     205A      2.130119   206A      2.141669   207A      2.167141
     208A      2.186113   209A      2.194515   210A      2.215153
     211A      2.225421   212A      2.240473   213A      2.263810
     214A      2.279597   215A      2.289520   216A      2.314695
     217A      2.330829   218A      2.349412   219A      2.367580
     220A      2.405042   221A      2.417868   222A      2.439128
     223A      2.444533   224A      2.462706   225A      2.477066
     226A      2.484248   227A      2.542957   228A      2.559982
     229A      2.587218   230A      2.600379   231A      2.608638
     232A      2.621037   233A      2.650135   234A      2.681380
     235A      2.708398   236A      2.715440   237A      2.729794
     238A      2.743954   239A      2.772055   240A      2.782223
     241A      2.789142   242A      2.792199   243A      2.834025
     244A      2.839654   245A      2.866806   246A      2.873170
     247A      2.886243   248A      2.934044   249A      2.980355
     250A      3.008376   251A      3.041114   252A      3.062861
     253A      3.091970   254A      3.097154   255A      3.129141
     256A      3.135501   257A      3.222391   258A      3.267858
     259A      3.326232   260A      3.392940   261A      3.493709
     262A      3.523972   263A      3.742342   264A      3.829743
     265A      3.888016   266A      3.983196

    Final Occupation by Irrep:
              A
    DOCC [    51 ]

  @RHF Final Energy:  -608.52544035444532

   => Energetics <=

    Nuclear Repulsion Energy =            813.1242069365799807
    One-Electron Energy =               -2440.6916427928899793
    Two-Electron Energy =                1019.0419955018647897
    Total Energy =                       -608.5254403544453226

Computation Completed

Properties will be evaluated at   0.000000,   0.000000,   0.000000 [a0]

Properties computed using the SCF density matrix

  Nuclear Dipole Moment: [e a0]
     X:    -3.0266      Y:     1.1524      Z:    -0.9775

  Electronic Dipole Moment: [e a0]
     X:     1.1904      Y:     0.2717      Z:     1.7220

  Dipole Moment: [e a0]
     X:    -1.8362      Y:     1.4241      Z:     0.7444     Total:     2.4401

  Dipole Moment: [D]
     X:    -4.6673      Y:     3.6197      Z:     1.8922     Total:     6.2021

*** tstop() called on ds3 at Mon Apr 27 00:45:57 2020
Module time:
	user time   =     236.77 seconds =       3.95 minutes
	system time =     101.66 seconds =       1.69 minutes
	total time  =       1263 seconds =      21.05 minutes
Total time:
	user time   =     236.77 seconds =       3.95 minutes
	system time =     101.66 seconds =       1.69 minutes
	total time  =       1263 seconds =      21.05 minutes
                                     G D M A

                                 by Anthony Stone

                           version 2.2.06, 22 June 2011

               Distributed Multipoles from Gaussian wavefunctions

Starting at 0:45:57 on 27 Apr 2020

Using SCF density matrix from file ./SSI/SSI-108TRP-151ASN-1-dimer.test.9950.fchk

                         Distributed Multipole Analysis

Standard DMA

Positions and radii in angstrom
Multipole moments in atomic units, ea_0^k for rank k

C          x = -2.201631  y = -4.107580  z =  1.025269 angstrom
           Maximum rank =  0   Radius =  0.650 angstrom
                   Q00  =  -0.218583

C          x = -1.016631  y = -0.630580  z =  0.386269 angstrom
           Maximum rank =  0   Radius =  0.650 angstrom
                   Q00  =   0.249963

C          x = -0.785631  y = -2.020580  z =  0.404269 angstrom
           Maximum rank =  0   Radius =  0.650 angstrom
                   Q00  =  -0.053818

C          x = -1.978631  y = -2.642580  z =  0.898269 angstrom
           Maximum rank =  0   Radius =  0.650 angstrom
                   Q00  =  -0.120093

C          x = -2.865631  y = -1.638580  z =  1.145269 angstrom
           Maximum rank =  0   Radius =  0.650 angstrom
                   Q00  =   0.066855

C          x = -0.045631  y =  0.270420  z = -0.019731 angstrom
           Maximum rank =  0   Radius =  0.650 angstrom
                   Q00  =  -0.117258

C          x =  1.174369  y = -0.236580  z = -0.430731 angstrom
           Maximum rank =  0   Radius =  0.650 angstrom
                   Q00  =   0.001948

C          x =  1.423369  y = -1.609580  z = -0.426731 angstrom
           Maximum rank =  0   Radius =  0.650 angstrom
                   Q00  =  -0.085990

C          x =  0.468369  y = -2.501580  z =  0.001269 angstrom
           Maximum rank =  0   Radius =  0.650 angstrom
                   Q00  =  -0.099457

N          x = -2.291631  y = -0.433580  z =  0.843269 angstrom
           Maximum rank =  0   Radius =  0.650 angstrom
                   Q00  =  -0.493586

H          x = -0.240631  y =  1.331420  z = -0.008731 angstrom
           Maximum rank =  0   Radius =  0.325 angstrom
                   Q00  =   0.041889

H          x =  1.956369  y =  0.437420  z = -0.751731 angstrom
           Maximum rank =  0   Radius =  0.325 angstrom
                   Q00  =   0.083901

H          x = -2.715631  y =  0.483420  z =  1.006269 angstrom
           Maximum rank =  0   Radius =  0.325 angstrom
                   Q00  =   0.211392

H          x =  2.397369  y = -1.975580  z = -0.715731 angstrom
           Maximum rank =  0   Radius =  0.325 angstrom
                   Q00  =   0.058420

H          x = -3.875631  y = -1.777580  z =  1.513269 angstrom
           Maximum rank =  0   Radius =  0.325 angstrom
                   Q00  =   0.097862

H          x =  0.682369  y = -3.556580  z =  0.057269 angstrom
           Maximum rank =  0   Radius =  0.325 angstrom
                   Q00  =   0.065577

H          x = -2.798631  y = -4.302580  z =  1.917269 angstrom
           Maximum rank =  0   Radius =  0.325 angstrom
                   Q00  =   0.101485

H          x = -1.233631  y = -4.581580  z =  1.187269 angstrom
           Maximum rank =  0   Radius =  0.325 angstrom
                   Q00  =   0.102392

H          x = -2.666031  y = -4.580592  z =  0.147439 angstrom
           Maximum rank =  0   Radius =  0.325 angstrom
                   Q00  =   0.099839

C          x =  1.053369  y =  3.826420  z = -2.022731 angstrom
           Maximum rank =  0   Radius =  0.650 angstrom
                   Q00  =  -0.265504

C          x =  1.939369  y =  3.447420  z = -0.862731 angstrom
           Maximum rank =  0   Radius =  0.650 angstrom
                   Q00  =   0.823280

O          x =  2.980369  y =  2.762420  z = -1.014731 angstrom
           Maximum rank =  0   Radius =  0.650 angstrom
                   Q00  =  -0.813166

N          x =  1.550369  y =  3.911420  z =  0.306269 angstrom
           Maximum rank =  0   Radius =  0.650 angstrom
                   Q00  =  -0.515324

H          x =  0.062369  y =  3.416420  z = -1.828731 angstrom
           Maximum rank =  0   Radius =  0.325 angstrom
                   Q00  =   0.102438

H          x =  1.435369  y =  3.359420  z = -2.929731 angstrom
           Maximum rank =  0   Radius =  0.325 angstrom
                   Q00  =   0.132583

H          x =  2.103369  y =  3.668420  z =  1.115269 angstrom
           Maximum rank =  0   Radius =  0.325 angstrom
                   Q00  =   0.221606

H          x =  0.670369  y =  4.389420  z =  0.422269 angstrom
           Maximum rank =  0   Radius =  0.325 angstrom
                   Q00  =   0.208704

H          x =  0.976529  y =  4.914390  z = -2.165641 angstrom
           Maximum rank =  0   Radius =  0.325 angstrom
                   Q00  =   0.112646

Total multipoles referred to origin at
           x =   0.000000,  y =    0.000000,  z =    0.000000 angstrom
                   Q00  =  -0.000000

Finished at 0:45:57 on 27 Apr 2020

  DMA results are available in the Python driver through the
	  variable('DMA DISTRIBUTED MULTIPOLES')
  and
	  variable('DMA TOTAL MULTIPOLES')
  commands.

    Psi4 stopped on: Monday, 27 April 2020 12:45AM
    Psi4 wall time for execution: 0:21:03.45

*** Psi4 exiting successfully. Buy a developer a beer!
