                               Psi4 1.3.2 release

  ==> Input File <==

--------------------------------------------------------------------------
import numpy as np
set {scf_type pk
basis cc-pvdz
d_convergence 10
gdma_switch   0
gdma_limit    0
gdma_origin   [ 0.0,  0.0,  0.0 ]
}
molecule test {
    units Angstrom
    0 1
    --
    0 1
    C               -1.295027604174190    -2.035843182366726     2.065393332776317
    C               -1.220027604174190    -1.067843182366726     3.253393332776316
    H               -2.177027604174190    -2.673843182366725     2.139393332776316
    H               -1.349027604174190    -1.469843182366726     1.135393332776316
    H               -0.403027604174190    -2.654843182366725     2.041393332776317
    H               -0.340027604174190    -0.439843182366726     3.127393332776316
    H               -1.120407604174190    -1.625697182366726     4.196193332776316
    H               -2.113307604174190    -0.426091182366726     3.267763332776316
    C                3.033972395825811    -0.837843182366726    -0.393606667223684
    C               -0.303027604174190     0.928156817633274    -0.115606667223684
    C                0.585972395825810     0.084156817633274    -0.840606667223684
    C                1.798972395825810    -0.030843182366726    -0.065606667223684
    C                1.600972395825811     0.724156817633274     1.051393332776316
    C               -1.575027604174190     1.256156817633274    -0.579606667223684
    C               -1.976027604174190     0.729156817633274    -1.797606667223684
    C                0.153972395825810    -0.437843182366726    -2.070606667223684
    C               -1.125027604174189    -0.109843182366726    -2.539606667223684
    N                0.348972395825810     1.295156817633274     1.031393332776316
    H               -0.010027604174190     1.904156817633275     1.758393332776316
    H               -2.228027604174189     1.900156817633275    -0.006606667223684
    H                2.326972395825810     0.861156817633274     1.840393332776316
    H               -2.959027604174190     0.966156817633275    -2.183606667223684
    H                0.775972395825811    -1.106843182366726    -2.632606667223684
    H                2.722972395825811    -1.832843182366726    -0.714606667223684
    H                3.594972395825811    -0.979843182366726     0.528393332776316
    H               -1.467027604174190    -0.512843182366726    -3.483606667223684
    H                3.711102395825811    -0.399532182366726    -1.141523667223684

}
e, wfn = energy('scf', return_wfn=True)
gdma(wfn)
dmavals = variable('DMA DISTRIBUTED MULTIPOLES')
charges = np.array(dmavals)
print(charges)
np.save('SSI-074VAL-080TRP-1-dimer.npy', np.array(charges))--------------------------------------------------------------------------

*** tstart() called on ds3
*** at Sun Apr 26 21:30:13 2020

   => Loading Basis Set <=

    Name: CC-PVDZ
    Role: ORBITAL
    Keyword: BASIS
    atoms 1-2, 9-17  entry C          line   138 file /theoryfs2/ds/metcalf/miniconda2/envs/tf2gpu/share/psi4/basis/cc-pvdz.gbs
    atoms 3-8, 19-27 entry H          line    22 file /theoryfs2/ds/metcalf/miniconda2/envs/tf2gpu/share/psi4/basis/cc-pvdz.gbs
    atoms 18         entry N          line   168 file /theoryfs2/ds/metcalf/miniconda2/envs/tf2gpu/share/psi4/basis/cc-pvdz.gbs

         ---------------------------------------------------------
                                   SCF
               by Justin Turney, Rob Parrish, Andy Simmonett
                          and Daniel G. A. Smith
                              RHF Reference
                        1 Threads,    500 MiB Core
         ---------------------------------------------------------

  ==> Geometry <==

    Molecular point group: c1
    Full point group: C1

    Geometry (in Angstrom), charge = 0, multiplicity = 1:

       Center              X                  Y                   Z               Mass
    ------------   -----------------  -----------------  -----------------  -----------------
         C           -1.295027604174    -2.035843182367     2.065393332776    12.000000000000
         C           -1.220027604174    -1.067843182367     3.253393332776    12.000000000000
         H           -2.177027604174    -2.673843182367     2.139393332776     1.007825032230
         H           -1.349027604174    -1.469843182367     1.135393332776     1.007825032230
         H           -0.403027604174    -2.654843182367     2.041393332776     1.007825032230
         H           -0.340027604174    -0.439843182367     3.127393332776     1.007825032230
         H           -1.120407604174    -1.625697182367     4.196193332776     1.007825032230
         H           -2.113307604174    -0.426091182367     3.267763332776     1.007825032230
         C            3.033972395826    -0.837843182367    -0.393606667224    12.000000000000
         C           -0.303027604174     0.928156817633    -0.115606667224    12.000000000000
         C            0.585972395826     0.084156817633    -0.840606667224    12.000000000000
         C            1.798972395826    -0.030843182367    -0.065606667224    12.000000000000
         C            1.600972395826     0.724156817633     1.051393332776    12.000000000000
         C           -1.575027604174     1.256156817633    -0.579606667224    12.000000000000
         C           -1.976027604174     0.729156817633    -1.797606667224    12.000000000000
         C            0.153972395826    -0.437843182367    -2.070606667224    12.000000000000
         C           -1.125027604174    -0.109843182367    -2.539606667224    12.000000000000
         N            0.348972395826     1.295156817633     1.031393332776    14.003074004430
         H           -0.010027604174     1.904156817633     1.758393332776     1.007825032230
         H           -2.228027604174     1.900156817633    -0.006606667224     1.007825032230
         H            2.326972395826     0.861156817633     1.840393332776     1.007825032230
         H           -2.959027604174     0.966156817633    -2.183606667224     1.007825032230
         H            0.775972395826    -1.106843182367    -2.632606667224     1.007825032230
         H            2.722972395826    -1.832843182367    -0.714606667224     1.007825032230
         H            3.594972395826    -0.979843182367     0.528393332776     1.007825032230
         H           -1.467027604174    -0.512843182367    -3.483606667224     1.007825032230
         H            3.711102395826    -0.399532182367    -1.141523667224     1.007825032230

  Running in c1 symmetry.

  Rotational constants: A =      0.03139  B =      0.02619  C =      0.01916 [cm^-1]
  Rotational constants: A =    941.01807  B =    785.24685  C =    574.44634 [MHz]
  Nuclear repulsion =  671.733922985793811

  Charge       = 0
  Multiplicity = 1
  Electrons    = 88
  Nalpha       = 44
  Nbeta        = 44

  ==> Algorithm <==

  SCF Algorithm Type is PK.
  DIIS enabled.
  MOM disabled.
  Fractional occupation disabled.
  Guess Type is SAD.
  Energy threshold   = 1.00e-06
  Density threshold  = 1.00e-10
  Integral threshold = 0.00e+00

  ==> Primary Basis <==

  Basis Set: CC-PVDZ
    Blend: CC-PVDZ
    Number of shells: 117
    Number of basis function: 243
    Number of Cartesian functions: 255
    Spherical Harmonics?: true
    Max angular momentum: 2

  ==> Pre-Iterations <==

   -------------------------------------------------------
    Irrep   Nso     Nmo     Nalpha   Nbeta   Ndocc  Nsocc
   -------------------------------------------------------
     A        243     243       0       0       0       0
   -------------------------------------------------------
    Total     243     243      44      44      44       0
   -------------------------------------------------------

  ==> Integral Setup <==

  Using integral reordering PK algorithm.
  Sizing the integral batches needed.
  Building batch lookup table.
   Calculation information:
      Number of atoms:                  27
      Number of AO shells:             117
      Number of primitives:            339
      Number of atomic orbitals:       255
      Number of basis functions:       243

      Integral cutoff                 1.00e-12
      Number of threads:                 1

	Batch   1 pq = [       0,    9405] index = [             0,44231715] size =     44231715
	Batch   2 pq = [    9405,   13301] index = [      44231715,88464951] size =     44233236
	Batch   3 pq = [   13301,   16290] index = [      88464951,132690195] size =     44225244
	Batch   4 pq = [   16290,   18810] index = [     132690195,176917455] size =     44227260
	Batch   5 pq = [   18810,   21030] index = [     176917455,221140965] size =     44223510
	Batch   6 pq = [   21030,   23037] index = [     221140965,265363203] size =     44222238
	Batch   7 pq = [   23037,   24883] index = [     265363203,309594286] size =     44231083
	Batch   8 pq = [   24883,   26601] index = [     309594286,353819901] size =     44225615
	Batch   9 pq = [   26601,   28214] index = [     353819901,398029005] size =     44209104
	Batch  10 pq = [   28214,   29646] index = [     398029005,439457481] size =     41428476
  Task number: 40
  Buffer size: 11059200
  Buffer per thread: 2
  We computed 25882994 shell quartets total.
  Whereas there are 23829156 unique shell quartets.
     8.62 percent of shell quartets recomputed by reordering.

  ==> DiskJK: Disk-Based J/K Matrices <==

    J tasked:                  Yes
    K tasked:                  Yes
    wK tasked:                  No
    Memory [MiB]:              375
    Schwarz Cutoff:          1E-12

    OpenMP threads:              1

  Minimum eigenvalue in the overlap matrix is 2.4143576289E-04.
  Using Symmetric Orthogonalization.

  SCF Guess: Superposition of Atomic Densities via on-the-fly atomic UHF.

  ==> Iterations <==

                        Total Energy        Delta E     RMS |[F,P]|

   @RHF iter SAD:  -478.94445509030788   -4.78944e+02   0.00000e+00
   @RHF iter   1:  -479.49399801057035   -5.49543e-01   2.58577e-03 DIIS
   @RHF iter   2:  -479.72378776964302   -2.29790e-01   1.14171e-03 DIIS
   @RHF iter   3:  -479.76458904563196   -4.08013e-02   2.98873e-04 DIIS
   @RHF iter   4:  -479.76829822457717   -3.70918e-03   1.38599e-04 DIIS
   @RHF iter   5:  -479.76893714654290   -6.38922e-04   1.99621e-05 DIIS
   @RHF iter   6:  -479.76896616141454   -2.90149e-05   9.15908e-06 DIIS
   @RHF iter   7:  -479.76897205917970   -5.89777e-06   3.80557e-06 DIIS
   @RHF iter   8:  -479.76897376240288   -1.70322e-06   1.51647e-06 DIIS
   @RHF iter   9:  -479.76897410452278   -3.42120e-07   6.68234e-07 DIIS
   @RHF iter  10:  -479.76897417267344   -6.81507e-08   3.07348e-07 DIIS
   @RHF iter  11:  -479.76897418945134   -1.67779e-08   1.17244e-07 DIIS
   @RHF iter  12:  -479.76897419177021   -2.31887e-09   3.69175e-08 DIIS
   @RHF iter  13:  -479.76897419193278   -1.62572e-10   9.82041e-09 DIIS
   @RHF iter  14:  -479.76897419194461   -1.18234e-11   4.14962e-09 DIIS
   @RHF iter  15:  -479.76897419194199    2.61480e-12   2.05801e-09 DIIS
   @RHF iter  16:  -479.76897419194290   -9.09495e-13   1.05203e-09 DIIS
   @RHF iter  17:  -479.76897419194665   -3.75167e-12   3.79627e-10 DIIS
   @RHF iter  18:  -479.76897419194319    3.46745e-12   1.61968e-10 DIIS
   @RHF iter  19:  -479.76897419194518   -1.98952e-12   5.05103e-11 DIIS
  Energy and wave function converged.

  ==> Post-Iterations <==

    Orbital Energies [Eh]
    ---------------------

    Doubly Occupied:

       1A    -15.602960     2A    -11.266295     3A    -11.265723
       4A    -11.232552     5A    -11.232257     6A    -11.230990
       7A    -11.229208     8A    -11.223931     9A    -11.223572
      10A    -11.221607    11A    -11.213933    12A    -11.205436
      13A     -1.295996    14A     -1.126587    15A     -1.072047
      16A     -1.008856    17A     -0.996376    18A     -0.987907
      19A     -0.931636    20A     -0.840576    21A     -0.828944
      22A     -0.803662    23A     -0.754133    24A     -0.721150
      25A     -0.664113    26A     -0.642056    27A     -0.602227
      28A     -0.600729    29A     -0.591121    30A     -0.590814
      31A     -0.580635    32A     -0.566840    33A     -0.552688
      34A     -0.537698    35A     -0.527946    36A     -0.495919
      37A     -0.489610    38A     -0.480249    39A     -0.479789
      40A     -0.471719    41A     -0.458395    42A     -0.373996
      43A     -0.294806    44A     -0.277266

    Virtual:

      45A      0.123786    46A      0.166923    47A      0.170365
      48A      0.185102    49A      0.200209    50A      0.206792
      51A      0.221638    52A      0.229798    53A      0.232538
      54A      0.251074    55A      0.258937    56A      0.269469
      57A      0.269999    58A      0.275183    59A      0.285623
      60A      0.290751    61A      0.304186    62A      0.311834
      63A      0.376692    64A      0.382187    65A      0.402060
      66A      0.404982    67A      0.419911    68A      0.443161
      69A      0.470144    70A      0.485888    71A      0.497412
      72A      0.509829    73A      0.584472    74A      0.597825
      75A      0.599666    76A      0.610970    77A      0.624097
      78A      0.635683    79A      0.652750    80A      0.655631
      81A      0.678551    82A      0.689987    83A      0.697356
      84A      0.712378    85A      0.720320    86A      0.731281
      87A      0.734203    88A      0.741805    89A      0.749376
      90A      0.766513    91A      0.771750    92A      0.783109
      93A      0.786957    94A      0.808937    95A      0.826497
      96A      0.844837    97A      0.849573    98A      0.863398
      99A      0.871517   100A      0.877792   101A      0.884718
     102A      0.892530   103A      0.894239   104A      0.899454
     105A      0.906614   106A      0.920802   107A      0.933137
     108A      0.937923   109A      0.951561   110A      0.954886
     111A      0.962445   112A      0.973867   113A      0.988139
     114A      0.996588   115A      1.008765   116A      1.052737
     117A      1.062337   118A      1.087360   119A      1.109596
     120A      1.121965   121A      1.126193   122A      1.134909
     123A      1.140137   124A      1.156388   125A      1.162680
     126A      1.182078   127A      1.207016   128A      1.223713
     129A      1.228913   130A      1.234272   131A      1.243283
     132A      1.268064   133A      1.285760   134A      1.295474
     135A      1.307384   136A      1.328255   137A      1.330365
     138A      1.359510   139A      1.364989   140A      1.402959
     141A      1.442317   142A      1.482501   143A      1.488404
     144A      1.517058   145A      1.544370   146A      1.556607
     147A      1.575971   148A      1.598126   149A      1.643339
     150A      1.648552   151A      1.651711   152A      1.677241
     153A      1.687052   154A      1.704087   155A      1.716773
     156A      1.748679   157A      1.763841   158A      1.773696
     159A      1.785781   160A      1.810363   161A      1.830088
     162A      1.836663   163A      1.871633   164A      1.880151
     165A      1.886391   166A      1.893018   167A      1.899547
     168A      1.912018   169A      1.918594   170A      1.921233
     171A      1.932541   172A      1.943073   173A      1.944614
     174A      1.958075   175A      1.960650   176A      1.963358
     177A      1.970037   178A      1.977826   179A      1.988666
     180A      1.996777   181A      2.012791   182A      2.030176
     183A      2.047673   184A      2.070114   185A      2.074894
     186A      2.098090   187A      2.104788   188A      2.107561
     189A      2.112107   190A      2.118007   191A      2.133664
     192A      2.143708   193A      2.151413   194A      2.165037
     195A      2.177998   196A      2.224293   197A      2.246448
     198A      2.283823   199A      2.295434   200A      2.308091
     201A      2.316337   202A      2.326038   203A      2.330940
     204A      2.355457   205A      2.394200   206A      2.414631
     207A      2.446016   208A      2.464989   209A      2.468195
     210A      2.477766   211A      2.537616   212A      2.575623
     213A      2.579280   214A      2.598883   215A      2.612068
     216A      2.631070   217A      2.659848   218A      2.674072
     219A      2.692843   220A      2.765321   221A      2.772660
     222A      2.777469   223A      2.787886   224A      2.791799
     225A      2.816167   226A      2.824739   227A      2.860020
     228A      2.866697   229A      2.874172   230A      2.887048
     231A      2.910031   232A      2.960223   233A      2.969732
     234A      2.977145   235A      3.030834   236A      3.058357
     237A      3.073282   238A      3.119319   239A      3.197012
     240A      3.292477   241A      3.371827   242A      3.742237
     243A      3.934646

    Final Occupation by Irrep:
              A
    DOCC [    44 ]

  @RHF Final Energy:  -479.76897419194518

   => Energetics <=

    Nuclear Repulsion Energy =            671.7339229857938108
    One-Electron Energy =               -1981.4158960598620070
    Two-Electron Energy =                 829.9129988821229063
    Total Energy =                       -479.7689741919451762

Computation Completed

Properties will be evaluated at   0.000000,   0.000000,   0.000000 [a0]

Properties computed using the SCF density matrix

  Nuclear Dipole Moment: [e a0]
     X:    -0.9712      Y:    -7.9633      Z:     9.2518

  Electronic Dipole Moment: [e a0]
     X:     1.1427      Y:     8.3267      Z:    -8.6567

  Dipole Moment: [e a0]
     X:     0.1714      Y:     0.3634      Z:     0.5951     Total:     0.7181

  Dipole Moment: [D]
     X:     0.4357      Y:     0.9237      Z:     1.5126     Total:     1.8251

*** tstop() called on ds3 at Sun Apr 26 21:35:44 2020
Module time:
	user time   =     204.96 seconds =       3.42 minutes
	system time =      73.02 seconds =       1.22 minutes
	total time  =        331 seconds =       5.52 minutes
Total time:
	user time   =     204.96 seconds =       3.42 minutes
	system time =      73.02 seconds =       1.22 minutes
	total time  =        331 seconds =       5.52 minutes
                                     G D M A

                                 by Anthony Stone

                           version 2.2.06, 22 June 2011

               Distributed Multipoles from Gaussian wavefunctions

Starting at 21:35:44 on 26 Apr 2020

Using SCF density matrix from file ./SSI/SSI-074VAL-080TRP-1-dimer.test.18615.fchk

                         Distributed Multipole Analysis

Standard DMA

Positions and radii in angstrom
Multipole moments in atomic units, ea_0^k for rank k

C          x = -1.295028  y = -2.035843  z =  2.065393 angstrom
           Maximum rank =  0   Radius =  0.650 angstrom
                   Q00  =  -0.227804

C          x = -1.220028  y = -1.067843  z =  3.253393 angstrom
           Maximum rank =  0   Radius =  0.650 angstrom
                   Q00  =  -0.246663

H          x = -2.177028  y = -2.673843  z =  2.139393 angstrom
           Maximum rank =  0   Radius =  0.325 angstrom
                   Q00  =   0.073499

H          x = -1.349028  y = -1.469843  z =  1.135393 angstrom
           Maximum rank =  0   Radius =  0.325 angstrom
                   Q00  =   0.097247

H          x = -0.403028  y = -2.654843  z =  2.041393 angstrom
           Maximum rank =  0   Radius =  0.325 angstrom
                   Q00  =   0.077352

H          x = -0.340028  y = -0.439843  z =  3.127393 angstrom
           Maximum rank =  0   Radius =  0.325 angstrom
                   Q00  =   0.072038

H          x = -1.120408  y = -1.625697  z =  4.196193 angstrom
           Maximum rank =  0   Radius =  0.325 angstrom
                   Q00  =   0.074804

H          x = -2.113308  y = -0.426091  z =  3.267763 angstrom
           Maximum rank =  0   Radius =  0.325 angstrom
                   Q00  =   0.072277

C          x =  3.033972  y = -0.837843  z = -0.393607 angstrom
           Maximum rank =  0   Radius =  0.650 angstrom
                   Q00  =  -0.210973

C          x = -0.303028  y =  0.928157  z = -0.115607 angstrom
           Maximum rank =  0   Radius =  0.650 angstrom
                   Q00  =   0.285305

C          x =  0.585972  y =  0.084157  z = -0.840607 angstrom
           Maximum rank =  0   Radius =  0.650 angstrom
                   Q00  =  -0.048962

C          x =  1.798972  y = -0.030843  z = -0.065607 angstrom
           Maximum rank =  0   Radius =  0.650 angstrom
                   Q00  =  -0.126078

C          x =  1.600972  y =  0.724157  z =  1.051393 angstrom
           Maximum rank =  0   Radius =  0.650 angstrom
                   Q00  =   0.072695

C          x = -1.575028  y =  1.256157  z = -0.579607 angstrom
           Maximum rank =  0   Radius =  0.650 angstrom
                   Q00  =  -0.121052

C          x = -1.976028  y =  0.729157  z = -1.797607 angstrom
           Maximum rank =  0   Radius =  0.650 angstrom
                   Q00  =  -0.067272

C          x =  0.153972  y = -0.437843  z = -2.070607 angstrom
           Maximum rank =  0   Radius =  0.650 angstrom
                   Q00  =  -0.091264

C          x = -1.125028  y = -0.109843  z = -2.539607 angstrom
           Maximum rank =  0   Radius =  0.650 angstrom
                   Q00  =  -0.092873

N          x =  0.348972  y =  1.295157  z =  1.031393 angstrom
           Maximum rank =  0   Radius =  0.650 angstrom
                   Q00  =  -0.490745

H          x = -0.010028  y =  1.904157  z =  1.758393 angstrom
           Maximum rank =  0   Radius =  0.325 angstrom
                   Q00  =   0.221009

H          x = -2.228028  y =  1.900157  z = -0.006607 angstrom
           Maximum rank =  0   Radius =  0.325 angstrom
                   Q00  =   0.072844

H          x =  2.326972  y =  0.861157  z =  1.840393 angstrom
           Maximum rank =  0   Radius =  0.325 angstrom
                   Q00  =   0.099587

H          x = -2.959028  y =  0.966157  z = -2.183607 angstrom
           Maximum rank =  0   Radius =  0.325 angstrom
                   Q00  =   0.065964

H          x =  0.775972  y = -1.106843  z = -2.632607 angstrom
           Maximum rank =  0   Radius =  0.325 angstrom
                   Q00  =   0.071230

H          x =  2.722972  y = -1.832843  z = -0.714607 angstrom
           Maximum rank =  0   Radius =  0.325 angstrom
                   Q00  =   0.101397

H          x =  3.594972  y = -0.979843  z =  0.528393 angstrom
           Maximum rank =  0   Radius =  0.325 angstrom
                   Q00  =   0.102736

H          x = -1.467028  y = -0.512843  z = -3.483607 angstrom
           Maximum rank =  0   Radius =  0.325 angstrom
                   Q00  =   0.062293

H          x =  3.711102  y = -0.399532  z = -1.141524 angstrom
           Maximum rank =  0   Radius =  0.325 angstrom
                   Q00  =   0.101410

Total multipoles referred to origin at
           x =   0.000000,  y =    0.000000,  z =    0.000000 angstrom
                   Q00  =  -0.000000

Finished at 21:35:44 on 26 Apr 2020

  DMA results are available in the Python driver through the
	  variable('DMA DISTRIBUTED MULTIPOLES')
  and
	  variable('DMA TOTAL MULTIPOLES')
  commands.

    Psi4 stopped on: Sunday, 26 April 2020 09:35PM
    Psi4 wall time for execution: 0:05:31.51

*** Psi4 exiting successfully. Buy a developer a beer!
