                               Psi4 1.3.2 release

  ==> Input File <==

--------------------------------------------------------------------------
import numpy as np
set {scf_type pk
basis cc-pvdz
d_convergence 10
gdma_switch   0
gdma_limit    0
gdma_origin   [ 0.0,  0.0,  0.0 ]
}
molecule test {
    units Angstrom
    0 1
    --
    0 1
    C                0.017691222428345     0.798658424500741    -2.863633189955196
    C               -1.135308777571655     0.158658424500741    -0.648633189955196
    C               -0.397308777571655     0.974658424500741    -1.435633189955196
    C               -0.506308777571655     1.892658424500741     0.582366810044805
    N               -1.246308777571655     0.790658424500741     0.581366810044805
    N                0.039691222428345     2.014658424500741    -0.617633189955196
    H               -1.583308777571655    -0.780341575499259    -0.938633189955196
    H               -1.773308777571655     0.447658424500741     1.377366810044804
    H               -0.077308777571655     1.748658424500741    -3.391633189955196
    H               -0.662308777571655     0.083658424500741    -3.327633189955196
    H               -0.353308777571655     2.560658424500741     1.423366810044804
    H                1.047771222428345     0.422398424500741    -2.949473189955196
    C                0.530691222428345    -2.281341575499259     1.678366810044804
    C                0.952691222428345    -2.616341575499259     0.264366810044804
    C                1.517691222428345    -1.233341575499259     2.217366810044804
    H               -0.478308777571655    -1.864341575499259     1.669366810044804
    H                0.547691222428345    -3.175341575499259     2.305366810044804
    H                1.044691222428345    -1.672341575499259    -0.280633189955196
    H                2.515691222428345    -1.657341575499259     2.288366810044804
    H                1.540691222428345    -0.372341575499259     1.547366810044804
    H                0.183621222428345    -3.240271575499259    -0.214433189955196
    H                1.926991222428345    -3.125181575499259     0.221726810044804
    H                1.219101222428345    -0.891781575499259     3.219456810044804

}
e, wfn = energy('scf', return_wfn=True)
gdma(wfn)
dmavals = variable('DMA DISTRIBUTED MULTIPOLES')
charges = np.array(dmavals)
print(charges)
np.save('SSI-035HIE-061ARG-1-dimer.npy', np.array(charges))--------------------------------------------------------------------------

*** tstart() called on ds3
*** at Mon Apr 27 06:40:11 2020

   => Loading Basis Set <=

    Name: CC-PVDZ
    Role: ORBITAL
    Keyword: BASIS
    atoms 1-4, 13-15  entry C          line   138 file /theoryfs2/ds/metcalf/miniconda2/envs/tf2gpu/share/psi4/basis/cc-pvdz.gbs
    atoms 5-6         entry N          line   168 file /theoryfs2/ds/metcalf/miniconda2/envs/tf2gpu/share/psi4/basis/cc-pvdz.gbs
    atoms 7-12, 16-23 entry H          line    22 file /theoryfs2/ds/metcalf/miniconda2/envs/tf2gpu/share/psi4/basis/cc-pvdz.gbs

         ---------------------------------------------------------
                                   SCF
               by Justin Turney, Rob Parrish, Andy Simmonett
                          and Daniel G. A. Smith
                              RHF Reference
                        1 Threads,    500 MiB Core
         ---------------------------------------------------------

  ==> Geometry <==

    Molecular point group: c1
    Full point group: C1

    Geometry (in Angstrom), charge = 0, multiplicity = 1:

       Center              X                  Y                   Z               Mass
    ------------   -----------------  -----------------  -----------------  -----------------
         C            0.017691222428     0.798658424501    -2.863633189955    12.000000000000
         C           -1.135308777572     0.158658424501    -0.648633189955    12.000000000000
         C           -0.397308777572     0.974658424501    -1.435633189955    12.000000000000
         C           -0.506308777572     1.892658424501     0.582366810045    12.000000000000
         N           -1.246308777572     0.790658424501     0.581366810045    14.003074004430
         N            0.039691222428     2.014658424501    -0.617633189955    14.003074004430
         H           -1.583308777572    -0.780341575499    -0.938633189955     1.007825032230
         H           -1.773308777572     0.447658424501     1.377366810045     1.007825032230
         H           -0.077308777572     1.748658424501    -3.391633189955     1.007825032230
         H           -0.662308777572     0.083658424501    -3.327633189955     1.007825032230
         H           -0.353308777572     2.560658424501     1.423366810045     1.007825032230
         H            1.047771222428     0.422398424501    -2.949473189955     1.007825032230
         C            0.530691222428    -2.281341575499     1.678366810045    12.000000000000
         C            0.952691222428    -2.616341575499     0.264366810045    12.000000000000
         C            1.517691222428    -1.233341575499     2.217366810045    12.000000000000
         H           -0.478308777572    -1.864341575499     1.669366810045     1.007825032230
         H            0.547691222428    -3.175341575499     2.305366810045     1.007825032230
         H            1.044691222428    -1.672341575499    -0.280633189955     1.007825032230
         H            2.515691222428    -1.657341575499     2.288366810045     1.007825032230
         H            1.540691222428    -0.372341575499     1.547366810045     1.007825032230
         H            0.183621222428    -3.240271575499    -0.214433189955     1.007825032230
         H            1.926991222428    -3.125181575499     0.221726810045     1.007825032230
         H            1.219101222428    -0.891781575499     3.219456810045     1.007825032230

  Running in c1 symmetry.

  Rotational constants: A =      0.07171  B =      0.02935  C =      0.02455 [cm^-1]
  Rotational constants: A =   2149.80510  B =    879.78381  C =    736.00596 [MHz]
  Nuclear repulsion =  444.628314140607642

  Charge       = 0
  Multiplicity = 1
  Electrons    = 70
  Nalpha       = 35
  Nbeta        = 35

  ==> Algorithm <==

  SCF Algorithm Type is PK.
  DIIS enabled.
  MOM disabled.
  Fractional occupation disabled.
  Guess Type is SAD.
  Energy threshold   = 1.00e-06
  Density threshold  = 1.00e-10
  Integral threshold = 0.00e+00

  ==> Primary Basis <==

  Basis Set: CC-PVDZ
    Blend: CC-PVDZ
    Number of shells: 96
    Number of basis function: 196
    Number of Cartesian functions: 205
    Spherical Harmonics?: true
    Max angular momentum: 2

  ==> Pre-Iterations <==

   -------------------------------------------------------
    Irrep   Nso     Nmo     Nalpha   Nbeta   Ndocc  Nsocc
   -------------------------------------------------------
     A        196     196       0       0       0       0
   -------------------------------------------------------
    Total     196     196      35      35      35       0
   -------------------------------------------------------

  ==> Integral Setup <==

  Using integral reordering PK algorithm.
  Sizing the integral batches needed.
  Building batch lookup table.
   Calculation information:
      Number of atoms:                  23
      Number of AO shells:              96
      Number of primitives:            268
      Number of atomic orbitals:       205
      Number of basis functions:       196

      Integral cutoff                 1.00e-12
      Number of threads:                 1

	Batch   1 pq = [       0,    9405] index = [             0,44231715] size =     44231715
	Batch   2 pq = [    9405,   13301] index = [      44231715,88464951] size =     44233236
	Batch   3 pq = [   13301,   16290] index = [      88464951,132690195] size =     44225244
	Batch   4 pq = [   16290,   18810] index = [     132690195,176917455] size =     44227260
	Batch   5 pq = [   18810,   19306] index = [     176917455,186370471] size =      9453016
  Task number: 17
  Buffer size: 11059200
  Buffer per thread: 2
  We computed 10348911 shell quartets total.
  Whereas there are 10841496 unique shell quartets.

  ==> DiskJK: Disk-Based J/K Matrices <==

    J tasked:                  Yes
    K tasked:                  Yes
    wK tasked:                  No
    Memory [MiB]:              375
    Schwarz Cutoff:          1E-12

    OpenMP threads:              1

  Minimum eigenvalue in the overlap matrix is 1.1964209499E-03.
  Using Symmetric Orthogonalization.

  SCF Guess: Superposition of Atomic Densities via on-the-fly atomic UHF.

  ==> Iterations <==

                        Total Energy        Delta E     RMS |[F,P]|

   @RHF iter SAD:  -381.23097602715654   -3.81231e+02   0.00000e+00
   @RHF iter   1:  -381.88643879062010   -6.55463e-01   3.15969e-03 DIIS
   @RHF iter   2:  -382.08582824819354   -1.99389e-01   1.59686e-03 DIIS
   @RHF iter   3:  -382.13266209363411   -4.68338e-02   3.92411e-04 DIIS
   @RHF iter   4:  -382.13646225535922   -3.80016e-03   1.70001e-04 DIIS
   @RHF iter   5:  -382.13707866730101   -6.16412e-04   2.61198e-05 DIIS
   @RHF iter   6:  -382.13710404880896   -2.53815e-05   1.07943e-05 DIIS
   @RHF iter   7:  -382.13710837541242   -4.32660e-06   3.97658e-06 DIIS
   @RHF iter   8:  -382.13710931963760   -9.44225e-07   1.64892e-06 DIIS
   @RHF iter   9:  -382.13710953730754   -2.17670e-07   5.87731e-07 DIIS
   @RHF iter  10:  -382.13710955889798   -2.15904e-08   1.72553e-07 DIIS
   @RHF iter  11:  -382.13710956109878   -2.20081e-09   7.52787e-08 DIIS
   @RHF iter  12:  -382.13710956138311   -2.84331e-10   3.19250e-08 DIIS
   @RHF iter  13:  -382.13710956143541   -5.22959e-11   9.50771e-09 DIIS
   @RHF iter  14:  -382.13710956144263   -7.21911e-12   3.12734e-09 DIIS
   @RHF iter  15:  -382.13710956144217    4.54747e-13   1.18362e-09 DIIS
   @RHF iter  16:  -382.13710956144132    8.52651e-13   3.99466e-10 DIIS
   @RHF iter  17:  -382.13710956144462   -3.29692e-12   1.45818e-10 DIIS
   @RHF iter  18:  -382.13710956144246    2.16005e-12   4.34154e-11 DIIS
  Energy and wave function converged.

  ==> Post-Iterations <==

    Orbital Energies [Eh]
    ---------------------

    Doubly Occupied:

       1A    -15.619673     2A    -15.527703     3A    -11.294273
       4A    -11.251913     5A    -11.243104     6A    -11.225810
       7A    -11.222079     8A    -11.214838     9A    -11.213725
      10A     -1.340045    11A     -1.148351    12A     -1.057820
      13A     -1.035193    14A     -0.942223    15A     -0.918611
      16A     -0.815277    17A     -0.798605    18A     -0.762074
      19A     -0.740979    20A     -0.632471    21A     -0.610473
      22A     -0.601149    23A     -0.598847    24A     -0.596289
      25A     -0.554192    26A     -0.545961    27A     -0.542355
      28A     -0.525178    29A     -0.522988    30A     -0.478716
      31A     -0.473262    32A     -0.461588    33A     -0.407402
      34A     -0.374858    35A     -0.313335

    Virtual:

      36A      0.160066    37A      0.180429    38A      0.190263
      39A      0.205449    40A      0.211364    41A      0.218814
      42A      0.226508    43A      0.246425    44A      0.251018
      45A      0.255635    46A      0.272241    47A      0.281407
      48A      0.298101    49A      0.300334    50A      0.314891
      51A      0.334984    52A      0.372143    53A      0.385925
      54A      0.387104    55A      0.416602    56A      0.422722
      57A      0.491608    58A      0.498023    59A      0.575066
      60A      0.591364    61A      0.604880    62A      0.607494
      63A      0.619974    64A      0.625011    65A      0.632168
      66A      0.664225    67A      0.677524    68A      0.717071
      69A      0.729117    70A      0.753478    71A      0.776106
      72A      0.803455    73A      0.806772    74A      0.818726
      75A      0.832305    76A      0.837693    77A      0.848321
      78A      0.862021    79A      0.874369    80A      0.880078
      81A      0.886524    82A      0.896209    83A      0.900503
      84A      0.911202    85A      0.914383    86A      0.931425
      87A      0.940783    88A      0.945888    89A      0.960160
      90A      0.967170    91A      0.999937    92A      1.010423
      93A      1.025044    94A      1.043506    95A      1.095682
      96A      1.100016    97A      1.111716    98A      1.123669
      99A      1.124333   100A      1.158820   101A      1.170026
     102A      1.193091   103A      1.217188   104A      1.259996
     105A      1.282683   106A      1.312557   107A      1.320499
     108A      1.345708   109A      1.379814   110A      1.411825
     111A      1.440878   112A      1.465697   113A      1.479025
     114A      1.496420   115A      1.527147   116A      1.565822
     117A      1.574466   118A      1.611300   119A      1.624836
     120A      1.636021   121A      1.673348   122A      1.687075
     123A      1.700968   124A      1.713917   125A      1.737417
     126A      1.777655   127A      1.814030   128A      1.828790
     129A      1.845197   130A      1.854191   131A      1.879557
     132A      1.893338   133A      1.908653   134A      1.915826
     135A      1.931940   136A      1.942894   137A      1.945980
     138A      1.954500   139A      1.958715   140A      1.959898
     141A      1.965714   142A      1.973375   143A      1.988495
     144A      1.995343   145A      2.013252   146A      2.036130
     147A      2.044819   148A      2.082210   149A      2.094401
     150A      2.111870   151A      2.133117   152A      2.136885
     153A      2.153325   154A      2.193413   155A      2.214858
     156A      2.236699   157A      2.288695   158A      2.307966
     159A      2.315526   160A      2.324785   161A      2.352737
     162A      2.356098   163A      2.386395   164A      2.437022
     165A      2.454426   166A      2.486136   167A      2.503445
     168A      2.531265   169A      2.547765   170A      2.566743
     171A      2.603844   172A      2.623076   173A      2.629441
     174A      2.699216   175A      2.722372   176A      2.743852
     177A      2.760792   178A      2.778184   179A      2.792527
     180A      2.796120   181A      2.814226   182A      2.824700
     183A      2.838247   184A      2.863829   185A      2.888452
     186A      2.905511   187A      2.916950   188A      2.965409
     189A      2.979152   190A      2.988377   191A      3.048123
     192A      3.074171   193A      3.162716   194A      3.227706
     195A      3.473028   196A      3.800034

    Final Occupation by Irrep:
              A
    DOCC [    35 ]

  @RHF Final Energy:  -382.13710956144246

   => Energetics <=

    Nuclear Repulsion Energy =            444.6283141406076425
    One-Electron Energy =               -1398.3081335075751213
    Two-Electron Energy =                 571.5427098055249644
    Total Energy =                       -382.1371095614424576

Computation Completed

Properties will be evaluated at   0.000000,   0.000000,   0.000000 [a0]

Properties computed using the SCF density matrix

  Nuclear Dipole Moment: [e a0]
     X:     4.7831      Y:   -10.8043      Z:     2.7656

  Electronic Dipole Moment: [e a0]
     X:    -5.5554      Y:    10.1101      Z:    -2.0399

  Dipole Moment: [e a0]
     X:    -0.7723      Y:    -0.6942      Z:     0.7257     Total:     1.2669

  Dipole Moment: [D]
     X:    -1.9631      Y:    -1.7646      Z:     1.8445     Total:     3.2202

*** tstop() called on ds3 at Mon Apr 27 06:41:51 2020
Module time:
	user time   =      73.69 seconds =       1.23 minutes
	system time =      30.26 seconds =       0.50 minutes
	total time  =        100 seconds =       1.67 minutes
Total time:
	user time   =      73.69 seconds =       1.23 minutes
	system time =      30.26 seconds =       0.50 minutes
	total time  =        100 seconds =       1.67 minutes
                                     G D M A

                                 by Anthony Stone

                           version 2.2.06, 22 June 2011

               Distributed Multipoles from Gaussian wavefunctions

Starting at 6:41:51 on 27 Apr 2020

Using SCF density matrix from file ./SSI/SSI-035HIE-061ARG-1-dimer.test.25455.fchk

                         Distributed Multipole Analysis

Standard DMA

Positions and radii in angstrom
Multipole moments in atomic units, ea_0^k for rank k

C          x =  0.017691  y =  0.798658  z = -2.863633 angstrom
           Maximum rank =  0   Radius =  0.650 angstrom
                   Q00  =  -0.191310

C          x = -1.135309  y =  0.158658  z = -0.648633 angstrom
           Maximum rank =  0   Radius =  0.650 angstrom
                   Q00  =   0.007674

C          x = -0.397309  y =  0.974658  z = -1.435633 angstrom
           Maximum rank =  0   Radius =  0.650 angstrom
                   Q00  =   0.229665

C          x = -0.506309  y =  1.892658  z =  0.582367 angstrom
           Maximum rank =  0   Radius =  0.650 angstrom
                   Q00  =   0.472935

N          x = -1.246309  y =  0.790658  z =  0.581367 angstrom
           Maximum rank =  0   Radius =  0.650 angstrom
                   Q00  =  -0.494623

N          x =  0.039691  y =  2.014658  z = -0.617633 angstrom
           Maximum rank =  0   Radius =  0.650 angstrom
                   Q00  =  -0.782275

H          x = -1.583309  y = -0.780342  z = -0.938633 angstrom
           Maximum rank =  0   Radius =  0.325 angstrom
                   Q00  =   0.102885

H          x = -1.773309  y =  0.447658  z =  1.377367 angstrom
           Maximum rank =  0   Radius =  0.325 angstrom
                   Q00  =   0.216626

H          x = -0.077309  y =  1.748658  z = -3.391633 angstrom
           Maximum rank =  0   Radius =  0.325 angstrom
                   Q00  =   0.116899

H          x = -0.662309  y =  0.083658  z = -3.327633 angstrom
           Maximum rank =  0   Radius =  0.325 angstrom
                   Q00  =   0.092442

H          x = -0.353309  y =  2.560658  z =  1.423367 angstrom
           Maximum rank =  0   Radius =  0.325 angstrom
                   Q00  =   0.126573

H          x =  1.047771  y =  0.422398  z = -2.949473 angstrom
           Maximum rank =  0   Radius =  0.325 angstrom
                   Q00  =   0.105038

C          x =  0.530691  y = -2.281342  z =  1.678367 angstrom
           Maximum rank =  0   Radius =  0.650 angstrom
                   Q00  =  -0.079545

C          x =  0.952691  y = -2.616342  z =  0.264367 angstrom
           Maximum rank =  0   Radius =  0.650 angstrom
                   Q00  =  -0.235164

C          x =  1.517691  y = -1.233342  z =  2.217367 angstrom
           Maximum rank =  0   Radius =  0.650 angstrom
                   Q00  =  -0.247414

H          x = -0.478309  y = -1.864342  z =  1.669367 angstrom
           Maximum rank =  0   Radius =  0.325 angstrom
                   Q00  =   0.031047

H          x =  0.547691  y = -3.175342  z =  2.305367 angstrom
           Maximum rank =  0   Radius =  0.325 angstrom
                   Q00  =   0.051454

H          x =  1.044691  y = -1.672342  z = -0.280633 angstrom
           Maximum rank =  0   Radius =  0.325 angstrom
                   Q00  =   0.086611

H          x =  2.515691  y = -1.657342  z =  2.288367 angstrom
           Maximum rank =  0   Radius =  0.325 angstrom
                   Q00  =   0.081092

H          x =  1.540691  y = -0.372342  z =  1.547367 angstrom
           Maximum rank =  0   Radius =  0.325 angstrom
                   Q00  =   0.088361

H          x =  0.183621  y = -3.240272  z = -0.214433 angstrom
           Maximum rank =  0   Radius =  0.325 angstrom
                   Q00  =   0.071286

H          x =  1.926991  y = -3.125182  z =  0.221727 angstrom
           Maximum rank =  0   Radius =  0.325 angstrom
                   Q00  =   0.078190

H          x =  1.219101  y = -0.891782  z =  3.219457 angstrom
           Maximum rank =  0   Radius =  0.325 angstrom
                   Q00  =   0.071552

Total multipoles referred to origin at
           x =   0.000000,  y =    0.000000,  z =    0.000000 angstrom
                   Q00  =  -0.000000

Finished at 6:41:52 on 27 Apr 2020

  DMA results are available in the Python driver through the
	  variable('DMA DISTRIBUTED MULTIPOLES')
  and
	  variable('DMA TOTAL MULTIPOLES')
  commands.

    Psi4 stopped on: Monday, 27 April 2020 06:41AM
    Psi4 wall time for execution: 0:01:40.93

*** Psi4 exiting successfully. Buy a developer a beer!
