                               Psi4 1.3.2 release

  ==> Input File <==

--------------------------------------------------------------------------
import numpy as np
set {scf_type pk
basis cc-pvdz
d_convergence 10
gdma_switch   0
gdma_limit    0
gdma_origin   [ 0.0,  0.0,  0.0 ]
}
molecule test {
    units Angstrom
    0 1
    --
    0 1
    C                0.742874909016208    -2.058046735488374    -0.907446977208207
    C               -0.527125090983792    -1.219046735488374    -0.895446977208207
    O               -1.594125090983792    -1.693046735488374    -1.293446977208207
    N               -0.441125090983792     0.016953264511626    -0.422446977208207
    H               -1.291125090983792     0.558953264511626    -0.388446977208207
    H                0.378874909016208     0.350953264511626     0.061553022791793
    H                0.584874909016208    -2.901046735488374    -1.582446977208207
    H                0.897874909016208    -2.450046735488374     0.098553022791793
    H                1.639718909016209    -1.500297735488374    -1.214997977208207
    C                1.217874909016208     2.845953264511626     1.398553022791793
    O                0.518874909016208     1.659953264511626     1.766553022791793
    H               -0.274125090983792     1.926953264511626     2.254553022791793
    H                1.183874909016208     3.545953264511626     2.233553022791793
    H                2.264776909016208     2.580969264511626     1.189317022791793
    H                0.739477909016208     3.310784264511626     0.523871022791793

}
e, wfn = energy('scf', return_wfn=True)
gdma(wfn)
dmavals = variable('DMA DISTRIBUTED MULTIPOLES')
charges = np.array(dmavals)
print(charges)
np.save('SSI-063ASN-081THR-1-dimer.npy', np.array(charges))--------------------------------------------------------------------------

*** tstart() called on ds3
*** at Tue Apr 28 04:27:13 2020

   => Loading Basis Set <=

    Name: CC-PVDZ
    Role: ORBITAL
    Keyword: BASIS
    atoms 1-2, 10    entry C          line   138 file /theoryfs2/ds/metcalf/miniconda2/envs/tf2gpu/share/psi4/basis/cc-pvdz.gbs
    atoms 3, 11      entry O          line   198 file /theoryfs2/ds/metcalf/miniconda2/envs/tf2gpu/share/psi4/basis/cc-pvdz.gbs
    atoms 4          entry N          line   168 file /theoryfs2/ds/metcalf/miniconda2/envs/tf2gpu/share/psi4/basis/cc-pvdz.gbs
    atoms 5-9, 12-15 entry H          line    22 file /theoryfs2/ds/metcalf/miniconda2/envs/tf2gpu/share/psi4/basis/cc-pvdz.gbs

         ---------------------------------------------------------
                                   SCF
               by Justin Turney, Rob Parrish, Andy Simmonett
                          and Daniel G. A. Smith
                              RHF Reference
                        1 Threads,    500 MiB Core
         ---------------------------------------------------------

  ==> Geometry <==

    Molecular point group: c1
    Full point group: C1

    Geometry (in Angstrom), charge = 0, multiplicity = 1:

       Center              X                  Y                   Z               Mass
    ------------   -----------------  -----------------  -----------------  -----------------
         C            0.742874909016    -2.058046735488    -0.907446977208    12.000000000000
         C           -0.527125090984    -1.219046735488    -0.895446977208    12.000000000000
         O           -1.594125090984    -1.693046735488    -1.293446977208    15.994914619570
         N           -0.441125090984     0.016953264512    -0.422446977208    14.003074004430
         H           -1.291125090984     0.558953264512    -0.388446977208     1.007825032230
         H            0.378874909016     0.350953264512     0.061553022792     1.007825032230
         H            0.584874909016    -2.901046735488    -1.582446977208     1.007825032230
         H            0.897874909016    -2.450046735488     0.098553022792     1.007825032230
         H            1.639718909016    -1.500297735488    -1.214997977208     1.007825032230
         C            1.217874909016     2.845953264512     1.398553022792    12.000000000000
         O            0.518874909016     1.659953264512     1.766553022792    15.994914619570
         H           -0.274125090984     1.926953264512     2.254553022792     1.007825032230
         H            1.183874909016     3.545953264512     2.233553022792     1.007825032230
         H            2.264776909016     2.580969264512     1.189317022792     1.007825032230
         H            0.739477909016     3.310784264512     0.523871022792     1.007825032230

  Running in c1 symmetry.

  Rotational constants: A =      0.24603  B =      0.03516  C =      0.03245 [cm^-1]
  Rotational constants: A =   7375.82463  B =   1054.19328  C =    972.83256 [MHz]
  Nuclear repulsion =  231.874436971344124

  Charge       = 0
  Multiplicity = 1
  Electrons    = 50
  Nalpha       = 25
  Nbeta        = 25

  ==> Algorithm <==

  SCF Algorithm Type is PK.
  DIIS enabled.
  MOM disabled.
  Fractional occupation disabled.
  Guess Type is SAD.
  Energy threshold   = 1.00e-06
  Density threshold  = 1.00e-10
  Integral threshold = 0.00e+00

  ==> Primary Basis <==

  Basis Set: CC-PVDZ
    Blend: CC-PVDZ
    Number of shells: 63
    Number of basis function: 129
    Number of Cartesian functions: 135
    Spherical Harmonics?: true
    Max angular momentum: 2

  ==> Pre-Iterations <==

   -------------------------------------------------------
    Irrep   Nso     Nmo     Nalpha   Nbeta   Ndocc  Nsocc
   -------------------------------------------------------
     A        129     129       0       0       0       0
   -------------------------------------------------------
    Total     129     129      25      25      25       0
   -------------------------------------------------------

  ==> Integral Setup <==

  Using integral reordering PK algorithm.
  Sizing the integral batches needed.
  Building batch lookup table.
   Calculation information:
      Number of atoms:                  15
      Number of AO shells:              63
      Number of primitives:            177
      Number of atomic orbitals:       135
      Number of basis functions:       129

      Integral cutoff                 1.00e-12
      Number of threads:                 1

	Batch   1 pq = [       0,    8385] index = [             0,35158305] size =     35158305
  Task number: 4
  Buffer size: 11059200
  Buffer per thread: 2
  We computed 1627825 shell quartets total.
  Whereas there are 2033136 unique shell quartets.

  ==> DiskJK: Disk-Based J/K Matrices <==

    J tasked:                  Yes
    K tasked:                  Yes
    wK tasked:                  No
    Memory [MiB]:              375
    Schwarz Cutoff:          1E-12

    OpenMP threads:              1

  Minimum eigenvalue in the overlap matrix is 4.7582075161E-03.
  Using Symmetric Orthogonalization.

  SCF Guess: Superposition of Atomic Densities via on-the-fly atomic UHF.

  ==> Iterations <==

                        Total Energy        Delta E     RMS |[F,P]|

   @RHF iter SAD:  -321.64632210593402   -3.21646e+02   0.00000e+00
   @RHF iter   1:  -322.83916724273172   -1.19285e+00   4.95440e-03 DIIS
   @RHF iter   2:  -322.99467325123015   -1.55506e-01   2.84219e-03 DIIS
   @RHF iter   3:  -323.04254321380341   -4.78700e-02   5.41517e-04 DIIS
   @RHF iter   4:  -323.04545898230731   -2.91577e-03   2.16841e-04 DIIS
   @RHF iter   5:  -323.04594537289830   -4.86391e-04   4.48688e-05 DIIS
   @RHF iter   6:  -323.04597822563341   -3.28527e-05   2.05513e-05 DIIS
   @RHF iter   7:  -323.04598529157431   -7.06594e-06   7.44049e-06 DIIS
   @RHF iter   8:  -323.04598664887425   -1.35730e-06   2.57274e-06 DIIS
   @RHF iter   9:  -323.04598680405473   -1.55180e-07   8.40425e-07 DIIS
   @RHF iter  10:  -323.04598681751906   -1.34643e-08   2.68768e-07 DIIS
   @RHF iter  11:  -323.04598681886000   -1.34094e-09   4.70709e-08 DIIS
   @RHF iter  12:  -323.04598681890849   -4.84874e-11   1.15829e-08 DIIS
   @RHF iter  13:  -323.04598681891167   -3.18323e-12   3.53883e-09 DIIS
   @RHF iter  14:  -323.04598681891144    2.27374e-13   1.47031e-09 DIIS
   @RHF iter  15:  -323.04598681891127    1.70530e-13   5.88778e-10 DIIS
   @RHF iter  16:  -323.04598681891059    6.82121e-13   2.51790e-10 DIIS
   @RHF iter  17:  -323.04598681891127   -6.82121e-13   1.07652e-10 DIIS
   @RHF iter  18:  -323.04598681891190   -6.25278e-13   3.12122e-11 DIIS
  Energy and wave function converged.

  ==> Post-Iterations <==

    Orbital Energies [Eh]
    ---------------------

    Doubly Occupied:

       1A    -20.578224     2A    -20.488577     3A    -15.565610
       4A    -11.332884     5A    -11.298693     6A    -11.230406
       7A     -1.375830     8A     -1.349731     9A     -1.196040
      10A     -0.984824    11A     -0.941553    12A     -0.782925
      13A     -0.714669    14A     -0.699820    15A     -0.641836
      16A     -0.636420    17A     -0.610561    18A     -0.597113
      19A     -0.553336    20A     -0.542708    21A     -0.520995
      22A     -0.506048    23A     -0.468626    24A     -0.395674
      25A     -0.385190

    Virtual:

      26A      0.154164    27A      0.196156    28A      0.199926
      29A      0.215801    30A      0.224367    31A      0.246437
      32A      0.263650    33A      0.271935    34A      0.287865
      35A      0.293973    36A      0.347928    37A      0.404554
      38A      0.470249    39A      0.562173    40A      0.609905
      41A      0.619419    42A      0.656903    43A      0.669496
      44A      0.706870    45A      0.723444    46A      0.730098
      47A      0.756836    48A      0.765983    49A      0.825208
      50A      0.840258    51A      0.858008    52A      0.870657
      53A      0.873769    54A      0.888058    55A      0.900371
      56A      0.925779    57A      0.961474    58A      1.025157
      59A      1.030965    60A      1.059244    61A      1.107666
      62A      1.122739    63A      1.142061    64A      1.144619
      65A      1.180652    66A      1.274202    67A      1.331014
      68A      1.345849    69A      1.364367    70A      1.383269
      71A      1.397866    72A      1.442714    73A      1.464088
      74A      1.485573    75A      1.532038    76A      1.615502
      77A      1.639185    78A      1.650962    79A      1.666392
      80A      1.669862    81A      1.729780    82A      1.830739
      83A      1.856121    84A      1.865791    85A      1.881163
      86A      1.892970    87A      1.902574    88A      1.912464
      89A      1.947325    90A      1.970349    91A      1.977787
      92A      1.982339    93A      2.014373    94A      2.062192
      95A      2.099455    96A      2.122610    97A      2.206491
      98A      2.214087    99A      2.261973   100A      2.286577
     101A      2.351243   102A      2.364433   103A      2.406758
     104A      2.455731   105A      2.476979   106A      2.515911
     107A      2.537846   108A      2.622383   109A      2.663138
     110A      2.722955   111A      2.736390   112A      2.745485
     113A      2.753999   114A      2.769541   115A      2.801683
     116A      2.870939   117A      3.024530   118A      3.103949
     119A      3.151526   120A      3.266176   121A      3.313723
     122A      3.350114   123A      3.423291   124A      3.519654
     125A      3.551932   126A      3.563704   127A      3.868840
     128A      3.908277   129A      4.065711

    Final Occupation by Irrep:
              A
    DOCC [    25 ]

  @RHF Final Energy:  -323.04598681891190

   => Energetics <=

    Nuclear Repulsion Energy =            231.8744369713441245
    One-Electron Energy =                -901.0442598845427256
    Two-Electron Energy =                 346.1238360942866734
    Total Energy =                       -323.0459868189118993

Computation Completed

Properties will be evaluated at   0.000000,   0.000000,   0.000000 [a0]

Properties computed using the SCF density matrix

  Nuclear Dipole Moment: [e a0]
     X:     5.7374      Y:     5.0839      Z:     2.9804

  Electronic Dipole Moment: [e a0]
     X:    -4.5909      Y:    -3.3368      Z:    -1.9091

  Dipole Moment: [e a0]
     X:     1.1465      Y:     1.7471      Z:     1.0713     Total:     2.3483

  Dipole Moment: [D]
     X:     2.9141      Y:     4.4406      Z:     2.7230     Total:     5.9687

*** tstop() called on ds3 at Tue Apr 28 04:27:30 2020
Module time:
	user time   =      11.75 seconds =       0.20 minutes
	system time =       5.18 seconds =       0.09 minutes
	total time  =         17 seconds =       0.28 minutes
Total time:
	user time   =      11.75 seconds =       0.20 minutes
	system time =       5.18 seconds =       0.09 minutes
	total time  =         17 seconds =       0.28 minutes
                                     G D M A

                                 by Anthony Stone

                           version 2.2.06, 22 June 2011

               Distributed Multipoles from Gaussian wavefunctions

Starting at 4:27:30 on 28 Apr 2020

Using SCF density matrix from file ./SSI/SSI-063ASN-081THR-1-dimer.test.27599.fchk

                         Distributed Multipole Analysis

Standard DMA

Positions and radii in angstrom
Multipole moments in atomic units, ea_0^k for rank k

C          x =  0.742875  y = -2.058047  z = -0.907447 angstrom
           Maximum rank =  0   Radius =  0.650 angstrom
                   Q00  =  -0.269735

C          x = -0.527125  y = -1.219047  z = -0.895447 angstrom
           Maximum rank =  0   Radius =  0.650 angstrom
                   Q00  =   0.825979

O          x = -1.594125  y = -1.693047  z = -1.293447 angstrom
           Maximum rank =  0   Radius =  0.650 angstrom
                   Q00  =  -0.808698

N          x = -0.441125  y =  0.016953  z = -0.422447 angstrom
           Maximum rank =  0   Radius =  0.650 angstrom
                   Q00  =  -0.536978

H          x = -1.291125  y =  0.558953  z = -0.388447 angstrom
           Maximum rank =  0   Radius =  0.325 angstrom
                   Q00  =   0.203540

H          x =  0.378875  y =  0.350953  z =  0.061553 angstrom
           Maximum rank =  0   Radius =  0.325 angstrom
                   Q00  =   0.227780

H          x =  0.584875  y = -2.901047  z = -1.582447 angstrom
           Maximum rank =  0   Radius =  0.325 angstrom
                   Q00  =   0.124673

H          x =  0.897875  y = -2.450047  z =  0.098553 angstrom
           Maximum rank =  0   Radius =  0.325 angstrom
                   Q00  =   0.121991

H          x =  1.639719  y = -1.500298  z = -1.214998 angstrom
           Maximum rank =  0   Radius =  0.325 angstrom
                   Q00  =   0.093309

C          x =  1.217875  y =  2.845953  z =  1.398553 angstrom
           Maximum rank =  0   Radius =  0.650 angstrom
                   Q00  =  -0.064140

O          x =  0.518875  y =  1.659953  z =  1.766553 angstrom
           Maximum rank =  0   Radius =  0.650 angstrom
                   Q00  =  -0.596428

H          x = -0.274125  y =  1.926953  z =  2.254553 angstrom
           Maximum rank =  0   Radius =  0.325 angstrom
                   Q00  =   0.396537

H          x =  1.183875  y =  3.545953  z =  2.233553 angstrom
           Maximum rank =  0   Radius =  0.325 angstrom
                   Q00  =   0.087658

H          x =  2.264777  y =  2.580969  z =  1.189317 angstrom
           Maximum rank =  0   Radius =  0.325 angstrom
                   Q00  =   0.117151

H          x =  0.739478  y =  3.310784  z =  0.523871 angstrom
           Maximum rank =  0   Radius =  0.325 angstrom
                   Q00  =   0.077363

Total multipoles referred to origin at
           x =   0.000000,  y =    0.000000,  z =    0.000000 angstrom
                   Q00  =  -0.000000

Finished at 4:27:30 on 28 Apr 2020

  DMA results are available in the Python driver through the
	  variable('DMA DISTRIBUTED MULTIPOLES')
  and
	  variable('DMA TOTAL MULTIPOLES')
  commands.

    Psi4 stopped on: Tuesday, 28 April 2020 04:27AM
    Psi4 wall time for execution: 0:00:17.62

*** Psi4 exiting successfully. Buy a developer a beer!
