                               Psi4 1.3.2 release

  ==> Input File <==

--------------------------------------------------------------------------
import numpy as np
set {scf_type pk
basis cc-pvdz
d_convergence 10
gdma_switch   0
gdma_limit    0
gdma_origin   [ 0.0,  0.0,  0.0 ]
}
molecule test {
    units Angstrom
    0 1
    --
    0 1
    C               -1.613972179505938    -3.669308864031521     4.626041701620482
    C               -0.149972179505937    -1.326308864031521     2.100041701620484
    C               -1.274972179505938    -1.853308864031521     2.781041701620484
    C               -0.792972179505937    -2.843308864031521     3.701041701620484
    C                0.557027820494063    -2.884308864031521     3.550041701620483
    C               -1.522972179505937     0.140691135968479     0.842041701620483
    C               -0.258972179505937    -0.334308864031521     1.138041701620483
    C               -2.655972179505937    -0.363308864031521     1.496041701620483
    C               -2.543972179505937    -1.355308864031521     2.465041701620483
    N                0.947027820494063    -1.976308864031521     2.596041701620484
    H               -1.644972179505937     0.921691135968479     0.105041701620483
    H                0.625027820494063     0.069691135968479     0.674041701620483
    H               -3.629972179505938     0.023691135968479     1.235041701620483
    H               -3.411972179505938    -1.727308864031521     2.982041701620483
    H                1.908027820494063    -1.750308864031521     2.344041701620483
    H                1.225027820494063    -3.540308864031521     4.099041701620483
    H               -1.147972179505937    -4.635308864031521     4.714041701620483
    H               -2.598972179505938    -3.824308864031520     4.185041701620484
    H               -1.719238179505937    -3.255458864031521     5.639771701620483
    C                0.724027820494063     4.910691135968479    -2.740958298379517
    C                0.675027820494063     1.164691135968479    -2.107958298379517
    C                1.289027820494062     0.680691135968479    -3.256958298379517
    C                0.496027820494063     2.534691135968479    -1.940958298379517
    C                0.937027820494063     3.429691135968480    -2.910958298379517
    C                1.721027820494063     1.563691135968479    -4.238958298379517
    C                1.540027820494063     2.930691135968480    -4.065958298379517
    O                1.463027820494063    -0.658308864031521    -3.422958298379517
    H                0.312027820494063     0.465691135968479    -1.377958298379517
    H                0.015027820494063     2.903691135968479    -1.045958298379517
    H                2.193027820494062     1.185691135968479    -5.133958298379517
    H                1.772027820494063    -0.860308864031521    -4.333958298379518
    H                1.486027820494063     5.441691135968480    -3.312958298379517
    H                0.852027820494063     5.188691135968479    -1.692958298379517
    H                1.881027820494063     3.611691135968479    -4.835958298379517
    H               -0.266996179505937     5.229751135968479    -3.096028298379517

}
e, wfn = energy('scf', return_wfn=True)
gdma(wfn)
dmavals = variable('DMA DISTRIBUTED MULTIPOLES')
charges = np.array(dmavals)
print(charges)
np.save('SSI-010TRP-052TYR-1-dimer.npy', np.array(charges))--------------------------------------------------------------------------

*** tstart() called on ds3
*** at Tue Apr 28 09:53:48 2020

   => Loading Basis Set <=

    Name: CC-PVDZ
    Role: ORBITAL
    Keyword: BASIS
    atoms 1-9, 20-26   entry C          line   138 file /theoryfs2/ds/metcalf/miniconda2/envs/tf2gpu/share/psi4/basis/cc-pvdz.gbs
    atoms 10           entry N          line   168 file /theoryfs2/ds/metcalf/miniconda2/envs/tf2gpu/share/psi4/basis/cc-pvdz.gbs
    atoms 11-19, 28-35 entry H          line    22 file /theoryfs2/ds/metcalf/miniconda2/envs/tf2gpu/share/psi4/basis/cc-pvdz.gbs
    atoms 27           entry O          line   198 file /theoryfs2/ds/metcalf/miniconda2/envs/tf2gpu/share/psi4/basis/cc-pvdz.gbs

         ---------------------------------------------------------
                                   SCF
               by Justin Turney, Rob Parrish, Andy Simmonett
                          and Daniel G. A. Smith
                              RHF Reference
                        1 Threads,    500 MiB Core
         ---------------------------------------------------------

  ==> Geometry <==

    Molecular point group: c1
    Full point group: C1

    Geometry (in Angstrom), charge = 0, multiplicity = 1:

       Center              X                  Y                   Z               Mass
    ------------   -----------------  -----------------  -----------------  -----------------
         C           -1.613972179506    -3.669308864032     4.626041701620    12.000000000000
         C           -0.149972179506    -1.326308864032     2.100041701620    12.000000000000
         C           -1.274972179506    -1.853308864032     2.781041701620    12.000000000000
         C           -0.792972179506    -2.843308864032     3.701041701620    12.000000000000
         C            0.557027820494    -2.884308864032     3.550041701620    12.000000000000
         C           -1.522972179506     0.140691135968     0.842041701620    12.000000000000
         C           -0.258972179506    -0.334308864032     1.138041701620    12.000000000000
         C           -2.655972179506    -0.363308864032     1.496041701620    12.000000000000
         C           -2.543972179506    -1.355308864032     2.465041701620    12.000000000000
         N            0.947027820494    -1.976308864032     2.596041701620    14.003074004430
         H           -1.644972179506     0.921691135968     0.105041701620     1.007825032230
         H            0.625027820494     0.069691135968     0.674041701620     1.007825032230
         H           -3.629972179506     0.023691135968     1.235041701620     1.007825032230
         H           -3.411972179506    -1.727308864032     2.982041701620     1.007825032230
         H            1.908027820494    -1.750308864032     2.344041701620     1.007825032230
         H            1.225027820494    -3.540308864032     4.099041701620     1.007825032230
         H           -1.147972179506    -4.635308864032     4.714041701620     1.007825032230
         H           -2.598972179506    -3.824308864032     4.185041701620     1.007825032230
         H           -1.719238179506    -3.255458864032     5.639771701620     1.007825032230
         C            0.724027820494     4.910691135968    -2.740958298380    12.000000000000
         C            0.675027820494     1.164691135968    -2.107958298380    12.000000000000
         C            1.289027820494     0.680691135968    -3.256958298380    12.000000000000
         C            0.496027820494     2.534691135968    -1.940958298380    12.000000000000
         C            0.937027820494     3.429691135968    -2.910958298380    12.000000000000
         C            1.721027820494     1.563691135968    -4.238958298380    12.000000000000
         C            1.540027820494     2.930691135968    -4.065958298380    12.000000000000
         O            1.463027820494    -0.658308864032    -3.422958298380    15.994914619570
         H            0.312027820494     0.465691135968    -1.377958298380     1.007825032230
         H            0.015027820494     2.903691135968    -1.045958298380     1.007825032230
         H            2.193027820494     1.185691135968    -5.133958298380     1.007825032230
         H            1.772027820494    -0.860308864032    -4.333958298380     1.007825032230
         H            1.486027820494     5.441691135968    -3.312958298380     1.007825032230
         H            0.852027820494     5.188691135968    -1.692958298380     1.007825032230
         H            1.881027820494     3.611691135968    -4.835958298380     1.007825032230
         H           -0.266996179506     5.229751135968    -3.096028298380     1.007825032230

  Running in c1 symmetry.

  Rotational constants: A =      0.03025  B =      0.00473  C =      0.00441 [cm^-1]
  Rotational constants: A =    906.90490  B =    141.87321  C =    132.30013 [MHz]
  Nuclear repulsion = 1137.907071982775278

  Charge       = 0
  Multiplicity = 1
  Electrons    = 128
  Nalpha       = 64
  Nbeta        = 64

  ==> Algorithm <==

  SCF Algorithm Type is PK.
  DIIS enabled.
  MOM disabled.
  Fractional occupation disabled.
  Guess Type is SAD.
  Energy threshold   = 1.00e-06
  Density threshold  = 1.00e-10
  Integral threshold = 0.00e+00

  ==> Primary Basis <==

  Basis Set: CC-PVDZ
    Blend: CC-PVDZ
    Number of shells: 159
    Number of basis function: 337
    Number of Cartesian functions: 355
    Spherical Harmonics?: true
    Max angular momentum: 2

  ==> Pre-Iterations <==

   -------------------------------------------------------
    Irrep   Nso     Nmo     Nalpha   Nbeta   Ndocc  Nsocc
   -------------------------------------------------------
     A        337     337       0       0       0       0
   -------------------------------------------------------
    Total     337     337      64      64      64       0
   -------------------------------------------------------

  ==> Integral Setup <==

  Using integral reordering PK algorithm.
  Sizing the integral batches needed.
  Building batch lookup table.
   Calculation information:
      Number of atoms:                  35
      Number of AO shells:             159
      Number of primitives:            481
      Number of atomic orbitals:       355
      Number of basis functions:       337

      Integral cutoff                 1.00e-12
      Number of threads:                 1

	Batch   1 pq = [       0,    9405] index = [             0,44231715] size =     44231715
	Batch   2 pq = [    9405,   13301] index = [      44231715,88464951] size =     44233236
	Batch   3 pq = [   13301,   16290] index = [      88464951,132690195] size =     44225244
	Batch   4 pq = [   16290,   18810] index = [     132690195,176917455] size =     44227260
	Batch   5 pq = [   18810,   21030] index = [     176917455,221140965] size =     44223510
	Batch   6 pq = [   21030,   23037] index = [     221140965,265363203] size =     44222238
	Batch   7 pq = [   23037,   24883] index = [     265363203,309594286] size =     44231083
	Batch   8 pq = [   24883,   26601] index = [     309594286,353819901] size =     44225615
	Batch   9 pq = [   26601,   28214] index = [     353819901,398029005] size =     44209104
	Batch  10 pq = [   28214,   29740] index = [     398029005,442248670] size =     44219665
	Batch  11 pq = [   29740,   31191] index = [     442248670,486454836] size =     44206166
	Batch  12 pq = [   31191,   32578] index = [     486454836,530679331] size =     44224495
	Batch  13 pq = [   32578,   33908] index = [     530679331,574893186] size =     44213855
	Batch  14 pq = [   33908,   35188] index = [     574893186,619115266] size =     44222080
	Batch  15 pq = [   35188,   36423] index = [     619115266,663335676] size =     44220410
	Batch  16 pq = [   36423,   37617] index = [     663335676,707538153] size =     44202477
	Batch  17 pq = [   37617,   38775] index = [     707538153,751769700] size =     44231547
	Batch  18 pq = [   38775,   39899] index = [     751769700,795985050] size =     44215350
	Batch  19 pq = [   39899,   40992] index = [     795985050,840192528] size =     44207478
	Batch  20 pq = [   40992,   42057] index = [     840192528,884416653] size =     44224125
	Batch  21 pq = [   42057,   43095] index = [     884416653,928611060] size =     44194407
	Batch  22 pq = [   43095,   44109] index = [     928611060,972823995] size =     44212935
	Batch  23 pq = [   44109,   45100] index = [     972823995,1017027550] size =     44203555
	Batch  24 pq = [   45100,   46070] index = [    1017027550,1061245485] size =     44217935
	Batch  25 pq = [   46070,   47020] index = [    1061245485,1105463710] size =     44218225
	Batch  26 pq = [   47020,   47951] index = [    1105463710,1149673176] size =     44209466
	Batch  27 pq = [   47951,   48864] index = [    1149673176,1193869680] size =     44196504
	Batch  28 pq = [   48864,   49761] index = [    1193869680,1238103441] size =     44233761
	Batch  29 pq = [   49761,   50642] index = [    1238103441,1282331403] size =     44227962
	Batch  30 pq = [   50642,   51508] index = [    1282331403,1326562786] size =     44231383
	Batch  31 pq = [   51508,   52359] index = [    1326562786,1370758620] size =     44195834
	Batch  32 pq = [   52359,   53197] index = [    1370758620,1414987003] size =     44228383
	Batch  33 pq = [   53197,   54022] index = [    1414987003,1459215253] size =     44228250
	Batch  34 pq = [   54022,   54834] index = [    1459215253,1503411195] size =     44195942
	Batch  35 pq = [   54834,   55634] index = [    1503411195,1547598795] size =     44187600
	Batch  36 pq = [   55634,   56423] index = [    1547598795,1591805676] size =     44206881
	Batch  37 pq = [   56423,   56953] index = [    1591805676,1621850581] size =     30044905
  Task number: 147
  Buffer size: 11059200
  Buffer per thread: 2
  We computed 65453164 shell quartets total.
  Whereas there are 80905560 unique shell quartets.

  ==> DiskJK: Disk-Based J/K Matrices <==

    J tasked:                  Yes
    K tasked:                  Yes
    wK tasked:                  No
    Memory [MiB]:              375
    Schwarz Cutoff:          1E-12

    OpenMP threads:              1

  Minimum eigenvalue in the overlap matrix is 2.3321706712E-04.
  Using Symmetric Orthogonalization.

  SCF Guess: Superposition of Atomic Densities via on-the-fly atomic UHF.

  ==> Iterations <==

                        Total Energy        Delta E     RMS |[F,P]|

   @RHF iter SAD:  -744.47237397441518   -7.44472e+02   0.00000e+00
   @RHF iter   1:  -744.77794443570247   -3.05570e-01   2.21606e-03 DIIS
   @RHF iter   2:  -745.09635944124648   -3.18415e-01   9.70500e-04 DIIS
   @RHF iter   3:  -745.15032897018591   -5.39695e-02   2.58364e-04 DIIS
   @RHF iter   4:  -745.15544178835296   -5.11282e-03   1.15088e-04 DIIS
   @RHF iter   5:  -745.15630355389749   -8.61766e-04   1.72027e-05 DIIS
   @RHF iter   6:  -745.15634138311066   -3.78292e-05   8.03090e-06 DIIS
   @RHF iter   7:  -745.15634910037352   -7.71726e-06   3.00026e-06 DIIS
   @RHF iter   8:  -745.15635092088792   -1.82051e-06   1.22740e-06 DIIS
   @RHF iter   9:  -745.15635127893574   -3.58048e-07   5.52749e-07 DIIS
   @RHF iter  10:  -745.15635136162734   -8.26916e-08   2.62118e-07 DIIS
   @RHF iter  11:  -745.15635138479911   -2.31718e-08   1.03308e-07 DIIS
   @RHF iter  12:  -745.15635138809523   -3.29612e-09   4.13914e-08 DIIS
   @RHF iter  13:  -745.15635138846528   -3.70051e-10   1.39000e-08 DIIS
   @RHF iter  14:  -745.15635138849552   -3.02407e-11   5.10915e-09 DIIS
   @RHF iter  15:  -745.15635138850621   -1.06866e-11   2.00374e-09 DIIS
   @RHF iter  16:  -745.15635138850280    3.41061e-12   9.08180e-10 DIIS
   @RHF iter  17:  -745.15635138850939   -6.59384e-12   4.91462e-10 DIIS
   @RHF iter  18:  -745.15635138850587    3.52429e-12   1.91757e-10 DIIS
   @RHF iter  19:  -745.15635138850575    1.13687e-13   8.21445e-11 DIIS
  Energy and wave function converged.

  ==> Post-Iterations <==

    Orbital Energies [Eh]
    ---------------------

    Doubly Occupied:

       1A    -20.584119     2A    -15.599013     3A    -11.297167
       4A    -11.261637     5A    -11.259562     6A    -11.238534
       7A    -11.237240     8A    -11.232350     9A    -11.232167
      10A    -11.228049    11A    -11.227724    12A    -11.227501
      13A    -11.227271    14A    -11.226370    15A    -11.222090
      16A    -11.218873    17A    -11.217017    18A    -11.213946
      19A     -1.396676    20A     -1.293765    21A     -1.151143
      22A     -1.127104    23A     -1.073413    24A     -1.036765
      25A     -1.018622    26A     -0.996162    27A     -0.986414
      28A     -0.931129    29A     -0.924860    30A     -0.844501
      31A     -0.838146    32A     -0.803264    33A     -0.799518
      34A     -0.752272    35A     -0.728715    36A     -0.717676
      37A     -0.668573    38A     -0.661344    39A     -0.644183
      40A     -0.639665    41A     -0.606658    42A     -0.604000
      43A     -0.591862    44A     -0.587872    45A     -0.586944
      46A     -0.583741    47A     -0.570773    48A     -0.567401
      49A     -0.565985    50A     -0.550443    51A     -0.538415
      52A     -0.525246    53A     -0.524757    54A     -0.497347
      55A     -0.493163    56A     -0.484942    57A     -0.469926
      58A     -0.466270    59A     -0.459612    60A     -0.371116
      61A     -0.339053    62A     -0.301072    63A     -0.293091
      64A     -0.273003

    Virtual:

      65A      0.126903    66A      0.130331    67A      0.153788
      68A      0.169040    69A      0.178200    70A      0.183155
      71A      0.185725    72A      0.192919    73A      0.204999
      74A      0.220911    75A      0.222140    76A      0.226774
      77A      0.235694    78A      0.255181    79A      0.259397
      80A      0.268052    81A      0.276095    82A      0.290700
      83A      0.296599    84A      0.303273    85A      0.310867
      86A      0.322914    87A      0.371805    88A      0.375175
      89A      0.382763    90A      0.389557    91A      0.406058
      92A      0.410271    93A      0.440950    94A      0.446257
      95A      0.459967    96A      0.472179    97A      0.478219
      98A      0.489628    99A      0.502621   100A      0.506763
     101A      0.514301   102A      0.553548   103A      0.601032
     104A      0.614952   105A      0.614979   106A      0.635420
     107A      0.639236   108A      0.647469   109A      0.655543
     110A      0.666846   111A      0.672416   112A      0.681354
     113A      0.692049   114A      0.696410   115A      0.705377
     116A      0.715822   117A      0.718914   118A      0.722864
     119A      0.729510   120A      0.733562   121A      0.744228
     122A      0.745861   123A      0.751320   124A      0.751875
     125A      0.761791   126A      0.763740   127A      0.765462
     128A      0.774791   129A      0.780563   130A      0.789645
     131A      0.791937   132A      0.793633   133A      0.804223
     134A      0.816500   135A      0.832094   136A      0.843995
     137A      0.846868   138A      0.863360   139A      0.871034
     140A      0.876999   141A      0.877799   142A      0.879482
     143A      0.889616   144A      0.892279   145A      0.899572
     146A      0.903919   147A      0.918185   148A      0.921857
     149A      0.934668   150A      0.940077   151A      0.941457
     152A      0.943503   153A      0.953768   154A      0.962145
     155A      0.967522   156A      0.976451   157A      0.981897
     158A      0.998542   159A      1.020112   160A      1.024315
     161A      1.040312   162A      1.055204   163A      1.076074
     164A      1.093987   165A      1.107128   166A      1.133754
     167A      1.135252   168A      1.139546   169A      1.144832
     170A      1.146936   171A      1.157347   172A      1.164440
     173A      1.183360   174A      1.206216   175A      1.209959
     176A      1.219655   177A      1.235260   178A      1.237969
     179A      1.243400   180A      1.249697   181A      1.257393
     182A      1.266895   183A      1.277352   184A      1.281689
     185A      1.287345   186A      1.294381   187A      1.298016
     188A      1.309821   189A      1.312529   190A      1.324448
     191A      1.332006   192A      1.339962   193A      1.361181
     194A      1.364994   195A      1.378333   196A      1.386036
     197A      1.427038   198A      1.439530   199A      1.460994
     200A      1.482608   201A      1.500461   202A      1.531129
     203A      1.542526   204A      1.552714   205A      1.560902
     206A      1.578043   207A      1.604129   208A      1.618418
     209A      1.624037   210A      1.633348   211A      1.647223
     212A      1.660779   213A      1.681551   214A      1.694334
     215A      1.704292   216A      1.711542   217A      1.734583
     218A      1.744333   219A      1.750560   220A      1.761508
     221A      1.775589   222A      1.778688   223A      1.791781
     224A      1.803302   225A      1.810322   226A      1.812179
     227A      1.831204   228A      1.844252   229A      1.874697
     230A      1.882586   231A      1.885865   232A      1.891385
     233A      1.900072   234A      1.905911   235A      1.908530
     236A      1.915897   237A      1.920508   238A      1.922247
     239A      1.927989   240A      1.933858   241A      1.942622
     242A      1.949726   243A      1.956639   244A      1.966456
     245A      1.971384   246A      1.977718   247A      1.993741
     248A      2.009116   249A      2.011464   250A      2.011916
     251A      2.045092   252A      2.048115   253A      2.056983
     254A      2.061378   255A      2.067539   256A      2.072514
     257A      2.078806   258A      2.084902   259A      2.104224
     260A      2.109164   261A      2.116449   262A      2.131780
     263A      2.145251   264A      2.147681   265A      2.151664
     266A      2.159767   267A      2.175645   268A      2.185281
     269A      2.197712   270A      2.228696   271A      2.237265
     272A      2.251861   273A      2.271263   274A      2.280393
     275A      2.287827   276A      2.292316   277A      2.304819
     278A      2.308585   279A      2.317711   280A      2.332284
     281A      2.350511   282A      2.361980   283A      2.382787
     284A      2.408983   285A      2.412518   286A      2.426937
     287A      2.441049   288A      2.461252   289A      2.467200
     290A      2.477191   291A      2.487607   292A      2.535071
     293A      2.541602   294A      2.555729   295A      2.602674
     296A      2.609688   297A      2.619064   298A      2.639262
     299A      2.645182   300A      2.672298   301A      2.697999
     302A      2.724028   303A      2.760850   304A      2.772401
     305A      2.774843   306A      2.780422   307A      2.786932
     308A      2.791455   309A      2.823031   310A      2.831271
     311A      2.841043   312A      2.853151   313A      2.862040
     314A      2.897433   315A      2.905591   316A      2.924400
     317A      2.968720   318A      2.981182   319A      3.008939
     320A      3.039184   321A      3.056233   322A      3.085320
     323A      3.102821   324A      3.113800   325A      3.124193
     326A      3.213837   327A      3.252125   328A      3.298188
     329A      3.318497   330A      3.340392   331A      3.388847
     332A      3.583767   333A      3.676682   334A      3.740857
     335A      3.963272   336A      3.966956   337A      4.167548

    Final Occupation by Irrep:
              A
    DOCC [    64 ]

  @RHF Final Energy:  -745.15635138850575

   => Energetics <=

    Nuclear Repulsion Energy =           1137.9070719827752782
    One-Electron Energy =               -3270.4523828196756767
    Two-Electron Energy =                1387.3889594483944165
    Total Energy =                       -745.1563513885057546

Computation Completed

Properties will be evaluated at   0.000000,   0.000000,   0.000000 [a0]

Properties computed using the SCF density matrix

  Nuclear Dipole Moment: [e a0]
     X:    -2.0120      Y:     5.1105      Z:     1.0526

  Electronic Dipole Moment: [e a0]
     X:     2.9006      Y:    -5.0582      Z:    -1.4100

  Dipole Moment: [e a0]
     X:     0.8886      Y:     0.0523      Z:    -0.3574     Total:     0.9592

  Dipole Moment: [D]
     X:     2.2585      Y:     0.1330      Z:    -0.9085     Total:     2.4380

*** tstop() called on ds3 at Tue Apr 28 10:16:06 2020
Module time:
	user time   =     670.03 seconds =      11.17 minutes
	system time =     273.19 seconds =       4.55 minutes
	total time  =       1338 seconds =      22.30 minutes
Total time:
	user time   =     670.03 seconds =      11.17 minutes
	system time =     273.19 seconds =       4.55 minutes
	total time  =       1338 seconds =      22.30 minutes
                                     G D M A

                                 by Anthony Stone

                           version 2.2.06, 22 June 2011

               Distributed Multipoles from Gaussian wavefunctions

Starting at 10:16:6 on 28 Apr 2020

Using SCF density matrix from file ./SSI/SSI-010TRP-052TYR-1-dimer.test.27090.fchk

                         Distributed Multipole Analysis

Standard DMA

Positions and radii in angstrom
Multipole moments in atomic units, ea_0^k for rank k

C          x = -1.613972  y = -3.669309  z =  4.626042 angstrom
           Maximum rank =  0   Radius =  0.650 angstrom
                   Q00  =  -0.218451

C          x = -0.149972  y = -1.326309  z =  2.100042 angstrom
           Maximum rank =  0   Radius =  0.650 angstrom
                   Q00  =   0.313541

C          x = -1.274972  y = -1.853309  z =  2.781042 angstrom
           Maximum rank =  0   Radius =  0.650 angstrom
                   Q00  =  -0.051013

C          x = -0.792972  y = -2.843309  z =  3.701042 angstrom
           Maximum rank =  0   Radius =  0.650 angstrom
                   Q00  =  -0.122904

C          x =  0.557028  y = -2.884309  z =  3.550042 angstrom
           Maximum rank =  0   Radius =  0.650 angstrom
                   Q00  =   0.076180

C          x = -1.522972  y =  0.140691  z =  0.842042 angstrom
           Maximum rank =  0   Radius =  0.650 angstrom
                   Q00  =  -0.084640

C          x = -0.258972  y = -0.334309  z =  1.138042 angstrom
           Maximum rank =  0   Radius =  0.650 angstrom
                   Q00  =  -0.137042

C          x = -2.655972  y = -0.363309  z =  1.496042 angstrom
           Maximum rank =  0   Radius =  0.650 angstrom
                   Q00  =  -0.072235

C          x = -2.543972  y = -1.355309  z =  2.465042 angstrom
           Maximum rank =  0   Radius =  0.650 angstrom
                   Q00  =  -0.098041

N          x =  0.947028  y = -1.976309  z =  2.596042 angstrom
           Maximum rank =  0   Radius =  0.650 angstrom
                   Q00  =  -0.497633

H          x = -1.644972  y =  0.921691  z =  0.105042 angstrom
           Maximum rank =  0   Radius =  0.325 angstrom
                   Q00  =   0.062702

H          x =  0.625028  y =  0.069691  z =  0.674042 angstrom
           Maximum rank =  0   Radius =  0.325 angstrom
                   Q00  =   0.076989

H          x = -3.629972  y =  0.023691  z =  1.235042 angstrom
           Maximum rank =  0   Radius =  0.325 angstrom
                   Q00  =   0.059310

H          x = -3.411972  y = -1.727309  z =  2.982042 angstrom
           Maximum rank =  0   Radius =  0.325 angstrom
                   Q00  =   0.070034

H          x =  1.908028  y = -1.750309  z =  2.344042 angstrom
           Maximum rank =  0   Radius =  0.325 angstrom
                   Q00  =   0.217375

H          x =  1.225028  y = -3.540309  z =  4.099042 angstrom
           Maximum rank =  0   Radius =  0.325 angstrom
                   Q00  =   0.099579

H          x = -1.147972  y = -4.635309  z =  4.714042 angstrom
           Maximum rank =  0   Radius =  0.325 angstrom
                   Q00  =   0.105275

H          x = -2.598972  y = -3.824309  z =  4.185042 angstrom
           Maximum rank =  0   Radius =  0.325 angstrom
                   Q00  =   0.103956

H          x = -1.719238  y = -3.255459  z =  5.639772 angstrom
           Maximum rank =  0   Radius =  0.325 angstrom
                   Q00  =   0.098861

C          x =  0.724028  y =  4.910691  z = -2.740958 angstrom
           Maximum rank =  0   Radius =  0.650 angstrom
                   Q00  =  -0.192483

C          x =  0.675028  y =  1.164691  z = -2.107958 angstrom
           Maximum rank =  0   Radius =  0.650 angstrom
                   Q00  =  -0.117069

C          x =  1.289028  y =  0.680691  z = -3.256958 angstrom
           Maximum rank =  0   Radius =  0.650 angstrom
                   Q00  =   0.314961

C          x =  0.496028  y =  2.534691  z = -1.940958 angstrom
           Maximum rank =  0   Radius =  0.650 angstrom
                   Q00  =  -0.017574

C          x =  0.937028  y =  3.429691  z = -2.910958 angstrom
           Maximum rank =  0   Radius =  0.650 angstrom
                   Q00  =  -0.138935

C          x =  1.721028  y =  1.563691  z = -4.238958 angstrom
           Maximum rank =  0   Radius =  0.650 angstrom
                   Q00  =  -0.178276

C          x =  1.540028  y =  2.930691  z = -4.065958 angstrom
           Maximum rank =  0   Radius =  0.650 angstrom
                   Q00  =   0.040049

O          x =  1.463028  y = -0.658309  z = -3.422958 angstrom
           Maximum rank =  0   Radius =  0.650 angstrom
                   Q00  =  -0.687976

H          x =  0.312028  y =  0.465691  z = -1.377958 angstrom
           Maximum rank =  0   Radius =  0.325 angstrom
                   Q00  =   0.073332

H          x =  0.015028  y =  2.903691  z = -1.045958 angstrom
           Maximum rank =  0   Radius =  0.325 angstrom
                   Q00  =   0.060990

H          x =  2.193028  y =  1.185691  z = -5.133958 angstrom
           Maximum rank =  0   Radius =  0.325 angstrom
                   Q00  =   0.070086

H          x =  1.772028  y = -0.860309  z = -4.333958 angstrom
           Maximum rank =  0   Radius =  0.325 angstrom
                   Q00  =   0.410994

H          x =  1.486028  y =  5.441691  z = -3.312958 angstrom
           Maximum rank =  0   Radius =  0.325 angstrom
                   Q00  =   0.094075

H          x =  0.852028  y =  5.188691  z = -1.692958 angstrom
           Maximum rank =  0   Radius =  0.325 angstrom
                   Q00  =   0.097564

H          x =  1.881028  y =  3.611691  z = -4.835958 angstrom
           Maximum rank =  0   Radius =  0.325 angstrom
                   Q00  =   0.068468

H          x = -0.266996  y =  5.229751  z = -3.096028 angstrom
           Maximum rank =  0   Radius =  0.325 angstrom
                   Q00  =   0.099949

Total multipoles referred to origin at
           x =   0.000000,  y =    0.000000,  z =    0.000000 angstrom
                   Q00  =  -0.000000

Finished at 10:16:7 on 28 Apr 2020

  DMA results are available in the Python driver through the
	  variable('DMA DISTRIBUTED MULTIPOLES')
  and
	  variable('DMA TOTAL MULTIPOLES')
  commands.

    Psi4 stopped on: Tuesday, 28 April 2020 10:16AM
    Psi4 wall time for execution: 0:22:18.83

*** Psi4 exiting successfully. Buy a developer a beer!
