                               Psi4 1.3.2 release

  ==> Input File <==

--------------------------------------------------------------------------
import numpy as np
set {scf_type pk
basis cc-pvdz
d_convergence 10
gdma_switch   0
gdma_limit    0
gdma_origin   [ 0.0,  0.0,  0.0 ]
}
molecule test {
    units Angstrom
    0 1
    --
    0 1
    C               -1.896163450091132    -2.778006263214681     3.186488707290215
    O               -1.172163450091132    -1.560006263214680     3.082488707290215
    H               -0.384163450091132    -1.584006263214681     3.656488707290215
    H               -1.363163450091132    -3.445006263214681     3.863488707290215
    H               -2.904183450091132    -2.585356263214680     3.582448707290215
    H               -1.942393450091132    -3.263426263214680     2.200468707290215
    C               -1.934163450091132     1.325993736785320    -2.437511292709785
    C               -1.673163450091132     0.393993736785320    -0.090511292709785
    C                0.550836549908868     0.159993736785320     0.094488707290215
    C               -1.168163450091132     0.856993736785319    -1.261511292709785
    C                0.258836549908868     0.723993736785320    -1.173511292709785
    C                1.850836549908868    -0.111006263214680     0.511488707290215
    C                2.883836549908869     0.186993736785319    -0.360511292709785
    C                1.321836549908868     1.017993736785320    -2.041511292709785
    C                2.627836549908869     0.745993736785320    -1.625511292709785
    N               -0.651163450091132    -0.026006263214680     0.725488707290215
    H               -0.792163450091132    -0.477006263214680     1.628488707290215
    H               -2.729163450091132     0.333993736785320     0.149488707290215
    H                2.041836549908869    -0.539006263214681     1.484488707290215
    H               -2.703163450091131     0.585993736785320    -2.642511292709785
    H               -1.260163450091132     1.326993736785320    -3.293511292709785
    H                3.905836549908869    -0.006006263214680    -0.062511292709785
    H                1.131836549908868     1.445993736785319    -3.014511292709785
    H                3.459836549908868     0.972993736785320    -2.279511292709785
    H               -2.415633450091132     2.313433736785320    -2.381291292709785

}
e, wfn = energy('scf', return_wfn=True)
gdma(wfn)
dmavals = variable('DMA DISTRIBUTED MULTIPOLES')
charges = np.array(dmavals)
print(charges)
np.save('SSI-110THR-129TRP-1-dimer.npy', np.array(charges))--------------------------------------------------------------------------

*** tstart() called on ds3
*** at Mon Apr 27 16:49:47 2020

   => Loading Basis Set <=

    Name: CC-PVDZ
    Role: ORBITAL
    Keyword: BASIS
    atoms 1, 7-15    entry C          line   138 file /theoryfs2/ds/metcalf/miniconda2/envs/tf2gpu/share/psi4/basis/cc-pvdz.gbs
    atoms 2          entry O          line   198 file /theoryfs2/ds/metcalf/miniconda2/envs/tf2gpu/share/psi4/basis/cc-pvdz.gbs
    atoms 3-6, 17-25 entry H          line    22 file /theoryfs2/ds/metcalf/miniconda2/envs/tf2gpu/share/psi4/basis/cc-pvdz.gbs
    atoms 16         entry N          line   168 file /theoryfs2/ds/metcalf/miniconda2/envs/tf2gpu/share/psi4/basis/cc-pvdz.gbs

         ---------------------------------------------------------
                                   SCF
               by Justin Turney, Rob Parrish, Andy Simmonett
                          and Daniel G. A. Smith
                              RHF Reference
                        1 Threads,    500 MiB Core
         ---------------------------------------------------------

  ==> Geometry <==

    Molecular point group: c1
    Full point group: C1

    Geometry (in Angstrom), charge = 0, multiplicity = 1:

       Center              X                  Y                   Z               Mass
    ------------   -----------------  -----------------  -----------------  -----------------
         C           -1.896163450091    -2.778006263215     3.186488707290    12.000000000000
         O           -1.172163450091    -1.560006263215     3.082488707290    15.994914619570
         H           -0.384163450091    -1.584006263215     3.656488707290     1.007825032230
         H           -1.363163450091    -3.445006263215     3.863488707290     1.007825032230
         H           -2.904183450091    -2.585356263215     3.582448707290     1.007825032230
         H           -1.942393450091    -3.263426263215     2.200468707290     1.007825032230
         C           -1.934163450091     1.325993736785    -2.437511292710    12.000000000000
         C           -1.673163450091     0.393993736785    -0.090511292710    12.000000000000
         C            0.550836549909     0.159993736785     0.094488707290    12.000000000000
         C           -1.168163450091     0.856993736785    -1.261511292710    12.000000000000
         C            0.258836549909     0.723993736785    -1.173511292710    12.000000000000
         C            1.850836549909    -0.111006263215     0.511488707290    12.000000000000
         C            2.883836549909     0.186993736785    -0.360511292710    12.000000000000
         C            1.321836549909     1.017993736785    -2.041511292710    12.000000000000
         C            2.627836549909     0.745993736785    -1.625511292710    12.000000000000
         N           -0.651163450091    -0.026006263215     0.725488707290    14.003074004430
         H           -0.792163450091    -0.477006263215     1.628488707290     1.007825032230
         H           -2.729163450091     0.333993736785     0.149488707290     1.007825032230
         H            2.041836549909    -0.539006263215     1.484488707290     1.007825032230
         H           -2.703163450091     0.585993736785    -2.642511292710     1.007825032230
         H           -1.260163450091     1.326993736785    -3.293511292710     1.007825032230
         H            3.905836549909    -0.006006263215    -0.062511292710     1.007825032230
         H            1.131836549909     1.445993736785    -3.014511292710     1.007825032230
         H            3.459836549909     0.972993736785    -2.279511292710     1.007825032230
         H           -2.415633450091     2.313433736785    -2.381291292710     1.007825032230

  Running in c1 symmetry.

  Rotational constants: A =      0.04132  B =      0.01889  C =      0.01334 [cm^-1]
  Rotational constants: A =   1238.68281  B =    566.24189  C =    399.87161 [MHz]
  Nuclear repulsion =  655.831443565723930

  Charge       = 0
  Multiplicity = 1
  Electrons    = 88
  Nalpha       = 44
  Nbeta        = 44

  ==> Algorithm <==

  SCF Algorithm Type is PK.
  DIIS enabled.
  MOM disabled.
  Fractional occupation disabled.
  Guess Type is SAD.
  Energy threshold   = 1.00e-06
  Density threshold  = 1.00e-10
  Integral threshold = 0.00e+00

  ==> Primary Basis <==

  Basis Set: CC-PVDZ
    Blend: CC-PVDZ
    Number of shells: 111
    Number of basis function: 233
    Number of Cartesian functions: 245
    Spherical Harmonics?: true
    Max angular momentum: 2

  ==> Pre-Iterations <==

   -------------------------------------------------------
    Irrep   Nso     Nmo     Nalpha   Nbeta   Ndocc  Nsocc
   -------------------------------------------------------
     A        233     233       0       0       0       0
   -------------------------------------------------------
    Total     233     233      44      44      44       0
   -------------------------------------------------------

  ==> Integral Setup <==

  Using integral reordering PK algorithm.
  Sizing the integral batches needed.
  Building batch lookup table.
   Calculation information:
      Number of atoms:                  25
      Number of AO shells:             111
      Number of primitives:            329
      Number of atomic orbitals:       245
      Number of basis functions:       233

      Integral cutoff                 1.00e-12
      Number of threads:                 1

	Batch   1 pq = [       0,    9405] index = [             0,44231715] size =     44231715
	Batch   2 pq = [    9405,   13301] index = [      44231715,88464951] size =     44233236
	Batch   3 pq = [   13301,   16290] index = [      88464951,132690195] size =     44225244
	Batch   4 pq = [   16290,   18810] index = [     132690195,176917455] size =     44227260
	Batch   5 pq = [   18810,   21030] index = [     176917455,221140965] size =     44223510
	Batch   6 pq = [   21030,   23037] index = [     221140965,265363203] size =     44222238
	Batch   7 pq = [   23037,   24883] index = [     265363203,309594286] size =     44231083
	Batch   8 pq = [   24883,   26601] index = [     309594286,353819901] size =     44225615
	Batch   9 pq = [   26601,   27261] index = [     353819901,371594691] size =     17774790
  Task number: 34
  Buffer size: 11059200
  Buffer per thread: 2
  We computed 17719709 shell quartets total.
  Whereas there are 19322436 unique shell quartets.

  ==> DiskJK: Disk-Based J/K Matrices <==

    J tasked:                  Yes
    K tasked:                  Yes
    wK tasked:                  No
    Memory [MiB]:              375
    Schwarz Cutoff:          1E-12

    OpenMP threads:              1

  Minimum eigenvalue in the overlap matrix is 2.3787199356E-04.
  Using Symmetric Orthogonalization.

  SCF Guess: Superposition of Atomic Densities via on-the-fly atomic UHF.

  ==> Iterations <==

                        Total Energy        Delta E     RMS |[F,P]|

   @RHF iter SAD:  -514.82656692003889   -5.14827e+02   0.00000e+00
   @RHF iter   1:  -515.33376288471106   -5.07196e-01   2.66279e-03 DIIS
   @RHF iter   2:  -515.54468912759660   -2.10926e-01   1.20874e-03 DIIS
   @RHF iter   3:  -515.58245508269226   -3.77660e-02   3.13082e-04 DIIS
   @RHF iter   4:  -515.58596108585743   -3.50600e-03   1.27285e-04 DIIS
   @RHF iter   5:  -515.58645362100276   -4.92535e-04   2.31613e-05 DIIS
   @RHF iter   6:  -515.58648222556053   -2.86046e-05   1.07512e-05 DIIS
   @RHF iter   7:  -515.58648888643870   -6.66088e-06   3.87664e-06 DIIS
   @RHF iter   8:  -515.58649061842198   -1.73198e-06   1.56658e-06 DIIS
   @RHF iter   9:  -515.58649096489535   -3.46473e-07   7.14918e-07 DIIS
   @RHF iter  10:  -515.58649102764650   -6.27512e-08   3.32467e-07 DIIS
   @RHF iter  11:  -515.58649104641324   -1.87667e-08   1.13856e-07 DIIS
   @RHF iter  12:  -515.58649104840356   -1.99032e-09   4.08892e-08 DIIS
   @RHF iter  13:  -515.58649104854851   -1.44951e-10   1.48617e-08 DIIS
   @RHF iter  14:  -515.58649104856784   -1.93268e-11   4.46321e-09 DIIS
   @RHF iter  15:  -515.58649104857000   -2.16005e-12   1.76418e-09 DIIS
   @RHF iter  16:  -515.58649104856931    6.82121e-13   8.89715e-10 DIIS
   @RHF iter  17:  -515.58649104856363    5.68434e-12   4.41373e-10 DIIS
   @RHF iter  18:  -515.58649104857136   -7.73070e-12   1.79696e-10 DIIS
   @RHF iter  19:  -515.58649104856931    2.04636e-12   6.48713e-11 DIIS
  Energy and wave function converged.

  ==> Post-Iterations <==

    Orbital Energies [Eh]
    ---------------------

    Doubly Occupied:

       1A    -20.585902     2A    -15.574208     3A    -11.300461
       4A    -11.248694     5A    -11.247317     6A    -11.221302
       7A    -11.220679     8A    -11.219381     9A    -11.213859
      10A    -11.212182    11A    -11.207727    12A    -11.200600
      13A     -1.382527    14A     -1.275758    15A     -1.114732
      16A     -1.061809    17A     -0.985318    18A     -0.975002
      19A     -0.945775    20A     -0.918693    21A     -0.826760
      22A     -0.790682    23A     -0.739115    24A     -0.717988
      25A     -0.702479    26A     -0.649166    27A     -0.641849
      28A     -0.631279    29A     -0.621292    30A     -0.591400
      31A     -0.577758    32A     -0.576063    33A     -0.556630
      34A     -0.540106    35A     -0.528700    36A     -0.519219
      37A     -0.510536    38A     -0.482882    39A     -0.474149
      40A     -0.459067    41A     -0.447762    42A     -0.360548
      43A     -0.281393    44A     -0.260966

    Virtual:

      45A      0.135897    46A      0.149494    47A      0.182245
      48A      0.189880    49A      0.198386    50A      0.216299
      51A      0.227087    52A      0.230928    53A      0.242107
      54A      0.247261    55A      0.252816    56A      0.266304
      57A      0.279191    58A      0.308702    59A      0.322342
      60A      0.330278    61A      0.360156    62A      0.392604
      63A      0.394410    64A      0.428701    65A      0.453482
      66A      0.456884    67A      0.477901    68A      0.492616
      69A      0.523674    70A      0.538972    71A      0.587570
      72A      0.617918    73A      0.622372    74A      0.635273
      75A      0.656577    76A      0.662077    77A      0.674399
      78A      0.698722    79A      0.701590    80A      0.705764
      81A      0.728634    82A      0.733369    83A      0.745987
      84A      0.751621    85A      0.756473    86A      0.758163
      87A      0.773437    88A      0.775218    89A      0.787822
      90A      0.800670    91A      0.810959    92A      0.815497
      93A      0.837579    94A      0.852065    95A      0.856232
      96A      0.859944    97A      0.873832    98A      0.878702
      99A      0.892463   100A      0.903282   101A      0.912281
     102A      0.914642   103A      0.925379   104A      0.958383
     105A      0.970444   106A      0.978665   107A      0.994341
     108A      1.001194   109A      1.047469   110A      1.065808
     111A      1.090479   112A      1.096697   113A      1.119503
     114A      1.137957   115A      1.141351   116A      1.142759
     117A      1.161833   118A      1.162737   119A      1.180052
     120A      1.190653   121A      1.217231   122A      1.230388
     123A      1.252028   124A      1.252483   125A      1.257448
     126A      1.280711   127A      1.292786   128A      1.304117
     129A      1.315218   130A      1.338569   131A      1.341571
     132A      1.350256   133A      1.379055   134A      1.412675
     135A      1.441242   136A      1.463567   137A      1.494810
     138A      1.529926   139A      1.567319   140A      1.587482
     141A      1.606411   142A      1.638276   143A      1.641835
     144A      1.646271   145A      1.650966   146A      1.678279
     147A      1.700488   148A      1.706678   149A      1.723179
     150A      1.762807   151A      1.769718   152A      1.774644
     153A      1.802513   154A      1.817167   155A      1.836711
     156A      1.839107   157A      1.854832   158A      1.870261
     159A      1.892894   160A      1.906150   161A      1.907407
     162A      1.911597   163A      1.918587   164A      1.920963
     165A      1.931486   166A      1.938713   167A      1.958643
     168A      1.981782   169A      1.986595   170A      1.997966
     171A      2.018050   172A      2.027787   173A      2.035342
     174A      2.045125   175A      2.072071   176A      2.091754
     177A      2.101690   178A      2.104739   179A      2.122179
     180A      2.136360   181A      2.153299   182A      2.171272
     183A      2.172797   184A      2.188695   185A      2.212255
     186A      2.272386   187A      2.276293   188A      2.294491
     189A      2.304929   190A      2.331268   191A      2.339451
     192A      2.358744   193A      2.362076   194A      2.384597
     195A      2.394398   196A      2.417315   197A      2.425478
     198A      2.448523   199A      2.465159   200A      2.484290
     201A      2.578702   202A      2.623318   203A      2.630145
     204A      2.660652   205A      2.692810   206A      2.698901
     207A      2.708730   208A      2.737742   209A      2.757251
     210A      2.771652   211A      2.777562   212A      2.783671
     213A      2.812259   214A      2.822973   215A      2.849168
     216A      2.869683   217A      2.902057   218A      2.941014
     219A      3.004899   220A      3.044278   221A      3.063418
     222A      3.082505   223A      3.136207   224A      3.216092
     225A      3.273595   226A      3.314410   227A      3.355351
     228A      3.396580   229A      3.406233   230A      3.567874
     231A      3.784484   232A      3.954802   233A      4.054007

    Final Occupation by Irrep:
              A
    DOCC [    44 ]

  @RHF Final Energy:  -515.58649104856931

   => Energetics <=

    Nuclear Repulsion Energy =            655.8314435657239301
    One-Electron Energy =               -2001.6364405004708260
    Two-Electron Energy =                 830.2185058861775815
    Total Energy =                       -515.5864910485693144

Computation Completed

Properties will be evaluated at   0.000000,   0.000000,   0.000000 [a0]

Properties computed using the SCF density matrix

  Nuclear Dipole Moment: [e a0]
     X:    -5.5862      Y:    -4.6202      Z:     2.7234

  Electronic Dipole Moment: [e a0]
     X:     5.0321      Y:     3.5009      Z:    -1.3509

  Dipole Moment: [e a0]
     X:    -0.5541      Y:    -1.1192      Z:     1.3725     Total:     1.8556

  Dipole Moment: [D]
     X:    -1.4084      Y:    -2.8448      Z:     3.4885     Total:     4.7166

*** tstop() called on ds3 at Mon Apr 27 16:54:54 2020
Module time:
	user time   =     155.22 seconds =       2.59 minutes
	system time =      60.26 seconds =       1.00 minutes
	total time  =        307 seconds =       5.12 minutes
Total time:
	user time   =     155.22 seconds =       2.59 minutes
	system time =      60.26 seconds =       1.00 minutes
	total time  =        307 seconds =       5.12 minutes
                                     G D M A

                                 by Anthony Stone

                           version 2.2.06, 22 June 2011

               Distributed Multipoles from Gaussian wavefunctions

Starting at 16:54:54 on 27 Apr 2020

Using SCF density matrix from file ./SSI/SSI-110THR-129TRP-1-dimer.test.28239.fchk

                         Distributed Multipole Analysis

Standard DMA

Positions and radii in angstrom
Multipole moments in atomic units, ea_0^k for rank k

C          x = -1.896163  y = -2.778006  z =  3.186489 angstrom
           Maximum rank =  0   Radius =  0.650 angstrom
                   Q00  =  -0.050235

O          x = -1.172163  y = -1.560006  z =  3.082489 angstrom
           Maximum rank =  0   Radius =  0.650 angstrom
                   Q00  =  -0.640532

H          x = -0.384163  y = -1.584006  z =  3.656489 angstrom
           Maximum rank =  0   Radius =  0.325 angstrom
                   Q00  =   0.412502

H          x = -1.363163  y = -3.445006  z =  3.863489 angstrom
           Maximum rank =  0   Radius =  0.325 angstrom
                   Q00  =   0.085266

H          x = -2.904183  y = -2.585356  z =  3.582449 angstrom
           Maximum rank =  0   Radius =  0.325 angstrom
                   Q00  =   0.103010

H          x = -1.942393  y = -3.263426  z =  2.200469 angstrom
           Maximum rank =  0   Radius =  0.325 angstrom
                   Q00  =   0.101418

C          x = -1.934163  y =  1.325994  z = -2.437511 angstrom
           Maximum rank =  0   Radius =  0.650 angstrom
                   Q00  =  -0.223956

C          x = -1.673163  y =  0.393994  z = -0.090511 angstrom
           Maximum rank =  0   Radius =  0.650 angstrom
                   Q00  =   0.088569

C          x =  0.550837  y =  0.159994  z =  0.094489 angstrom
           Maximum rank =  0   Radius =  0.650 angstrom
                   Q00  =   0.314729

C          x = -1.168163  y =  0.856994  z = -1.261511 angstrom
           Maximum rank =  0   Radius =  0.650 angstrom
                   Q00  =  -0.127895

C          x =  0.258837  y =  0.723994  z = -1.173511 angstrom
           Maximum rank =  0   Radius =  0.650 angstrom
                   Q00  =  -0.052723

C          x =  1.850837  y = -0.111006  z =  0.511489 angstrom
           Maximum rank =  0   Radius =  0.650 angstrom
                   Q00  =  -0.118058

C          x =  2.883837  y =  0.186994  z = -0.360511 angstrom
           Maximum rank =  0   Radius =  0.650 angstrom
                   Q00  =  -0.073207

C          x =  1.321837  y =  1.017994  z = -2.041511 angstrom
           Maximum rank =  0   Radius =  0.650 angstrom
                   Q00  =  -0.104022

C          x =  2.627837  y =  0.745994  z = -1.625511 angstrom
           Maximum rank =  0   Radius =  0.650 angstrom
                   Q00  =  -0.089369

N          x = -0.651163  y = -0.026006  z =  0.725489 angstrom
           Maximum rank =  0   Radius =  0.650 angstrom
                   Q00  =  -0.534868

H          x = -0.792163  y = -0.477006  z =  1.628489 angstrom
           Maximum rank =  0   Radius =  0.325 angstrom
                   Q00  =   0.278004

H          x = -2.729163  y =  0.333994  z =  0.149489 angstrom
           Maximum rank =  0   Radius =  0.325 angstrom
                   Q00  =   0.091380

H          x =  2.041837  y = -0.539006  z =  1.484489 angstrom
           Maximum rank =  0   Radius =  0.325 angstrom
                   Q00  =   0.058546

H          x = -2.703163  y =  0.585994  z = -2.642511 angstrom
           Maximum rank =  0   Radius =  0.325 angstrom
                   Q00  =   0.097132

H          x = -1.260163  y =  1.326994  z = -3.293511 angstrom
           Maximum rank =  0   Radius =  0.325 angstrom
                   Q00  =   0.103345

H          x =  3.905837  y = -0.006006  z = -0.062511 angstrom
           Maximum rank =  0   Radius =  0.325 angstrom
                   Q00  =   0.059179

H          x =  1.131837  y =  1.445994  z = -3.014511 angstrom
           Maximum rank =  0   Radius =  0.325 angstrom
                   Q00  =   0.067858

H          x =  3.459837  y =  0.972994  z = -2.279511 angstrom
           Maximum rank =  0   Radius =  0.325 angstrom
                   Q00  =   0.056707

H          x = -2.415633  y =  2.313434  z = -2.381291 angstrom
           Maximum rank =  0   Radius =  0.325 angstrom
                   Q00  =   0.097222

Total multipoles referred to origin at
           x =   0.000000,  y =    0.000000,  z =    0.000000 angstrom
                   Q00  =  -0.000000

Finished at 16:54:54 on 27 Apr 2020

  DMA results are available in the Python driver through the
	  variable('DMA DISTRIBUTED MULTIPOLES')
  and
	  variable('DMA TOTAL MULTIPOLES')
  commands.

    Psi4 stopped on: Monday, 27 April 2020 04:54PM
    Psi4 wall time for execution: 0:05:07.80

*** Psi4 exiting successfully. Buy a developer a beer!
