                               Psi4 1.3.2 release

  ==> Input File <==

--------------------------------------------------------------------------
import numpy as np
set {scf_type pk
basis cc-pvdz
d_convergence 10
gdma_switch   0
gdma_limit    0
gdma_origin   [ 0.0,  0.0,  0.0 ]
}
molecule test {
    units Angstrom
    0 1
    --
    0 1
    C                0.349918693627201    -1.356903492097121     2.467451077441065
    C                0.625918693627201    -1.650903492097122     3.940451077441065
    H                0.537918693627201    -2.242903492097121     1.860451077441065
    H               -0.691081306372799    -1.057903492097121     2.345451077441065
    H                0.973918693627201    -0.534903492097122     2.117451077441066
    H                0.504918693627201    -0.725903492097121     4.501451077441066
    H                1.647519693627201    -2.031851492097122     4.086091077441066
    H               -0.110650406372799    -2.363642492097122     4.339791077441066
    C                0.501918693627201    -1.602903492097122    -2.138548922558935
    C               -1.397081306372799     0.910096507902879    -0.009548922558935
    C               -1.006081306372799    -0.281903492097121    -0.614548922558935
    C               -0.670081306372799     2.080096507902879    -0.227548922558935
    C                0.102918693627201    -0.314903492097121    -1.461548922558935
    C                0.447918693627201     2.052096507902879    -1.055548922558935
    C                0.824918693627201     0.855096507902879    -1.677548922558935
    H               -2.260081306372799     0.919096507902879     0.639451077441065
    H               -1.574081306372799    -1.182903492097121    -0.436548922558935
    H               -0.977081306372799     3.004096507902879     0.241451077441065
    H                1.015918693627201     2.955096507902879    -1.228548922558935
    H                0.289918693627201    -2.438903492097122    -1.469548922558935
    H                1.579918693627201    -1.587903492097122    -2.308548922558935
    H                1.682918693627201     0.845096507902878    -2.336548922558935
    H               -0.003666526372799    -1.770714492097121    -3.100948922558934

}
e, wfn = energy('scf', return_wfn=True)
gdma(wfn)
dmavals = variable('DMA DISTRIBUTED MULTIPOLES')
charges = np.array(dmavals)
print(charges)
np.save('SSI-045LEU-070PHE-1-dimer.npy', np.array(charges))--------------------------------------------------------------------------

*** tstart() called on ds3
*** at Mon Apr 27 20:12:28 2020

   => Loading Basis Set <=

    Name: CC-PVDZ
    Role: ORBITAL
    Keyword: BASIS
    atoms 1-2, 9-15  entry C          line   138 file /theoryfs2/ds/metcalf/miniconda2/envs/tf2gpu/share/psi4/basis/cc-pvdz.gbs
    atoms 3-8, 16-23 entry H          line    22 file /theoryfs2/ds/metcalf/miniconda2/envs/tf2gpu/share/psi4/basis/cc-pvdz.gbs

         ---------------------------------------------------------
                                   SCF
               by Justin Turney, Rob Parrish, Andy Simmonett
                          and Daniel G. A. Smith
                              RHF Reference
                        1 Threads,    500 MiB Core
         ---------------------------------------------------------

  ==> Geometry <==

    Molecular point group: c1
    Full point group: C1

    Geometry (in Angstrom), charge = 0, multiplicity = 1:

       Center              X                  Y                   Z               Mass
    ------------   -----------------  -----------------  -----------------  -----------------
         C            0.349918693627    -1.356903492097     2.467451077441    12.000000000000
         C            0.625918693627    -1.650903492097     3.940451077441    12.000000000000
         H            0.537918693627    -2.242903492097     1.860451077441     1.007825032230
         H           -0.691081306373    -1.057903492097     2.345451077441     1.007825032230
         H            0.973918693627    -0.534903492097     2.117451077441     1.007825032230
         H            0.504918693627    -0.725903492097     4.501451077441     1.007825032230
         H            1.647519693627    -2.031851492097     4.086091077441     1.007825032230
         H           -0.110650406373    -2.363642492097     4.339791077441     1.007825032230
         C            0.501918693627    -1.602903492097    -2.138548922559    12.000000000000
         C           -1.397081306373     0.910096507903    -0.009548922559    12.000000000000
         C           -1.006081306373    -0.281903492097    -0.614548922559    12.000000000000
         C           -0.670081306373     2.080096507903    -0.227548922559    12.000000000000
         C            0.102918693627    -0.314903492097    -1.461548922559    12.000000000000
         C            0.447918693627     2.052096507903    -1.055548922559    12.000000000000
         C            0.824918693627     0.855096507903    -1.677548922559    12.000000000000
         H           -2.260081306373     0.919096507903     0.639451077441     1.007825032230
         H           -1.574081306373    -1.182903492097    -0.436548922559     1.007825032230
         H           -0.977081306373     3.004096507903     0.241451077441     1.007825032230
         H            1.015918693627     2.955096507903    -1.228548922559     1.007825032230
         H            0.289918693627    -2.438903492097    -1.469548922559     1.007825032230
         H            1.579918693627    -1.587903492097    -2.308548922559     1.007825032230
         H            1.682918693627     0.845096507903    -2.336548922559     1.007825032230
         H           -0.003666526373    -1.770714492097    -3.100948922559     1.007825032230

  Running in c1 symmetry.

  Rotational constants: A =      0.06215  B =      0.02702  C =      0.02228 [cm^-1]
  Rotational constants: A =   1863.17690  B =    809.91429  C =    667.97068 [MHz]
  Nuclear repulsion =  408.876848830536233

  Charge       = 0
  Multiplicity = 1
  Electrons    = 68
  Nalpha       = 34
  Nbeta        = 34

  ==> Algorithm <==

  SCF Algorithm Type is PK.
  DIIS enabled.
  MOM disabled.
  Fractional occupation disabled.
  Guess Type is SAD.
  Energy threshold   = 1.00e-06
  Density threshold  = 1.00e-10
  Integral threshold = 0.00e+00

  ==> Primary Basis <==

  Basis Set: CC-PVDZ
    Blend: CC-PVDZ
    Number of shells: 96
    Number of basis function: 196
    Number of Cartesian functions: 205
    Spherical Harmonics?: true
    Max angular momentum: 2

  ==> Pre-Iterations <==

   -------------------------------------------------------
    Irrep   Nso     Nmo     Nalpha   Nbeta   Ndocc  Nsocc
   -------------------------------------------------------
     A        196     196       0       0       0       0
   -------------------------------------------------------
    Total     196     196      34      34      34       0
   -------------------------------------------------------

  ==> Integral Setup <==

  Using integral reordering PK algorithm.
  Sizing the integral batches needed.
  Building batch lookup table.
   Calculation information:
      Number of atoms:                  23
      Number of AO shells:              96
      Number of primitives:            268
      Number of atomic orbitals:       205
      Number of basis functions:       196

      Integral cutoff                 1.00e-12
      Number of threads:                 1

	Batch   1 pq = [       0,    9405] index = [             0,44231715] size =     44231715
	Batch   2 pq = [    9405,   13301] index = [      44231715,88464951] size =     44233236
	Batch   3 pq = [   13301,   16290] index = [      88464951,132690195] size =     44225244
	Batch   4 pq = [   16290,   18810] index = [     132690195,176917455] size =     44227260
	Batch   5 pq = [   18810,   19306] index = [     176917455,186370471] size =      9453016
  Task number: 17
  Buffer size: 11059200
  Buffer per thread: 2
  We computed 9663534 shell quartets total.
  Whereas there are 10841496 unique shell quartets.

  ==> DiskJK: Disk-Based J/K Matrices <==

    J tasked:                  Yes
    K tasked:                  Yes
    wK tasked:                  No
    Memory [MiB]:              375
    Schwarz Cutoff:          1E-12

    OpenMP threads:              1

  Minimum eigenvalue in the overlap matrix is 3.1435718832E-04.
  Using Symmetric Orthogonalization.

  SCF Guess: Superposition of Atomic Densities via on-the-fly atomic UHF.

  ==> Iterations <==

                        Total Energy        Delta E     RMS |[F,P]|

   @RHF iter SAD:  -347.83558896722690   -3.47836e+02   0.00000e+00
   @RHF iter   1:  -348.76819643166749   -9.32607e-01   2.89127e-03 DIIS
   @RHF iter   2:  -348.96048138475351   -1.92285e-01   1.19765e-03 DIIS
   @RHF iter   3:  -348.99051988647437   -3.00385e-02   2.57841e-04 DIIS
   @RHF iter   4:  -348.99298150537277   -2.46162e-03   5.44648e-05 DIIS
   @RHF iter   5:  -348.99305788387767   -7.63785e-05   1.85732e-05 DIIS
   @RHF iter   6:  -348.99306625496848   -8.37109e-06   4.89227e-06 DIIS
   @RHF iter   7:  -348.99306693400138   -6.79033e-07   1.22702e-06 DIIS
   @RHF iter   8:  -348.99306698221204   -4.82107e-08   2.92630e-07 DIIS
   @RHF iter   9:  -348.99306698701128   -4.79923e-09   1.20703e-07 DIIS
   @RHF iter  10:  -348.99306698792833   -9.17055e-10   5.35009e-08 DIIS
   @RHF iter  11:  -348.99306698824847   -3.20142e-10   2.11503e-08 DIIS
   @RHF iter  12:  -348.99306698830503   -5.65592e-11   9.19955e-09 DIIS
   @RHF iter  13:  -348.99306698831276   -7.73070e-12   3.48736e-09 DIIS
   @RHF iter  14:  -348.99306698831083    1.93268e-12   8.11800e-10 DIIS
   @RHF iter  15:  -348.99306698831140   -5.68434e-13   3.82548e-10 DIIS
   @RHF iter  16:  -348.99306698831225   -8.52651e-13   1.47413e-10 DIIS
   @RHF iter  17:  -348.99306698831288   -6.25278e-13   5.93668e-11 DIIS
  Energy and wave function converged.

  ==> Post-Iterations <==

    Orbital Energies [Eh]
    ---------------------

    Doubly Occupied:

       1A    -11.240103     2A    -11.236228     3A    -11.235066
       4A    -11.231602     5A    -11.231057     6A    -11.229813
       7A    -11.229377     8A    -11.214253     9A    -11.209791
      10A     -1.150942    11A     -1.043106    12A     -1.013027
      13A     -1.009519    14A     -0.930284    15A     -0.831450
      16A     -0.824349    17A     -0.794597    18A     -0.690086
      19A     -0.630232    20A     -0.629520    21A     -0.593504
      22A     -0.590583    23A     -0.581342    24A     -0.575993
      25A     -0.562013    26A     -0.534248    27A     -0.498848
      28A     -0.484883    29A     -0.484322    30A     -0.481003
      31A     -0.479903    32A     -0.477296    33A     -0.330092
      34A     -0.322049

    Virtual:

      35A      0.135483    36A      0.140463    37A      0.173648
      38A      0.197032    39A      0.198086    40A      0.214442
      41A      0.237941    42A      0.244581    43A      0.256384
      44A      0.258245    45A      0.270124    46A      0.272892
      47A      0.281328    48A      0.287767    49A      0.305623
      50A      0.321815    51A      0.364353    52A      0.379073
      53A      0.401875    54A      0.451437    55A      0.461387
      56A      0.481292    57A      0.493403    58A      0.562546
      59A      0.572905    60A      0.598553    61A      0.600747
      62A      0.605100    63A      0.645011    64A      0.665953
      65A      0.681711    66A      0.689090    67A      0.697062
      68A      0.703054    69A      0.731387    70A      0.738781
      71A      0.741941    72A      0.746971    73A      0.763094
      74A      0.774473    75A      0.784300    76A      0.801513
      77A      0.839861    78A      0.859624    79A      0.862794
      80A      0.865493    81A      0.877965    82A      0.893609
      83A      0.896559    84A      0.897463    85A      0.899333
      86A      0.909448    87A      0.916473    88A      0.924446
      89A      0.931391    90A      0.941045    91A      0.959096
      92A      0.965080    93A      0.990672    94A      1.000625
      95A      1.021031    96A      1.052179    97A      1.120104
      98A      1.130033    99A      1.133228   100A      1.138691
     101A      1.151945   102A      1.158495   103A      1.186682
     104A      1.214706   105A      1.241869   106A      1.248784
     107A      1.253075   108A      1.280779   109A      1.299551
     110A      1.311728   111A      1.321979   112A      1.339768
     113A      1.411849   114A      1.476689   115A      1.485249
     116A      1.508719   117A      1.516340   118A      1.556144
     119A      1.589385   120A      1.606241   121A      1.678217
     122A      1.686799   123A      1.700654   124A      1.701447
     125A      1.734252   126A      1.749751   127A      1.759769
     128A      1.794744   129A      1.809551   130A      1.853890
     131A      1.870897   132A      1.878134   133A      1.884362
     134A      1.900689   135A      1.907367   136A      1.913688
     137A      1.918727   138A      1.924117   139A      1.939719
     140A      1.944557   141A      1.949267   142A      1.954316
     143A      1.961863   144A      1.968521   145A      1.975820
     146A      1.981227   147A      1.994236   148A      2.033010
     149A      2.035389   150A      2.069084   151A      2.082949
     152A      2.103196   153A      2.110325   154A      2.120851
     155A      2.142559   156A      2.152556   157A      2.163622
     158A      2.174340   159A      2.180202   160A      2.257292
     161A      2.277990   162A      2.293396   163A      2.295499
     164A      2.302840   165A      2.313122   166A      2.322946
     167A      2.362906   168A      2.456545   169A      2.467536
     170A      2.473800   171A      2.476098   172A      2.492621
     173A      2.543168   174A      2.563112   175A      2.579740
     176A      2.618545   177A      2.738344   178A      2.751808
     179A      2.766145   180A      2.770038   181A      2.783069
     182A      2.794713   183A      2.813238   184A      2.846991
     185A      2.859875   186A      2.866144   187A      2.871898
     188A      2.956200   189A      2.963176   190A      2.981689
     191A      3.009930   192A      3.024650   193A      3.151516
     194A      3.197057   195A      3.293346   196A      3.961852

    Final Occupation by Irrep:
              A
    DOCC [    34 ]

  @RHF Final Energy:  -348.99306698831288

   => Energetics <=

    Nuclear Repulsion Energy =            408.8768488305362325
    One-Electron Energy =               -1280.5388719957552439
    Two-Electron Energy =                 522.6689561769061356
    Total Energy =                       -348.9930669883128758

Computation Completed

Properties will be evaluated at   0.000000,   0.000000,   0.000000 [a0]

Properties computed using the SCF density matrix

  Nuclear Dipole Moment: [e a0]
     X:     2.4527      Y:    -7.7005      Z:     8.6724

  Electronic Dipole Moment: [e a0]
     X:    -2.4359      Y:     7.6392      Z:    -8.7756

  Dipole Moment: [e a0]
     X:     0.0168      Y:    -0.0613      Z:    -0.1031     Total:     0.1211

  Dipole Moment: [D]
     X:     0.0427      Y:    -0.1557      Z:    -0.2622     Total:     0.3079

*** tstop() called on ds3 at Mon Apr 27 20:13:56 2020
Module time:
	user time   =      63.46 seconds =       1.06 minutes
	system time =      26.87 seconds =       0.45 minutes
	total time  =         88 seconds =       1.47 minutes
Total time:
	user time   =      63.46 seconds =       1.06 minutes
	system time =      26.87 seconds =       0.45 minutes
	total time  =         88 seconds =       1.47 minutes
                                     G D M A

                                 by Anthony Stone

                           version 2.2.06, 22 June 2011

               Distributed Multipoles from Gaussian wavefunctions

Starting at 20:13:56 on 27 Apr 2020

Using SCF density matrix from file ./SSI/SSI-045LEU-070PHE-1-dimer.test.13822.fchk

                         Distributed Multipole Analysis

Standard DMA

Positions and radii in angstrom
Multipole moments in atomic units, ea_0^k for rank k

C          x =  0.349919  y = -1.356903  z =  2.467451 angstrom
           Maximum rank =  0   Radius =  0.650 angstrom
                   Q00  =  -0.227579

C          x =  0.625919  y = -1.650903  z =  3.940451 angstrom
           Maximum rank =  0   Radius =  0.650 angstrom
                   Q00  =  -0.238011

H          x =  0.537919  y = -2.242903  z =  1.860451 angstrom
           Maximum rank =  0   Radius =  0.325 angstrom
                   Q00  =   0.073155

H          x = -0.691081  y = -1.057903  z =  2.345451 angstrom
           Maximum rank =  0   Radius =  0.325 angstrom
                   Q00  =   0.074988

H          x =  0.973919  y = -0.534903  z =  2.117451 angstrom
           Maximum rank =  0   Radius =  0.325 angstrom
                   Q00  =   0.086797

H          x =  0.504919  y = -0.725903  z =  4.501451 angstrom
           Maximum rank =  0   Radius =  0.325 angstrom
                   Q00  =   0.076803

H          x =  1.647520  y = -2.031851  z =  4.086091 angstrom
           Maximum rank =  0   Radius =  0.325 angstrom
                   Q00  =   0.078826

H          x = -0.110650  y = -2.363642  z =  4.339791 angstrom
           Maximum rank =  0   Radius =  0.325 angstrom
                   Q00  =   0.075147

C          x =  0.501919  y = -1.602903  z = -2.138549 angstrom
           Maximum rank =  0   Radius =  0.650 angstrom
                   Q00  =  -0.200111

C          x = -1.397081  y =  0.910097  z = -0.009549 angstrom
           Maximum rank =  0   Radius =  0.650 angstrom
                   Q00  =  -0.079187

C          x = -1.006081  y = -0.281903  z = -0.614549 angstrom
           Maximum rank =  0   Radius =  0.650 angstrom
                   Q00  =  -0.041877

C          x = -0.670081  y =  2.080097  z = -0.227549 angstrom
           Maximum rank =  0   Radius =  0.650 angstrom
                   Q00  =  -0.087688

C          x =  0.102919  y = -0.314903  z = -1.461549 angstrom
           Maximum rank =  0   Radius =  0.650 angstrom
                   Q00  =  -0.103346

C          x =  0.447919  y =  2.052097  z = -1.055549 angstrom
           Maximum rank =  0   Radius =  0.650 angstrom
                   Q00  =  -0.079312

C          x =  0.824919  y =  0.855097  z = -1.677549 angstrom
           Maximum rank =  0   Radius =  0.650 angstrom
                   Q00  =  -0.015587

H          x = -2.260081  y =  0.919097  z =  0.639451 angstrom
           Maximum rank =  0   Radius =  0.325 angstrom
                   Q00  =   0.064067

H          x = -1.574081  y = -1.182903  z = -0.436549 angstrom
           Maximum rank =  0   Radius =  0.325 angstrom
                   Q00  =   0.056695

H          x = -0.977081  y =  3.004097  z =  0.241451 angstrom
           Maximum rank =  0   Radius =  0.325 angstrom
                   Q00  =   0.061873

H          x =  1.015919  y =  2.955097  z = -1.228549 angstrom
           Maximum rank =  0   Radius =  0.325 angstrom
                   Q00  =   0.065867

H          x =  0.289919  y = -2.438903  z = -1.469549 angstrom
           Maximum rank =  0   Radius =  0.325 angstrom
                   Q00  =   0.098482

H          x =  1.579919  y = -1.587903  z = -2.308549 angstrom
           Maximum rank =  0   Radius =  0.325 angstrom
                   Q00  =   0.097100

H          x =  1.682919  y =  0.845097  z = -2.336549 angstrom
           Maximum rank =  0   Radius =  0.325 angstrom
                   Q00  =   0.057615

H          x = -0.003667  y = -1.770714  z = -3.100949 angstrom
           Maximum rank =  0   Radius =  0.325 angstrom
                   Q00  =   0.105282

Total multipoles referred to origin at
           x =   0.000000,  y =    0.000000,  z =    0.000000 angstrom
                   Q00  =  -0.000000

Finished at 20:13:56 on 27 Apr 2020

  DMA results are available in the Python driver through the
	  variable('DMA DISTRIBUTED MULTIPOLES')
  and
	  variable('DMA TOTAL MULTIPOLES')
  commands.

    Psi4 stopped on: Monday, 27 April 2020 08:13PM
    Psi4 wall time for execution: 0:01:27.61

*** Psi4 exiting successfully. Buy a developer a beer!
