                               Psi4 1.3.2 release

  ==> Input File <==

--------------------------------------------------------------------------
import numpy as np
set {scf_type pk
basis cc-pvdz
d_convergence 10
gdma_switch   0
gdma_limit    0
gdma_origin   [ 0.0,  0.0,  0.0 ]
}
molecule test {
    units Angstrom
    0 1
    --
    0 1
    C                2.359685985399875     1.246637651486568     1.945001732347428
    C                3.558685985399876     0.370637651486568     2.277001732347427
    C                2.461685985399875     2.708637651486568     2.407001732347427
    H                2.270685985399875     1.244637651486568     0.865001732347427
    H                1.457685985399875     0.807637651486568     2.372001732347427
    H                3.699685985399876     0.388637651486568     3.358001732347427
    H                3.312685985399876     3.175637651486568     1.930001732347427
    H                4.447265985399876     0.774951651486568     1.770100732347427
    H                3.336435985399875    -0.678350348513432     2.031586732347427
    H                1.562515985399875     3.250447651486568     2.078458732347428
    H                2.581345985399876     2.797488651486568     3.496857732347427
    C               -1.912314014600125    -3.065362348513432     0.470001732347427
    C               -0.252314014600125     0.272637651486568    -0.299998267652573
    C               -0.783314014600125     0.573637651486568    -1.544998267652572
    C               -0.579314014600125    -0.918362348513432     0.350001732347427
    C               -1.472314014600125    -1.813362348513432    -0.240998267652573
    C               -1.704314014600125    -0.300362348513432    -2.116998267652573
    C               -2.049314014600125    -1.475362348513432    -1.459998267652572
    O               -0.418314014600125     1.731637651486568    -2.176998267652573
    H                0.385685985399875     0.994637651486568     0.163001732347427
    H               -0.154314014600125    -1.138362348513432     1.321001732347427
    H               -2.149314014600125    -0.068362348513432    -3.073998267652573
    H               -0.858314014600125     1.821637651486568    -3.030998267652573
    H               -1.268314014600125    -3.255362348513432     1.331001732347427
    H               -1.820314014600125    -3.907362348513432    -0.216998267652573
    H               -2.766314014600125    -2.142362348513432    -1.914998267652573
    H               -2.955247014600125    -2.964085348513432     0.804717032347427

}
e, wfn = energy('scf', return_wfn=True)
gdma(wfn)
dmavals = variable('DMA DISTRIBUTED MULTIPOLES')
charges = np.array(dmavals)
print(charges)
np.save('SSI-012LEU-088TYR-1-dimer.npy', np.array(charges))--------------------------------------------------------------------------

*** tstart() called on ds3
*** at Mon Apr 27 01:16:10 2020

   => Loading Basis Set <=

    Name: CC-PVDZ
    Role: ORBITAL
    Keyword: BASIS
    atoms 1-3, 12-18  entry C          line   138 file /theoryfs2/ds/metcalf/miniconda2/envs/tf2gpu/share/psi4/basis/cc-pvdz.gbs
    atoms 4-11, 20-27 entry H          line    22 file /theoryfs2/ds/metcalf/miniconda2/envs/tf2gpu/share/psi4/basis/cc-pvdz.gbs
    atoms 19          entry O          line   198 file /theoryfs2/ds/metcalf/miniconda2/envs/tf2gpu/share/psi4/basis/cc-pvdz.gbs

         ---------------------------------------------------------
                                   SCF
               by Justin Turney, Rob Parrish, Andy Simmonett
                          and Daniel G. A. Smith
                              RHF Reference
                        1 Threads,    500 MiB Core
         ---------------------------------------------------------

  ==> Geometry <==

    Molecular point group: c1
    Full point group: C1

    Geometry (in Angstrom), charge = 0, multiplicity = 1:

       Center              X                  Y                   Z               Mass
    ------------   -----------------  -----------------  -----------------  -----------------
         C            2.359685985400     1.246637651487     1.945001732347    12.000000000000
         C            3.558685985400     0.370637651487     2.277001732347    12.000000000000
         C            2.461685985400     2.708637651487     2.407001732347    12.000000000000
         H            2.270685985400     1.244637651487     0.865001732347     1.007825032230
         H            1.457685985400     0.807637651487     2.372001732347     1.007825032230
         H            3.699685985400     0.388637651487     3.358001732347     1.007825032230
         H            3.312685985400     3.175637651487     1.930001732347     1.007825032230
         H            4.447265985400     0.774951651487     1.770100732347     1.007825032230
         H            3.336435985400    -0.678350348513     2.031586732347     1.007825032230
         H            1.562515985400     3.250447651487     2.078458732347     1.007825032230
         H            2.581345985400     2.797488651487     3.496857732347     1.007825032230
         C           -1.912314014600    -3.065362348513     0.470001732347    12.000000000000
         C           -0.252314014600     0.272637651487    -0.299998267653    12.000000000000
         C           -0.783314014600     0.573637651487    -1.544998267653    12.000000000000
         C           -0.579314014600    -0.918362348513     0.350001732347    12.000000000000
         C           -1.472314014600    -1.813362348513    -0.240998267653    12.000000000000
         C           -1.704314014600    -0.300362348513    -2.116998267653    12.000000000000
         C           -2.049314014600    -1.475362348513    -1.459998267653    12.000000000000
         O           -0.418314014600     1.731637651487    -2.176998267653    15.994914619570
         H            0.385685985400     0.994637651487     0.163001732347     1.007825032230
         H           -0.154314014600    -1.138362348513     1.321001732347     1.007825032230
         H           -2.149314014600    -0.068362348513    -3.073998267653     1.007825032230
         H           -0.858314014600     1.821637651487    -3.030998267653     1.007825032230
         H           -1.268314014600    -3.255362348513     1.331001732347     1.007825032230
         H           -1.820314014600    -3.907362348513    -0.216998267653     1.007825032230
         H           -2.766314014600    -2.142362348513    -1.914998267653     1.007825032230
         H           -2.955247014600    -2.964085348513     0.804717032347     1.007825032230

  Running in c1 symmetry.

  Rotational constants: A =      0.04338  B =      0.01567  C =      0.01211 [cm^-1]
  Rotational constants: A =   1300.51585  B =    469.65673  C =    363.06162 [MHz]
  Nuclear repulsion =  568.459716745789592

  Charge       = 0
  Multiplicity = 1
  Electrons    = 84
  Nalpha       = 42
  Nbeta        = 42

  ==> Algorithm <==

  SCF Algorithm Type is PK.
  DIIS enabled.
  MOM disabled.
  Fractional occupation disabled.
  Guess Type is SAD.
  Energy threshold   = 1.00e-06
  Density threshold  = 1.00e-10
  Integral threshold = 0.00e+00

  ==> Primary Basis <==

  Basis Set: CC-PVDZ
    Blend: CC-PVDZ
    Number of shells: 114
    Number of basis function: 234
    Number of Cartesian functions: 245
    Spherical Harmonics?: true
    Max angular momentum: 2

  ==> Pre-Iterations <==

   -------------------------------------------------------
    Irrep   Nso     Nmo     Nalpha   Nbeta   Ndocc  Nsocc
   -------------------------------------------------------
     A        234     234       0       0       0       0
   -------------------------------------------------------
    Total     234     234      42      42      42       0
   -------------------------------------------------------

  ==> Integral Setup <==

  Using integral reordering PK algorithm.
  Sizing the integral batches needed.
  Building batch lookup table.
   Calculation information:
      Number of atoms:                  27
      Number of AO shells:             114
      Number of primitives:            322
      Number of atomic orbitals:       245
      Number of basis functions:       234

      Integral cutoff                 1.00e-12
      Number of threads:                 1

	Batch   1 pq = [       0,    9405] index = [             0,44231715] size =     44231715
	Batch   2 pq = [    9405,   13301] index = [      44231715,88464951] size =     44233236
	Batch   3 pq = [   13301,   16290] index = [      88464951,132690195] size =     44225244
	Batch   4 pq = [   16290,   18810] index = [     132690195,176917455] size =     44227260
	Batch   5 pq = [   18810,   21030] index = [     176917455,221140965] size =     44223510
	Batch   6 pq = [   21030,   23037] index = [     221140965,265363203] size =     44222238
	Batch   7 pq = [   23037,   24883] index = [     265363203,309594286] size =     44231083
	Batch   8 pq = [   24883,   26601] index = [     309594286,353819901] size =     44225615
	Batch   9 pq = [   26601,   27495] index = [     353819901,378001260] size =     24181359
  Task number: 35
  Buffer size: 11059200
  Buffer per thread: 2
  We computed 17702588 shell quartets total.
  Whereas there are 21487290 unique shell quartets.

  ==> DiskJK: Disk-Based J/K Matrices <==

    J tasked:                  Yes
    K tasked:                  Yes
    wK tasked:                  No
    Memory [MiB]:              375
    Schwarz Cutoff:          1E-12

    OpenMP threads:              1

  Minimum eigenvalue in the overlap matrix is 3.2204371867E-04.
  Using Symmetric Orthogonalization.

  SCF Guess: Superposition of Atomic Densities via on-the-fly atomic UHF.

  ==> Iterations <==

                        Total Energy        Delta E     RMS |[F,P]|

   @RHF iter SAD:  -461.72577886035623   -4.61726e+02   0.00000e+00
   @RHF iter   1:  -462.60248741360186   -8.76709e-01   2.82291e-03 DIIS
   @RHF iter   2:  -462.84655689129835   -2.44069e-01   1.19706e-03 DIIS
   @RHF iter   3:  -462.88619028450620   -3.96334e-02   2.71803e-04 DIIS
   @RHF iter   4:  -462.88948829788626   -3.29801e-03   1.07856e-04 DIIS
   @RHF iter   5:  -462.88985934363802   -3.71046e-04   2.03317e-05 DIIS
   @RHF iter   6:  -462.88987881193600   -1.94683e-05   6.25946e-06 DIIS
   @RHF iter   7:  -462.88988067933053   -1.86739e-06   1.77532e-06 DIIS
   @RHF iter   8:  -462.88988087242615   -1.93096e-07   6.52203e-07 DIIS
   @RHF iter   9:  -462.88988089456780   -2.21416e-08   2.05660e-07 DIIS
   @RHF iter  10:  -462.88988089670283   -2.13504e-09   5.46630e-08 DIIS
   @RHF iter  11:  -462.88988089688479   -1.81956e-10   1.50333e-08 DIIS
   @RHF iter  12:  -462.88988089689633   -1.15392e-11   7.41569e-09 DIIS
   @RHF iter  13:  -462.88988089690162   -5.28644e-12   2.81064e-09 DIIS
   @RHF iter  14:  -462.88988089690037    1.25056e-12   1.27498e-09 DIIS
   @RHF iter  15:  -462.88988089690253   -2.16005e-12   6.48430e-10 DIIS
   @RHF iter  16:  -462.88988089690173    7.95808e-13   1.85041e-10 DIIS
   @RHF iter  17:  -462.88988089690088    8.52651e-13   6.31455e-11 DIIS
  Energy and wave function converged.

  ==> Post-Iterations <==

    Orbital Energies [Eh]
    ---------------------

    Doubly Occupied:

       1A    -20.583093     2A    -11.296597     3A    -11.237189
       4A    -11.236034     5A    -11.232934     6A    -11.231836
       7A    -11.227818     8A    -11.225059     9A    -11.217308
      10A    -11.215975    11A    -11.215541    12A     -1.396214
      13A     -1.150539    14A     -1.052369    15A     -1.037863
      16A     -1.016184    17A     -0.925788    18A     -0.924418
      19A     -0.843756    20A     -0.802561    21A     -0.792002
      22A     -0.730264    23A     -0.666887    24A     -0.640693
      25A     -0.627418    26A     -0.606571    27A     -0.594612
      28A     -0.585768    29A     -0.581148    30A     -0.571377
      31A     -0.567702    32A     -0.548539    33A     -0.532984
      34A     -0.526949    35A     -0.496894    36A     -0.485345
      37A     -0.470518    38A     -0.469527    39A     -0.466690
      40A     -0.458707    41A     -0.336868    42A     -0.301091

    Virtual:

      43A      0.131020    44A      0.156458    45A      0.174075
      46A      0.180413    47A      0.191552    48A      0.212736
      49A      0.219759    50A      0.226793    51A      0.238537
      52A      0.256754    53A      0.266733    54A      0.268494
      55A      0.276830    56A      0.278370    57A      0.293903
      58A      0.304726    59A      0.327319    60A      0.343178
      61A      0.368292    62A      0.385519    63A      0.391868
      64A      0.426146    65A      0.433300    66A      0.452034
      67A      0.495441    68A      0.499340    69A      0.511916
      70A      0.573192    71A      0.606245    72A      0.609219
      73A      0.619302    74A      0.627677    75A      0.632098
      76A      0.646219    77A      0.656158    78A      0.687350
      79A      0.699801    80A      0.711973    81A      0.719802
      82A      0.733421    83A      0.742911    84A      0.766549
      85A      0.772797    86A      0.780328    87A      0.784528
      88A      0.787112    89A      0.793505    90A      0.815070
      91A      0.831049    92A      0.845557    93A      0.847520
      94A      0.873103    95A      0.884268    96A      0.888564
      97A      0.892570    98A      0.896268    99A      0.901734
     100A      0.902387   101A      0.907322   102A      0.912460
     103A      0.917485   104A      0.925906   105A      0.937647
     106A      0.943890   107A      0.946460   108A      0.952928
     109A      0.964759   110A      0.985129   111A      0.991755
     112A      1.034646   113A      1.055698   114A      1.081143
     115A      1.109423   116A      1.122928   117A      1.139718
     118A      1.148253   119A      1.160552   120A      1.191149
     121A      1.214649   122A      1.222555   123A      1.242642
     124A      1.261847   125A      1.286475   126A      1.289939
     127A      1.298340   128A      1.311819   129A      1.331143
     130A      1.362898   131A      1.378015   132A      1.385560
     133A      1.417755   134A      1.472042   135A      1.483676
     136A      1.502607   137A      1.512846   138A      1.529912
     139A      1.565453   140A      1.566967   141A      1.616931
     142A      1.619659   143A      1.652203   144A      1.671812
     145A      1.677248   146A      1.691200   147A      1.695984
     148A      1.700842   149A      1.730038   150A      1.748234
     151A      1.787153   152A      1.807247   153A      1.811544
     154A      1.861868   155A      1.863577   156A      1.880979
     157A      1.883373   158A      1.889188   159A      1.891627
     160A      1.902395   161A      1.910137   162A      1.920067
     163A      1.927346   164A      1.937281   165A      1.944545
     166A      1.954309   167A      1.965313   168A      1.968524
     169A      1.979367   170A      1.987024   171A      1.994177
     172A      1.996292   173A      2.005593   174A      2.016156
     175A      2.035839   176A      2.039531   177A      2.061525
     178A      2.068612   179A      2.079156   180A      2.089685
     181A      2.124830   182A      2.141935   183A      2.166404
     184A      2.168041   185A      2.188649   186A      2.204747
     187A      2.238733   188A      2.260596   189A      2.284146
     190A      2.288786   191A      2.297107   192A      2.313866
     193A      2.339221   194A      2.349428   195A      2.365043
     196A      2.382434   197A      2.401707   198A      2.460694
     199A      2.481358   200A      2.505296   201A      2.508676
     202A      2.524888   203A      2.533462   204A      2.561126
     205A      2.591550   206A      2.612449   207A      2.619186
     208A      2.638918   209A      2.643041   210A      2.751262
     211A      2.756751   212A      2.761136   213A      2.774211
     214A      2.792585   215A      2.798013   216A      2.808171
     217A      2.832932   218A      2.841737   219A      2.899184
     220A      2.918073   221A      2.958625   222A      2.975947
     223A      2.989134   224A      3.014488   225A      3.073961
     226A      3.096521   227A      3.118137   228A      3.249131
     229A      3.302362   230A      3.344259   231A      3.575412
     232A      3.673688   233A      3.966549   234A      4.190757

    Final Occupation by Irrep:
              A
    DOCC [    42 ]

  @RHF Final Energy:  -462.88988089690088

   => Energetics <=

    Nuclear Repulsion Energy =            568.4597167457895921
    One-Electron Energy =               -1754.4439307292193462
    Two-Electron Energy =                 723.0943330865288772
    Total Energy =                       -462.8898808969008769

Computation Completed

Properties will be evaluated at   0.000000,   0.000000,   0.000000 [a0]

Properties computed using the SCF density matrix

  Nuclear Dipole Moment: [e a0]
     X:    10.3869      Y:     1.0409      Z:    12.4436

  Electronic Dipole Moment: [e a0]
     X:   -10.7971      Y:    -1.3066      Z:   -12.7799

  Dipole Moment: [e a0]
     X:    -0.4102      Y:    -0.2657      Z:    -0.3363     Total:     0.5933

  Dipole Moment: [D]
     X:    -1.0427      Y:    -0.6753      Z:    -0.8548     Total:     1.5080

*** tstop() called on ds3 at Mon Apr 27 01:19:00 2020
Module time:
	user time   =     122.14 seconds =       2.04 minutes
	system time =      53.46 seconds =       0.89 minutes
	total time  =        170 seconds =       2.83 minutes
Total time:
	user time   =     122.14 seconds =       2.04 minutes
	system time =      53.46 seconds =       0.89 minutes
	total time  =        170 seconds =       2.83 minutes
                                     G D M A

                                 by Anthony Stone

                           version 2.2.06, 22 June 2011

               Distributed Multipoles from Gaussian wavefunctions

Starting at 1:19:0 on 27 Apr 2020

Using SCF density matrix from file ./SSI/SSI-012LEU-088TYR-1-dimer.test.12215.fchk

                         Distributed Multipole Analysis

Standard DMA

Positions and radii in angstrom
Multipole moments in atomic units, ea_0^k for rank k

C          x =  2.359686  y =  1.246638  z =  1.945002 angstrom
           Maximum rank =  0   Radius =  0.650 angstrom
                   Q00  =  -0.084974

C          x =  3.558686  y =  0.370638  z =  2.277002 angstrom
           Maximum rank =  0   Radius =  0.650 angstrom
                   Q00  =  -0.199129

C          x =  2.461686  y =  2.708638  z =  2.407002 angstrom
           Maximum rank =  0   Radius =  0.650 angstrom
                   Q00  =  -0.250361

H          x =  2.270686  y =  1.244638  z =  0.865002 angstrom
           Maximum rank =  0   Radius =  0.325 angstrom
                   Q00  =   0.044566

H          x =  1.457686  y =  0.807638  z =  2.372002 angstrom
           Maximum rank =  0   Radius =  0.325 angstrom
                   Q00  =   0.039874

H          x =  3.699686  y =  0.388638  z =  3.358002 angstrom
           Maximum rank =  0   Radius =  0.325 angstrom
                   Q00  =   0.071202

H          x =  3.312686  y =  3.175638  z =  1.930002 angstrom
           Maximum rank =  0   Radius =  0.325 angstrom
                   Q00  =   0.078688

H          x =  4.447266  y =  0.774952  z =  1.770101 angstrom
           Maximum rank =  0   Radius =  0.325 angstrom
                   Q00  =   0.068491

H          x =  3.336436  y = -0.678350  z =  2.031587 angstrom
           Maximum rank =  0   Radius =  0.325 angstrom
                   Q00  =   0.071928

H          x =  1.562516  y =  3.250448  z =  2.078459 angstrom
           Maximum rank =  0   Radius =  0.325 angstrom
                   Q00  =   0.086212

H          x =  2.581346  y =  2.797489  z =  3.496858 angstrom
           Maximum rank =  0   Radius =  0.325 angstrom
                   Q00  =   0.078151

C          x = -1.912314  y = -3.065362  z =  0.470002 angstrom
           Maximum rank =  0   Radius =  0.650 angstrom
                   Q00  =  -0.195970

C          x = -0.252314  y =  0.272638  z = -0.299998 angstrom
           Maximum rank =  0   Radius =  0.650 angstrom
                   Q00  =  -0.070422

C          x = -0.783314  y =  0.573638  z = -1.544998 angstrom
           Maximum rank =  0   Radius =  0.650 angstrom
                   Q00  =   0.308175

C          x = -0.579314  y = -0.918362  z =  0.350002 angstrom
           Maximum rank =  0   Radius =  0.650 angstrom
                   Q00  =  -0.049439

C          x = -1.472314  y = -1.813362  z = -0.240998 angstrom
           Maximum rank =  0   Radius =  0.650 angstrom
                   Q00  =  -0.141422

C          x = -1.704314  y = -0.300362  z = -2.116998 angstrom
           Maximum rank =  0   Radius =  0.650 angstrom
                   Q00  =  -0.190402

C          x = -2.049314  y = -1.475362  z = -1.459998 angstrom
           Maximum rank =  0   Radius =  0.650 angstrom
                   Q00  =   0.059794

O          x = -0.418314  y =  1.731638  z = -2.176998 angstrom
           Maximum rank =  0   Radius =  0.650 angstrom
                   Q00  =  -0.692537

H          x =  0.385686  y =  0.994638  z =  0.163002 angstrom
           Maximum rank =  0   Radius =  0.325 angstrom
                   Q00  =   0.071807

H          x = -0.154314  y = -1.138362  z =  1.321002 angstrom
           Maximum rank =  0   Radius =  0.325 angstrom
                   Q00  =   0.063010

H          x = -2.149314  y = -0.068362  z = -3.073998 angstrom
           Maximum rank =  0   Radius =  0.325 angstrom
                   Q00  =   0.071150

H          x = -0.858314  y =  1.821638  z = -3.030998 angstrom
           Maximum rank =  0   Radius =  0.325 angstrom
                   Q00  =   0.405297

H          x = -1.268314  y = -3.255362  z =  1.331002 angstrom
           Maximum rank =  0   Radius =  0.325 angstrom
                   Q00  =   0.097029

H          x = -1.820314  y = -3.907362  z = -0.216998 angstrom
           Maximum rank =  0   Radius =  0.325 angstrom
                   Q00  =   0.096211

H          x = -2.766314  y = -2.142362  z = -1.914998 angstrom
           Maximum rank =  0   Radius =  0.325 angstrom
                   Q00  =   0.065055

H          x = -2.955247  y = -2.964085  z =  0.804717 angstrom
           Maximum rank =  0   Radius =  0.325 angstrom
                   Q00  =   0.098018

Total multipoles referred to origin at
           x =   0.000000,  y =    0.000000,  z =    0.000000 angstrom
                   Q00  =  -0.000000

Finished at 1:19:0 on 27 Apr 2020

  DMA results are available in the Python driver through the
	  variable('DMA DISTRIBUTED MULTIPOLES')
  and
	  variable('DMA TOTAL MULTIPOLES')
  commands.

    Psi4 stopped on: Monday, 27 April 2020 01:19AM
    Psi4 wall time for execution: 0:02:49.17

*** Psi4 exiting successfully. Buy a developer a beer!
