                               Psi4 1.3.2 release

  ==> Input File <==

--------------------------------------------------------------------------
import numpy as np
set {scf_type pk
basis cc-pvdz
d_convergence 10
gdma_switch   0
gdma_limit    0
gdma_origin   [ 0.0,  0.0,  0.0 ]
}
molecule test {
    units Angstrom
    -1 1
    --
    -1 1
    C                4.096321572045476     1.046182144034660    -0.147446015894514
    C                0.750321572045476     1.201182144034660     1.267553984105485
    C                1.664321572045476     0.178182144034660    -0.452446015894514
    C                2.637321572045475     0.895182144034660     0.174553984105486
    N                0.497321572045476     0.391182144034660     0.244553984105486
    N                2.039321572045476     1.530182144034660     1.244553984105486
    H               -0.431678427954524     0.052182144034660    -0.004446015894514
    H                0.016321572045476     1.560182144034660     1.982553984105485
    H                1.790321572045476    -0.456817855965340    -1.318446015894515
    H                4.654321572045475     0.271182144034660     0.377553984105486
    H                4.431321572045475     2.014182144034660     0.228553984105486
    H                4.321411572045476     0.984139144034660    -1.222386015894515
    C               -1.869678427954524    -2.172817855965340    -1.138446015894515
    C               -2.765678427954525    -1.152817855965340    -0.488446015894514
    O               -2.434678427954524     0.045182144034660    -0.578446015894514
    O               -3.793678427954525    -1.543817855965340     0.105553984105486
    H               -2.116678427954524    -3.170817855965340    -0.772446015894514
    H               -0.834678427954524    -1.944817855965340    -0.878446015894514
    H               -1.961805427954524    -2.162657855965340    -2.234536015894515

}
e, wfn = energy('scf', return_wfn=True)
gdma(wfn)
dmavals = variable('DMA DISTRIBUTED MULTIPOLES')
charges = np.array(dmavals)
print(charges)
np.save('SSI-017HIE-033ASP-1-dimer.npy', np.array(charges))--------------------------------------------------------------------------

*** tstart() called on ds3
*** at Tue Apr 28 15:45:49 2020

   => Loading Basis Set <=

    Name: CC-PVDZ
    Role: ORBITAL
    Keyword: BASIS
    atoms 1-4, 13-14  entry C          line   138 file /theoryfs2/ds/metcalf/miniconda2/envs/tf2gpu/share/psi4/basis/cc-pvdz.gbs
    atoms 5-6         entry N          line   168 file /theoryfs2/ds/metcalf/miniconda2/envs/tf2gpu/share/psi4/basis/cc-pvdz.gbs
    atoms 7-12, 17-19 entry H          line    22 file /theoryfs2/ds/metcalf/miniconda2/envs/tf2gpu/share/psi4/basis/cc-pvdz.gbs
    atoms 15-16       entry O          line   198 file /theoryfs2/ds/metcalf/miniconda2/envs/tf2gpu/share/psi4/basis/cc-pvdz.gbs

         ---------------------------------------------------------
                                   SCF
               by Justin Turney, Rob Parrish, Andy Simmonett
                          and Daniel G. A. Smith
                              RHF Reference
                        1 Threads,    500 MiB Core
         ---------------------------------------------------------

  ==> Geometry <==

    Molecular point group: c1
    Full point group: C1

    Geometry (in Angstrom), charge = -1, multiplicity = 1:

       Center              X                  Y                   Z               Mass
    ------------   -----------------  -----------------  -----------------  -----------------
         C            4.096321572045     1.046182144035    -0.147446015895    12.000000000000
         C            0.750321572045     1.201182144035     1.267553984105    12.000000000000
         C            1.664321572045     0.178182144035    -0.452446015895    12.000000000000
         C            2.637321572045     0.895182144035     0.174553984105    12.000000000000
         N            0.497321572045     0.391182144035     0.244553984105    14.003074004430
         N            2.039321572045     1.530182144035     1.244553984105    14.003074004430
         H           -0.431678427955     0.052182144035    -0.004446015895     1.007825032230
         H            0.016321572045     1.560182144035     1.982553984105     1.007825032230
         H            1.790321572045    -0.456817855965    -1.318446015895     1.007825032230
         H            4.654321572045     0.271182144035     0.377553984105     1.007825032230
         H            4.431321572045     2.014182144035     0.228553984105     1.007825032230
         H            4.321411572045     0.984139144035    -1.222386015895     1.007825032230
         C           -1.869678427955    -2.172817855965    -1.138446015895    12.000000000000
         C           -2.765678427955    -1.152817855965    -0.488446015895    12.000000000000
         O           -2.434678427955     0.045182144035    -0.578446015895    15.994914619570
         O           -3.793678427955    -1.543817855965     0.105553984105    15.994914619570
         H           -2.116678427955    -3.170817855965    -0.772446015895     1.007825032230
         H           -0.834678427955    -1.944817855965    -0.878446015895     1.007825032230
         H           -1.961805427955    -2.162657855965    -2.234536015895     1.007825032230

  Running in c1 symmetry.

  Rotational constants: A =      0.12193  B =      0.01536  C =      0.01415 [cm^-1]
  Rotational constants: A =   3655.25828  B =    460.49512  C =    424.24803 [MHz]
  Nuclear repulsion =  481.122358757750760

  Charge       = -1
  Multiplicity = 1
  Electrons    = 76
  Nalpha       = 38
  Nbeta        = 38

  ==> Algorithm <==

  SCF Algorithm Type is PK.
  DIIS enabled.
  MOM disabled.
  Fractional occupation disabled.
  Guess Type is SAD.
  Energy threshold   = 1.00e-06
  Density threshold  = 1.00e-10
  Integral threshold = 0.00e+00

  ==> Primary Basis <==

  Basis Set: CC-PVDZ
    Blend: CC-PVDZ
    Number of shells: 87
    Number of basis function: 185
    Number of Cartesian functions: 195
    Spherical Harmonics?: true
    Max angular momentum: 2

  ==> Pre-Iterations <==

   -------------------------------------------------------
    Irrep   Nso     Nmo     Nalpha   Nbeta   Ndocc  Nsocc
   -------------------------------------------------------
     A        185     185       0       0       0       0
   -------------------------------------------------------
    Total     185     185      38      38      38       0
   -------------------------------------------------------

  ==> Integral Setup <==

  Using integral reordering PK algorithm.
  Sizing the integral batches needed.
  Building batch lookup table.
   Calculation information:
      Number of atoms:                  19
      Number of AO shells:              87
      Number of primitives:            265
      Number of atomic orbitals:       195
      Number of basis functions:       185

      Integral cutoff                 1.00e-12
      Number of threads:                 1

	Batch   1 pq = [       0,    9405] index = [             0,44231715] size =     44231715
	Batch   2 pq = [    9405,   13301] index = [      44231715,88464951] size =     44233236
	Batch   3 pq = [   13301,   16290] index = [      88464951,132690195] size =     44225244
	Batch   4 pq = [   16290,   17205] index = [     132690195,148014615] size =     15324420
  Task number: 14
  Buffer size: 11059200
  Buffer per thread: 2
  We computed 5437429 shell quartets total.
  Whereas there are 7328706 unique shell quartets.

  ==> DiskJK: Disk-Based J/K Matrices <==

    J tasked:                  Yes
    K tasked:                  Yes
    wK tasked:                  No
    Memory [MiB]:              375
    Schwarz Cutoff:          1E-12

    OpenMP threads:              1

  Minimum eigenvalue in the overlap matrix is 1.1881897716E-03.
  Using Symmetric Orthogonalization.

  SCF Guess: Superposition of Atomic Densities via on-the-fly atomic UHF.

  ==> Iterations <==

                        Total Energy        Delta E     RMS |[F,P]|

   @RHF iter SAD:  -489.77152836323597   -4.89772e+02   0.00000e+00
   @RHF iter   1:  -490.83866049999176   -1.06713e+00   4.16953e-03 DIIS
   @RHF iter   2:  -491.06577910851189   -2.27119e-01   2.38245e-03 DIIS
   @RHF iter   3:  -491.13854434194968   -7.27652e-02   4.03458e-04 DIIS
   @RHF iter   4:  -491.14200383576394   -3.45949e-03   1.59605e-04 DIIS
   @RHF iter   5:  -491.14254937566989   -5.45540e-04   3.47243e-05 DIIS
   @RHF iter   6:  -491.14257737066202   -2.79950e-05   1.45207e-05 DIIS
   @RHF iter   7:  -491.14258276091198   -5.39025e-06   3.62536e-06 DIIS
   @RHF iter   8:  -491.14258355733324   -7.96421e-07   1.83327e-06 DIIS
   @RHF iter   9:  -491.14258375452130   -1.97188e-07   7.47330e-07 DIIS
   @RHF iter  10:  -491.14258379462547   -4.01042e-08   2.12713e-07 DIIS
   @RHF iter  11:  -491.14258379740630   -2.78084e-09   6.25931e-08 DIIS
   @RHF iter  12:  -491.14258379753721   -1.30910e-10   3.35436e-08 DIIS
   @RHF iter  13:  -491.14258379757547   -3.82556e-11   1.18018e-08 DIIS
   @RHF iter  14:  -491.14258379757831   -2.84217e-12   3.74495e-09 DIIS
   @RHF iter  15:  -491.14258379757888   -5.68434e-13   1.59304e-09 DIIS
   @RHF iter  16:  -491.14258379757973   -8.52651e-13   5.71250e-10 DIIS
   @RHF iter  17:  -491.14258379758007   -3.41061e-13   2.35779e-10 DIIS
   @RHF iter  18:  -491.14258379758081   -7.38964e-13   6.62464e-11 DIIS
  Energy and wave function converged.

  ==> Post-Iterations <==

    Orbital Energies [Eh]
    ---------------------

    Doubly Occupied:

       1A    -20.289752     2A    -20.280556     3A    -15.486639
       4A    -15.416124     5A    -11.174009     6A    -11.138088
       7A    -11.137104     8A    -11.136591     9A    -11.132972
      10A    -11.069164    11A     -1.218213    12A     -1.177775
      13A     -1.064067    14A     -1.032637    15A     -0.923519
      16A     -0.837315    17A     -0.820386    18A     -0.692701
      19A     -0.646465    20A     -0.622413    21A     -0.525406
      22A     -0.499241    23A     -0.493413    24A     -0.481018
      25A     -0.450594    26A     -0.441606    27A     -0.433931
      28A     -0.432766    29A     -0.427580    30A     -0.422548
      31A     -0.365377    32A     -0.328418    33A     -0.300970
      34A     -0.260983    35A     -0.209731    36A     -0.197126
      37A     -0.196489    38A     -0.187789

    Virtual:

      39A      0.284951    40A      0.302377    41A      0.313835
      42A      0.326527    43A      0.334096    44A      0.348313
      45A      0.359702    46A      0.381815    47A      0.389572
      48A      0.406591    49A      0.456583    50A      0.462379
      51A      0.495588    52A      0.512519    53A      0.534806
      54A      0.566679    55A      0.585953    56A      0.627651
      57A      0.676654    58A      0.711725    59A      0.732823
      60A      0.742508    61A      0.749133    62A      0.781931
      63A      0.802606    64A      0.812433    65A      0.829788
      66A      0.837564    67A      0.868811    68A      0.872587
      69A      0.888133    70A      0.922858    71A      0.934838
      72A      0.950594    73A      0.958195    74A      0.962497
      75A      0.978546    76A      1.001399    77A      1.005241
      78A      1.012968    79A      1.019237    80A      1.039014
      81A      1.051665    82A      1.072383    83A      1.084452
      84A      1.090686    85A      1.123250    86A      1.174199
      87A      1.189268    88A      1.205705    89A      1.212659
      90A      1.238346    91A      1.255517    92A      1.277464
      93A      1.284296    94A      1.309655    95A      1.340004
      96A      1.362008    97A      1.385476    98A      1.410728
      99A      1.413294   100A      1.441178   101A      1.453518
     102A      1.525395   103A      1.549263   104A      1.553704
     105A      1.558577   106A      1.568466   107A      1.586042
     108A      1.605567   109A      1.627052   110A      1.652097
     111A      1.675675   112A      1.715872   113A      1.728909
     114A      1.742948   115A      1.778529   116A      1.812726
     117A      1.822957   118A      1.826915   119A      1.859570
     120A      1.898627   121A      1.927398   122A      1.953660
     123A      1.959000   124A      2.003106   125A      2.017565
     126A      2.035890   127A      2.039167   128A      2.054475
     129A      2.066101   130A      2.084599   131A      2.092951
     132A      2.096950   133A      2.126439   134A      2.140770
     135A      2.170422   136A      2.193900   137A      2.210037
     138A      2.271494   139A      2.286374   140A      2.317128
     141A      2.321417   142A      2.338731   143A      2.345552
     144A      2.383546   145A      2.419701   146A      2.440838
     147A      2.451614   148A      2.477604   149A      2.534062
     150A      2.544926   151A      2.583061   152A      2.619453
     153A      2.658990   154A      2.670262   155A      2.716631
     156A      2.729448   157A      2.757753   158A      2.797606
     159A      2.826038   160A      2.854561   161A      2.890658
     162A      2.899223   163A      2.925006   164A      2.941843
     165A      2.952663   166A      2.966700   167A      2.976325
     168A      3.025139   169A      3.036934   170A      3.096813
     171A      3.183009   172A      3.227285   173A      3.247563
     174A      3.278110   175A      3.284150   176A      3.336978
     177A      3.346090   178A      3.582914   179A      3.610635
     180A      3.773929   181A      3.820021   182A      3.920861
     183A      4.039582   184A      4.078105   185A      4.179207

    Final Occupation by Irrep:
              A
    DOCC [    38 ]

  @RHF Final Energy:  -491.14258379758081

   => Energetics <=

    Nuclear Repulsion Energy =            481.1223587577507601
    One-Electron Energy =               -1636.6269348775551862
    Two-Electron Energy =                 664.3619923222235002
    Total Energy =                       -491.1425837975808690

Computation Completed

Properties will be evaluated at   0.000000,   0.000000,   0.000000 [a0]

Properties computed using the SCF density matrix

  Nuclear Dipole Moment: [e a0]
     X:     9.2145      Y:    -2.6876      Z:    -3.6084

  Electronic Dipole Moment: [e a0]
     X:    -5.1907      Y:     2.9223      Z:     3.1940

  Dipole Moment: [e a0]
     X:     4.0238      Y:     0.2347      Z:    -0.4144     Total:     4.0519

  Dipole Moment: [D]
     X:    10.2275      Y:     0.5965      Z:    -1.0534     Total:    10.2988

*** tstop() called on ds3 at Tue Apr 28 15:48:21 2020
Module time:
	user time   =      46.62 seconds =       0.78 minutes
	system time =      20.11 seconds =       0.34 minutes
	total time  =        152 seconds =       2.53 minutes
Total time:
	user time   =      46.62 seconds =       0.78 minutes
	system time =      20.11 seconds =       0.34 minutes
	total time  =        152 seconds =       2.53 minutes
                                     G D M A

                                 by Anthony Stone

                           version 2.2.06, 22 June 2011

               Distributed Multipoles from Gaussian wavefunctions

Starting at 15:48:21 on 28 Apr 2020

Using SCF density matrix from file ./SSI/SSI-017HIE-033ASP-1-dimer.test.14013.fchk

                         Distributed Multipole Analysis

Standard DMA

Positions and radii in angstrom
Multipole moments in atomic units, ea_0^k for rank k

C          x =  4.096322  y =  1.046182  z = -0.147446 angstrom
           Maximum rank =  0   Radius =  0.650 angstrom
                   Q00  =  -0.197800

C          x =  0.750322  y =  1.201182  z =  1.267554 angstrom
           Maximum rank =  0   Radius =  0.650 angstrom
                   Q00  =   0.477334

C          x =  1.664322  y =  0.178182  z = -0.452446 angstrom
           Maximum rank =  0   Radius =  0.650 angstrom
                   Q00  =   0.040127

C          x =  2.637322  y =  0.895182  z =  0.174554 angstrom
           Maximum rank =  0   Radius =  0.650 angstrom
                   Q00  =   0.192265

N          x =  0.497322  y =  0.391182  z =  0.244554 angstrom
           Maximum rank =  0   Radius =  0.650 angstrom
                   Q00  =  -0.479623

N          x =  2.039322  y =  1.530182  z =  1.244554 angstrom
           Maximum rank =  0   Radius =  0.650 angstrom
                   Q00  =  -0.797959

H          x = -0.431678  y =  0.052182  z = -0.004446 angstrom
           Maximum rank =  0   Radius =  0.325 angstrom
                   Q00  =   0.256226

H          x =  0.016322  y =  1.560182  z =  1.982554 angstrom
           Maximum rank =  0   Radius =  0.325 angstrom
                   Q00  =   0.120485

H          x =  1.790322  y = -0.456818  z = -1.318446 angstrom
           Maximum rank =  0   Radius =  0.325 angstrom
                   Q00  =   0.079481

H          x =  4.654322  y =  0.271182  z =  0.377554 angstrom
           Maximum rank =  0   Radius =  0.325 angstrom
                   Q00  =   0.086727

H          x =  4.431322  y =  2.014182  z =  0.228554 angstrom
           Maximum rank =  0   Radius =  0.325 angstrom
                   Q00  =   0.103307

H          x =  4.321412  y =  0.984139  z = -1.222386 angstrom
           Maximum rank =  0   Radius =  0.325 angstrom
                   Q00  =   0.083460

C          x = -1.869678  y = -2.172818  z = -1.138446 angstrom
           Maximum rank =  0   Radius =  0.650 angstrom
                   Q00  =  -0.274326

C          x = -2.765678  y = -1.152818  z = -0.488446 angstrom
           Maximum rank =  0   Radius =  0.650 angstrom
                   Q00  =   0.953467

O          x = -2.434678  y =  0.045182  z = -0.578446 angstrom
           Maximum rank =  0   Radius =  0.650 angstrom
                   Q00  =  -0.919426

O          x = -3.793678  y = -1.543818  z =  0.105554 angstrom
           Maximum rank =  0   Radius =  0.650 angstrom
                   Q00  =  -0.919408

H          x = -2.116678  y = -3.170818  z = -0.772446 angstrom
           Maximum rank =  0   Radius =  0.325 angstrom
                   Q00  =   0.062149

H          x = -0.834678  y = -1.944818  z = -0.878446 angstrom
           Maximum rank =  0   Radius =  0.325 angstrom
                   Q00  =   0.050770

H          x = -1.961805  y = -2.162658  z = -2.234536 angstrom
           Maximum rank =  0   Radius =  0.325 angstrom
                   Q00  =   0.082743

Total multipoles referred to origin at
           x =   0.000000,  y =    0.000000,  z =    0.000000 angstrom
                   Q00  =  -1.000000

Finished at 15:48:21 on 28 Apr 2020

  DMA results are available in the Python driver through the
	  variable('DMA DISTRIBUTED MULTIPOLES')
  and
	  variable('DMA TOTAL MULTIPOLES')
  commands.

    Psi4 stopped on: Tuesday, 28 April 2020 03:48PM
    Psi4 wall time for execution: 0:02:31.39

*** Psi4 exiting successfully. Buy a developer a beer!
