                               Psi4 1.3.2 release

  ==> Input File <==

--------------------------------------------------------------------------
import numpy as np
set {scf_type pk
basis cc-pvdz
d_convergence 10
gdma_switch   0
gdma_limit    0
gdma_origin   [ 0.0,  0.0,  0.0 ]
}
molecule test {
    units Angstrom
    0 1
    --
    0 1
    C                0.089353672569624     1.657157098787168    -1.734811124897896
    C               -0.062646327430376     0.584157098787168    -2.817811124897896
    C                1.479353672569624     1.692157098787168    -1.135811124897896
    O                2.388353672569624     0.987157098787168    -1.574811124897896
    N                1.663353672569624     2.521157098787168    -0.127811124897896
    H               -0.089646327430376     2.649157098787168    -2.145811124897896
    H               -0.634646327430376     1.470157098787168    -0.939811124897896
    H                0.135353672569624    -0.393842901212832    -2.379811124897896
    H                0.675353672569624     0.768157098787168    -3.600811124897896
    H                2.512353672569624     2.373157098787168     0.410188875102104
    H                0.860353672569624     3.007157098787168     0.261188875102104
    H               -1.062616327430375     0.563999098787168    -3.275682124897896
    C               -2.815646327430376    -2.511842901212832     0.473188875102104
    C                0.682353672569624    -1.069842901212832     0.632188875102104
    C                0.570353672569624    -0.170842901212832     1.685188875102104
    C               -0.412646327430375    -1.831842901212832     0.242188875102104
    C               -1.633646327430376    -1.689842901212832     0.890188875102104
    C               -0.643646327430376    -0.029842901212832     2.348188875102104
    C               -1.739646327430375    -0.793842901212832     1.948188875102104
    H                1.629353672569624    -1.183842901212832     0.122188875102104
    H                1.428353672569624     0.412157098787168     1.985188875102104
    H               -0.310646327430376    -2.528842901212832    -0.575811124897896
    H               -0.742646327430376     0.668157098787168     3.168188875102104
    H               -3.302646327430375    -2.899842901212832     1.365188875102104
    H               -2.461646327430376    -3.366842901212832    -0.103811124897896
    H               -2.677646327430375    -0.685842901212832     2.473188875102104
    H               -3.555556327430375    -1.964637901212832    -0.129384124897896

}
e, wfn = energy('scf', return_wfn=True)
gdma(wfn)
dmavals = variable('DMA DISTRIBUTED MULTIPOLES')
charges = np.array(dmavals)
print(charges)
np.save('SSI-103GLN-108PHE-1-dimer.npy', np.array(charges))--------------------------------------------------------------------------

*** tstart() called on ds3
*** at Mon Apr 27 18:21:44 2020

   => Loading Basis Set <=

    Name: CC-PVDZ
    Role: ORBITAL
    Keyword: BASIS
    atoms 1-3, 13-19  entry C          line   138 file /theoryfs2/ds/metcalf/miniconda2/envs/tf2gpu/share/psi4/basis/cc-pvdz.gbs
    atoms 4           entry O          line   198 file /theoryfs2/ds/metcalf/miniconda2/envs/tf2gpu/share/psi4/basis/cc-pvdz.gbs
    atoms 5           entry N          line   168 file /theoryfs2/ds/metcalf/miniconda2/envs/tf2gpu/share/psi4/basis/cc-pvdz.gbs
    atoms 6-12, 20-27 entry H          line    22 file /theoryfs2/ds/metcalf/miniconda2/envs/tf2gpu/share/psi4/basis/cc-pvdz.gbs

         ---------------------------------------------------------
                                   SCF
               by Justin Turney, Rob Parrish, Andy Simmonett
                          and Daniel G. A. Smith
                              RHF Reference
                        1 Threads,    500 MiB Core
         ---------------------------------------------------------

  ==> Geometry <==

    Molecular point group: c1
    Full point group: C1

    Geometry (in Angstrom), charge = 0, multiplicity = 1:

       Center              X                  Y                   Z               Mass
    ------------   -----------------  -----------------  -----------------  -----------------
         C            0.089353672570     1.657157098787    -1.734811124898    12.000000000000
         C           -0.062646327430     0.584157098787    -2.817811124898    12.000000000000
         C            1.479353672570     1.692157098787    -1.135811124898    12.000000000000
         O            2.388353672570     0.987157098787    -1.574811124898    15.994914619570
         N            1.663353672570     2.521157098787    -0.127811124898    14.003074004430
         H           -0.089646327430     2.649157098787    -2.145811124898     1.007825032230
         H           -0.634646327430     1.470157098787    -0.939811124898     1.007825032230
         H            0.135353672570    -0.393842901213    -2.379811124898     1.007825032230
         H            0.675353672570     0.768157098787    -3.600811124898     1.007825032230
         H            2.512353672570     2.373157098787     0.410188875102     1.007825032230
         H            0.860353672570     3.007157098787     0.261188875102     1.007825032230
         H           -1.062616327430     0.563999098787    -3.275682124898     1.007825032230
         C           -2.815646327430    -2.511842901213     0.473188875102    12.000000000000
         C            0.682353672570    -1.069842901213     0.632188875102    12.000000000000
         C            0.570353672570    -0.170842901213     1.685188875102    12.000000000000
         C           -0.412646327430    -1.831842901213     0.242188875102    12.000000000000
         C           -1.633646327430    -1.689842901213     0.890188875102    12.000000000000
         C           -0.643646327430    -0.029842901213     2.348188875102    12.000000000000
         C           -1.739646327430    -0.793842901213     1.948188875102    12.000000000000
         H            1.629353672570    -1.183842901213     0.122188875102     1.007825032230
         H            1.428353672570     0.412157098787     1.985188875102     1.007825032230
         H           -0.310646327430    -2.528842901213    -0.575811124898     1.007825032230
         H           -0.742646327430     0.668157098787     3.168188875102     1.007825032230
         H           -3.302646327430    -2.899842901213     1.365188875102     1.007825032230
         H           -2.461646327430    -3.366842901213    -0.103811124898     1.007825032230
         H           -2.677646327430    -0.685842901213     2.473188875102     1.007825032230
         H           -3.555556327430    -1.964637901213    -0.129384124898     1.007825032230

  Running in c1 symmetry.

  Rotational constants: A =      0.04615  B =      0.01797  C =      0.01532 [cm^-1]
  Rotational constants: A =   1383.46507  B =    538.81383  C =    459.24951 [MHz]
  Nuclear repulsion =  679.641233836208585

  Charge       = 0
  Multiplicity = 1
  Electrons    = 90
  Nalpha       = 45
  Nbeta        = 45

  ==> Algorithm <==

  SCF Algorithm Type is PK.
  DIIS enabled.
  MOM disabled.
  Fractional occupation disabled.
  Guess Type is SAD.
  Energy threshold   = 1.00e-06
  Density threshold  = 1.00e-10
  Integral threshold = 0.00e+00

  ==> Primary Basis <==

  Basis Set: CC-PVDZ
    Blend: CC-PVDZ
    Number of shells: 117
    Number of basis function: 243
    Number of Cartesian functions: 255
    Spherical Harmonics?: true
    Max angular momentum: 2

  ==> Pre-Iterations <==

   -------------------------------------------------------
    Irrep   Nso     Nmo     Nalpha   Nbeta   Ndocc  Nsocc
   -------------------------------------------------------
     A        243     243       0       0       0       0
   -------------------------------------------------------
    Total     243     243      45      45      45       0
   -------------------------------------------------------

  ==> Integral Setup <==

  Using integral reordering PK algorithm.
  Sizing the integral batches needed.
  Building batch lookup table.
   Calculation information:
      Number of atoms:                  27
      Number of AO shells:             117
      Number of primitives:            339
      Number of atomic orbitals:       255
      Number of basis functions:       243

      Integral cutoff                 1.00e-12
      Number of threads:                 1

	Batch   1 pq = [       0,    9405] index = [             0,44231715] size =     44231715
	Batch   2 pq = [    9405,   13301] index = [      44231715,88464951] size =     44233236
	Batch   3 pq = [   13301,   16290] index = [      88464951,132690195] size =     44225244
	Batch   4 pq = [   16290,   18810] index = [     132690195,176917455] size =     44227260
	Batch   5 pq = [   18810,   21030] index = [     176917455,221140965] size =     44223510
	Batch   6 pq = [   21030,   23037] index = [     221140965,265363203] size =     44222238
	Batch   7 pq = [   23037,   24883] index = [     265363203,309594286] size =     44231083
	Batch   8 pq = [   24883,   26601] index = [     309594286,353819901] size =     44225615
	Batch   9 pq = [   26601,   28214] index = [     353819901,398029005] size =     44209104
	Batch  10 pq = [   28214,   29646] index = [     398029005,439457481] size =     41428476
  Task number: 40
  Buffer size: 11059200
  Buffer per thread: 2
  We computed 25537889 shell quartets total.
  Whereas there are 23829156 unique shell quartets.
     7.17 percent of shell quartets recomputed by reordering.

  ==> DiskJK: Disk-Based J/K Matrices <==

    J tasked:                  Yes
    K tasked:                  Yes
    wK tasked:                  No
    Memory [MiB]:              375
    Schwarz Cutoff:          1E-12

    OpenMP threads:              1

  Minimum eigenvalue in the overlap matrix is 3.0444016822E-04.
  Using Symmetric Orthogonalization.

  SCF Guess: Superposition of Atomic Densities via on-the-fly atomic UHF.

  ==> Iterations <==

                        Total Energy        Delta E     RMS |[F,P]|

   @RHF iter SAD:  -515.53151023155669   -5.15532e+02   0.00000e+00
   @RHF iter   1:  -516.46785880461550   -9.36349e-01   3.00308e-03 DIIS
   @RHF iter   2:  -516.72526708731937   -2.57408e-01   1.57220e-03 DIIS
   @RHF iter   3:  -516.78522247551030   -5.99554e-02   3.68746e-04 DIIS
   @RHF iter   4:  -516.78989098139857   -4.66851e-03   1.52425e-04 DIIS
   @RHF iter   5:  -516.79066877802461   -7.77797e-04   2.19477e-05 DIIS
   @RHF iter   6:  -516.79070433209063   -3.55541e-05   9.05391e-06 DIIS
   @RHF iter   7:  -516.79070989647494   -5.56438e-06   3.56373e-06 DIIS
   @RHF iter   8:  -516.79071095609686   -1.05962e-06   1.30934e-06 DIIS
   @RHF iter   9:  -516.79071110281984   -1.46723e-07   4.82712e-07 DIIS
   @RHF iter  10:  -516.79071111651467   -1.36948e-08   1.64518e-07 DIIS
   @RHF iter  11:  -516.79071111830172   -1.78704e-09   4.33451e-08 DIIS
   @RHF iter  12:  -516.79071111841699   -1.15278e-10   1.54748e-08 DIIS
   @RHF iter  13:  -516.79071111842893   -1.19371e-11   4.22508e-09 DIIS
   @RHF iter  14:  -516.79071111843382   -4.88853e-12   1.82175e-09 DIIS
   @RHF iter  15:  -516.79071111843734   -3.52429e-12   8.64972e-10 DIIS
   @RHF iter  16:  -516.79071111843587    1.47793e-12   3.15870e-10 DIIS
   @RHF iter  17:  -516.79071111843427    1.59162e-12   1.22011e-10 DIIS
   @RHF iter  18:  -516.79071111843268    1.59162e-12   4.22167e-11 DIIS
  Energy and wave function converged.

  ==> Post-Iterations <==

    Orbital Energies [Eh]
    ---------------------

    Doubly Occupied:

       1A    -20.502532     2A    -15.585219     3A    -11.339238
       4A    -11.241896     5A    -11.240000     6A    -11.234134
       7A    -11.233878     8A    -11.233088     9A    -11.232701
      10A    -11.230635    11A    -11.230366    12A    -11.215311
      13A     -1.366236    14A     -1.215581    15A     -1.156936
      16A     -1.048626    17A     -1.039781    18A     -1.014135
      19A     -0.934222    20A     -0.883688    21A     -0.827803
      22A     -0.797999    23A     -0.775964    24A     -0.718484
      25A     -0.694478    26A     -0.658430    27A     -0.634880
      28A     -0.633937    29A     -0.630688    30A     -0.585002
      31A     -0.580524    32A     -0.579429    33A     -0.566938
      34A     -0.544062    35A     -0.536549    36A     -0.518041
      37A     -0.498227    38A     -0.488472    39A     -0.487290
      40A     -0.485846    41A     -0.483669    42A     -0.408090
      43A     -0.401408    44A     -0.334523    45A     -0.325505

    Virtual:

      46A      0.131681    47A      0.137080    48A      0.162131
      49A      0.184996    50A      0.194608    51A      0.208655
      52A      0.211973    53A      0.215848    54A      0.229809
      55A      0.252608    56A      0.260506    57A      0.266713
      58A      0.272301    59A      0.273752    60A      0.282621
      61A      0.292391    62A      0.303682    63A      0.336401
      64A      0.365695    65A      0.379655    66A      0.392782
      67A      0.418141    68A      0.451060    69A      0.458783
      70A      0.475951    71A      0.492924    72A      0.499887
      73A      0.539220    74A      0.565964    75A      0.591486
      76A      0.604842    77A      0.628061    78A      0.638241
      79A      0.652366    80A      0.667804    81A      0.681541
      82A      0.698716    83A      0.701281    84A      0.714394
      85A      0.730052    86A      0.740298    87A      0.744666
      88A      0.750813    89A      0.753515    90A      0.761203
      91A      0.778920    92A      0.800984    93A      0.821713
      94A      0.829333    95A      0.829678    96A      0.843506
      97A      0.859532    98A      0.864205    99A      0.869642
     100A      0.875658   101A      0.887539   102A      0.893702
     103A      0.897606   104A      0.908660   105A      0.916766
     106A      0.919794   107A      0.932270   108A      0.936325
     109A      0.940230   110A      0.944822   111A      0.953919
     112A      0.973512   113A      0.986612   114A      1.001923
     115A      1.020192   116A      1.062265   117A      1.072734
     118A      1.081880   119A      1.084850   120A      1.119946
     121A      1.126984   122A      1.133007   123A      1.146312
     124A      1.160465   125A      1.182116   126A      1.196226
     127A      1.229385   128A      1.245522   129A      1.252715
     130A      1.263076   131A      1.284716   132A      1.293604
     133A      1.306213   134A      1.314575   135A      1.321863
     136A      1.329019   137A      1.371649   138A      1.413498
     139A      1.417494   140A      1.423249   141A      1.436587
     142A      1.491510   143A      1.503079   144A      1.521950
     145A      1.545196   146A      1.558566   147A      1.610784
     148A      1.629667   149A      1.673217   150A      1.681923
     151A      1.696034   152A      1.704026   153A      1.728611
     154A      1.745315   155A      1.763009   156A      1.767252
     157A      1.776548   158A      1.784915   159A      1.804911
     160A      1.823516   161A      1.853266   162A      1.861077
     163A      1.883915   164A      1.887953   165A      1.898369
     166A      1.907679   167A      1.914516   168A      1.922581
     169A      1.935687   170A      1.937814   171A      1.944466
     172A      1.952088   173A      1.957165   174A      1.970392
     175A      1.974443   176A      1.993105   177A      2.003414
     178A      2.011196   179A      2.018968   180A      2.034290
     181A      2.043848   182A      2.057111   183A      2.062729
     184A      2.063885   185A      2.089621   186A      2.117118
     187A      2.141235   188A      2.149062   189A      2.163719
     190A      2.169571   191A      2.175463   192A      2.188141
     193A      2.194105   194A      2.245400   195A      2.255753
     196A      2.276362   197A      2.296377   198A      2.298904
     199A      2.302134   200A      2.328817   201A      2.350430
     202A      2.355877   203A      2.361568   204A      2.419238
     205A      2.459955   206A      2.474654   207A      2.486136
     208A      2.512770   209A      2.523479   210A      2.541764
     211A      2.555705   212A      2.595225   213A      2.614906
     214A      2.629665   215A      2.681636   216A      2.741736
     217A      2.756934   218A      2.768356   219A      2.774707
     220A      2.793745   221A      2.799417   222A      2.813944
     223A      2.853940   224A      2.858118   225A      2.874165
     226A      2.903611   227A      2.923797   228A      2.962517
     229A      2.987522   230A      3.012030   231A      3.032512
     232A      3.048490   233A      3.106020   234A      3.157389
     235A      3.162905   236A      3.208869   237A      3.300735
     238A      3.306401   239A      3.484713   240A      3.549540
     241A      3.865676   242A      3.907757   243A      3.977816

    Final Occupation by Irrep:
              A
    DOCC [    45 ]

  @RHF Final Energy:  -516.79071111843268

   => Energetics <=

    Nuclear Repulsion Energy =            679.6412338362085848
    One-Electron Energy =               -2050.1150063928098461
    Two-Electron Energy =                 853.6830614381685791
    Total Energy =                       -516.7907111184326823

Computation Completed

Properties will be evaluated at   0.000000,   0.000000,   0.000000 [a0]

Properties computed using the SCF density matrix

  Nuclear Dipole Moment: [e a0]
     X:    -7.1149      Y:    -1.0447      Z:    -3.1624

  Electronic Dipole Moment: [e a0]
     X:     6.0032      Y:     1.7669      Z:     3.9995

  Dipole Moment: [e a0]
     X:    -1.1117      Y:     0.7222      Z:     0.8371     Total:     1.5679

  Dipole Moment: [D]
     X:    -2.8256      Y:     1.8357      Z:     2.1278     Total:     3.9852

*** tstop() called on ds3 at Mon Apr 27 18:27:54 2020
Module time:
	user time   =     193.39 seconds =       3.22 minutes
	system time =      65.21 seconds =       1.09 minutes
	total time  =        370 seconds =       6.17 minutes
Total time:
	user time   =     193.39 seconds =       3.22 minutes
	system time =      65.21 seconds =       1.09 minutes
	total time  =        370 seconds =       6.17 minutes
                                     G D M A

                                 by Anthony Stone

                           version 2.2.06, 22 June 2011

               Distributed Multipoles from Gaussian wavefunctions

Starting at 18:27:54 on 27 Apr 2020

Using SCF density matrix from file ./SSI/SSI-103GLN-108PHE-1-dimer.test.19132.fchk

                         Distributed Multipole Analysis

Standard DMA

Positions and radii in angstrom
Multipole moments in atomic units, ea_0^k for rank k

C          x =  0.089354  y =  1.657157  z = -1.734811 angstrom
           Maximum rank =  0   Radius =  0.650 angstrom
                   Q00  =  -0.195106

C          x = -0.062646  y =  0.584157  z = -2.817811 angstrom
           Maximum rank =  0   Radius =  0.650 angstrom
                   Q00  =  -0.204942

C          x =  1.479354  y =  1.692157  z = -1.135811 angstrom
           Maximum rank =  0   Radius =  0.650 angstrom
                   Q00  =   0.892264

O          x =  2.388354  y =  0.987157  z = -1.574811 angstrom
           Maximum rank =  0   Radius =  0.650 angstrom
                   Q00  =  -0.826243

N          x =  1.663354  y =  2.521157  z = -0.127811 angstrom
           Maximum rank =  0   Radius =  0.650 angstrom
                   Q00  =  -0.553449

H          x = -0.089646  y =  2.649157  z = -2.145811 angstrom
           Maximum rank =  0   Radius =  0.325 angstrom
                   Q00  =   0.090516

H          x = -0.634646  y =  1.470157  z = -0.939811 angstrom
           Maximum rank =  0   Radius =  0.325 angstrom
                   Q00  =   0.093280

H          x =  0.135354  y = -0.393843  z = -2.379811 angstrom
           Maximum rank =  0   Radius =  0.325 angstrom
                   Q00  =   0.102330

H          x =  0.675354  y =  0.768157  z = -3.600811 angstrom
           Maximum rank =  0   Radius =  0.325 angstrom
                   Q00  =   0.102614

H          x =  2.512354  y =  2.373157  z =  0.410189 angstrom
           Maximum rank =  0   Radius =  0.325 angstrom
                   Q00  =   0.216298

H          x =  0.860354  y =  3.007157  z =  0.261189 angstrom
           Maximum rank =  0   Radius =  0.325 angstrom
                   Q00  =   0.208003

H          x = -1.062616  y =  0.563999  z = -3.275682 angstrom
           Maximum rank =  0   Radius =  0.325 angstrom
                   Q00  =   0.078030

C          x = -2.815646  y = -2.511843  z =  0.473189 angstrom
           Maximum rank =  0   Radius =  0.650 angstrom
                   Q00  =  -0.198209

C          x =  0.682354  y = -1.069843  z =  0.632189 angstrom
           Maximum rank =  0   Radius =  0.650 angstrom
                   Q00  =  -0.050074

C          x =  0.570354  y = -0.170843  z =  1.685189 angstrom
           Maximum rank =  0   Radius =  0.650 angstrom
                   Q00  =  -0.102485

C          x = -0.412646  y = -1.831843  z =  0.242189 angstrom
           Maximum rank =  0   Radius =  0.650 angstrom
                   Q00  =  -0.088771

C          x = -1.633646  y = -1.689843  z =  0.890189 angstrom
           Maximum rank =  0   Radius =  0.650 angstrom
                   Q00  =  -0.100786

C          x = -0.643646  y = -0.029843  z =  2.348189 angstrom
           Maximum rank =  0   Radius =  0.650 angstrom
                   Q00  =  -0.076136

C          x = -1.739646  y = -0.793843  z =  1.948189 angstrom
           Maximum rank =  0   Radius =  0.650 angstrom
                   Q00  =  -0.001091

H          x =  1.629354  y = -1.183843  z =  0.122189 angstrom
           Maximum rank =  0   Radius =  0.325 angstrom
                   Q00  =   0.084000

H          x =  1.428354  y =  0.412157  z =  1.985189 angstrom
           Maximum rank =  0   Radius =  0.325 angstrom
                   Q00  =   0.052108

H          x = -0.310646  y = -2.528843  z = -0.575811 angstrom
           Maximum rank =  0   Radius =  0.325 angstrom
                   Q00  =   0.060790

H          x = -0.742646  y =  0.668157  z =  3.168189 angstrom
           Maximum rank =  0   Radius =  0.325 angstrom
                   Q00  =   0.061462

H          x = -3.302646  y = -2.899843  z =  1.365189 angstrom
           Maximum rank =  0   Radius =  0.325 angstrom
                   Q00  =   0.099476

H          x = -2.461646  y = -3.366843  z = -0.103811 angstrom
           Maximum rank =  0   Radius =  0.325 angstrom
                   Q00  =   0.098011

H          x = -2.677646  y = -0.685843  z =  2.473189 angstrom
           Maximum rank =  0   Radius =  0.325 angstrom
                   Q00  =   0.054541

H          x = -3.555556  y = -1.964638  z = -0.129384 angstrom
           Maximum rank =  0   Radius =  0.325 angstrom
                   Q00  =   0.103570

Total multipoles referred to origin at
           x =   0.000000,  y =    0.000000,  z =    0.000000 angstrom
                   Q00  =  -0.000000

Finished at 18:27:54 on 27 Apr 2020

  DMA results are available in the Python driver through the
	  variable('DMA DISTRIBUTED MULTIPOLES')
  and
	  variable('DMA TOTAL MULTIPOLES')
  commands.

    Psi4 stopped on: Monday, 27 April 2020 06:27PM
    Psi4 wall time for execution: 0:06:10.18

*** Psi4 exiting successfully. Buy a developer a beer!
