                               Psi4 1.3.2 release

  ==> Input File <==

--------------------------------------------------------------------------
import numpy as np
set {scf_type pk
basis cc-pvdz
d_convergence 10
gdma_switch   0
gdma_limit    0
gdma_origin   [ 0.0,  0.0,  0.0 ]
}
molecule test {
    units Angstrom
    -1 1
    --
    -1 1
    C               -1.637191418450691     2.628880669000567    -1.423357329456090
    C               -0.896191418450691     1.815880669000567    -0.404357329456090
    O               -1.293191418450691     0.678880669000567    -0.077357329456090
    N                0.107808581549309     2.390880669000567     0.167642670543910
    H               -1.841191418450691     1.984880669000567    -2.280357329456090
    H               -1.018191418450691     3.457880669000567    -1.768357329456090
    H                0.605808581549309     1.860880669000567     0.868642670543910
    H                0.361808581549309     3.335880669000567    -0.071357329456090
    H               -2.586091418450691     3.017070669000567    -1.024737329456090
    C                1.004808581549309    -2.564119330999433    -0.838357329456090
    C                0.906808581549309    -1.860119330999433     0.502642670543910
    O               -0.173191418450691    -1.884119330999433     1.128642670543910
    O                1.923808581549310    -1.244119330999433     0.915642670543910
    H                1.013808581549309    -3.638119330999433    -0.683357329456090
    H                1.945808581549310    -2.307119330999433    -1.329357329456090
    H                0.163888581549309    -2.302359330999433    -1.497397329456090

}
e, wfn = energy('scf', return_wfn=True)
gdma(wfn)
dmavals = variable('DMA DISTRIBUTED MULTIPOLES')
charges = np.array(dmavals)
print(charges)
np.save('SSI-055GLN-272GLU-1-dimer.npy', np.array(charges))--------------------------------------------------------------------------

*** tstart() called on ds3
*** at Tue Apr 28 00:46:30 2020

   => Loading Basis Set <=

    Name: CC-PVDZ
    Role: ORBITAL
    Keyword: BASIS
    atoms 1-2, 10-11 entry C          line   138 file /theoryfs2/ds/metcalf/miniconda2/envs/tf2gpu/share/psi4/basis/cc-pvdz.gbs
    atoms 3, 12-13   entry O          line   198 file /theoryfs2/ds/metcalf/miniconda2/envs/tf2gpu/share/psi4/basis/cc-pvdz.gbs
    atoms 4          entry N          line   168 file /theoryfs2/ds/metcalf/miniconda2/envs/tf2gpu/share/psi4/basis/cc-pvdz.gbs
    atoms 5-9, 14-16 entry H          line    22 file /theoryfs2/ds/metcalf/miniconda2/envs/tf2gpu/share/psi4/basis/cc-pvdz.gbs

         ---------------------------------------------------------
                                   SCF
               by Justin Turney, Rob Parrish, Andy Simmonett
                          and Daniel G. A. Smith
                              RHF Reference
                        1 Threads,    500 MiB Core
         ---------------------------------------------------------

  ==> Geometry <==

    Molecular point group: c1
    Full point group: C1

    Geometry (in Angstrom), charge = -1, multiplicity = 1:

       Center              X                  Y                   Z               Mass
    ------------   -----------------  -----------------  -----------------  -----------------
         C           -1.637191418451     2.628880669001    -1.423357329456    12.000000000000
         C           -0.896191418451     1.815880669001    -0.404357329456    12.000000000000
         O           -1.293191418451     0.678880669001    -0.077357329456    15.994914619570
         N            0.107808581549     2.390880669001     0.167642670544    14.003074004430
         H           -1.841191418451     1.984880669001    -2.280357329456     1.007825032230
         H           -1.018191418451     3.457880669001    -1.768357329456     1.007825032230
         H            0.605808581549     1.860880669001     0.868642670544     1.007825032230
         H            0.361808581549     3.335880669001    -0.071357329456     1.007825032230
         H           -2.586091418451     3.017070669001    -1.024737329456     1.007825032230
         C            1.004808581549    -2.564119330999    -0.838357329456    12.000000000000
         C            0.906808581549    -1.860119330999     0.502642670544    12.000000000000
         O           -0.173191418451    -1.884119330999     1.128642670544    15.994914619570
         O            1.923808581549    -1.244119330999     0.915642670544    15.994914619570
         H            1.013808581549    -3.638119330999    -0.683357329456     1.007825032230
         H            1.945808581549    -2.307119330999    -1.329357329456     1.007825032230
         H            0.163888581549    -2.302359330999    -1.497397329456     1.007825032230

  Running in c1 symmetry.

  Rotational constants: A =      0.11829  B =      0.02631  C =      0.02495 [cm^-1]
  Rotational constants: A =   3546.20729  B =    788.63323  C =    747.93840 [MHz]
  Nuclear repulsion =  352.927274799990983

  Charge       = -1
  Multiplicity = 1
  Electrons    = 64
  Nalpha       = 32
  Nbeta        = 32

  ==> Algorithm <==

  SCF Algorithm Type is PK.
  DIIS enabled.
  MOM disabled.
  Fractional occupation disabled.
  Guess Type is SAD.
  Energy threshold   = 1.00e-06
  Density threshold  = 1.00e-10
  Integral threshold = 0.00e+00

  ==> Primary Basis <==

  Basis Set: CC-PVDZ
    Blend: CC-PVDZ
    Number of shells: 72
    Number of basis function: 152
    Number of Cartesian functions: 160
    Spherical Harmonics?: true
    Max angular momentum: 2

  ==> Pre-Iterations <==

   -------------------------------------------------------
    Irrep   Nso     Nmo     Nalpha   Nbeta   Ndocc  Nsocc
   -------------------------------------------------------
     A        152     152       0       0       0       0
   -------------------------------------------------------
    Total     152     152      32      32      32       0
   -------------------------------------------------------

  ==> Integral Setup <==

  Using integral reordering PK algorithm.
  Sizing the integral batches needed.
  Building batch lookup table.
   Calculation information:
      Number of atoms:                  16
      Number of AO shells:              72
      Number of primitives:            216
      Number of atomic orbitals:       160
      Number of basis functions:       152

      Integral cutoff                 1.00e-12
      Number of threads:                 1

	Batch   1 pq = [       0,    9405] index = [             0,44231715] size =     44231715
	Batch   2 pq = [    9405,   11628] index = [      44231715,67611006] size =     23379291
  Task number: 7
  Buffer size: 11059200
  Buffer per thread: 2
  We computed 2634625 shell quartets total.
  Whereas there are 3454506 unique shell quartets.

  ==> DiskJK: Disk-Based J/K Matrices <==

    J tasked:                  Yes
    K tasked:                  Yes
    wK tasked:                  No
    Memory [MiB]:              375
    Schwarz Cutoff:          1E-12

    OpenMP threads:              1

  Minimum eigenvalue in the overlap matrix is 4.2529919921E-03.
  Using Symmetric Orthogonalization.

  SCF Guess: Superposition of Atomic Densities via on-the-fly atomic UHF.

  ==> Iterations <==

                        Total Energy        Delta E     RMS |[F,P]|

   @RHF iter SAD:  -433.48440568644077   -4.33484e+02   0.00000e+00
   @RHF iter   1:  -434.86144170217898   -1.37704e+00   5.62091e-03 DIIS
   @RHF iter   2:  -435.10929479945810   -2.47853e-01   3.47778e-03 DIIS
   @RHF iter   3:  -435.20710404482026   -9.78092e-02   5.49764e-04 DIIS
   @RHF iter   4:  -435.21108089838970   -3.97685e-03   2.23795e-04 DIIS
   @RHF iter   5:  -435.21184331727829   -7.62419e-04   5.28828e-05 DIIS
   @RHF iter   6:  -435.21189339109981   -5.00738e-05   2.41703e-05 DIIS
   @RHF iter   7:  -435.21190581034227   -1.24192e-05   7.81194e-06 DIIS
   @RHF iter   8:  -435.21190794463195   -2.13429e-06   3.10672e-06 DIIS
   @RHF iter   9:  -435.21190825640855   -3.11777e-07   1.30817e-06 DIIS
   @RHF iter  10:  -435.21190830008624   -4.36777e-08   3.54588e-07 DIIS
   @RHF iter  11:  -435.21190830307478   -2.98854e-09   1.50283e-07 DIIS
   @RHF iter  12:  -435.21190830341419   -3.39412e-10   3.06236e-08 DIIS
   @RHF iter  13:  -435.21190830344432   -3.01270e-11   8.67244e-09 DIIS
   @RHF iter  14:  -435.21190830344392    3.97904e-13   2.52859e-09 DIIS
   @RHF iter  15:  -435.21190830344312    7.95808e-13   9.64946e-10 DIIS
   @RHF iter  16:  -435.21190830344381   -6.82121e-13   3.97461e-10 DIIS
   @RHF iter  17:  -435.21190830344347    3.41061e-13   1.93050e-10 DIIS
   @RHF iter  18:  -435.21190830344455   -1.08002e-12   6.01994e-11 DIIS
  Energy and wave function converged.

  ==> Post-Iterations <==

    Orbital Energies [Eh]
    ---------------------

    Doubly Occupied:

       1A    -20.368700     2A    -20.236218     3A    -20.231304
       4A    -15.471351     5A    -11.220756     6A    -11.141894
       7A    -11.092824     8A    -11.032116     9A     -1.233121
      10A     -1.122484    11A     -1.104024    12A     -1.009095
      13A     -0.898402    14A     -0.779018    15A     -0.689176
      16A     -0.618822    17A     -0.535706    18A     -0.507751
      19A     -0.480230    20A     -0.454885    21A     -0.435767
      22A     -0.410294    23A     -0.392621    24A     -0.386961
      25A     -0.379363    26A     -0.318599    27A     -0.286031
      28A     -0.273069    29A     -0.269626    30A     -0.160967
      31A     -0.146431    32A     -0.134598

    Virtual:

      33A      0.263424    34A      0.302053    35A      0.318772
      36A      0.346314    37A      0.369744    38A      0.382511
      39A      0.389056    40A      0.413788    41A      0.432445
      42A      0.487680    43A      0.506447    44A      0.585777
      45A      0.593738    46A      0.676617    47A      0.720354
      48A      0.729887    49A      0.739276    50A      0.774577
      51A      0.804150    52A      0.816870    53A      0.840143
      54A      0.856639    55A      0.881573    56A      0.886620
      57A      0.931533    58A      0.952246    59A      0.986084
      60A      0.987293    61A      1.003682    62A      1.028977
      63A      1.046835    64A      1.052959    65A      1.055184
      66A      1.073683    67A      1.095936    68A      1.114276
      69A      1.124160    70A      1.155014    71A      1.165743
      72A      1.229966    73A      1.240554    74A      1.276196
      75A      1.351199    76A      1.369075    77A      1.415846
      78A      1.447447    79A      1.486773    80A      1.504481
      81A      1.520459    82A      1.534962    83A      1.553606
      84A      1.572909    85A      1.587817    86A      1.611772
      87A      1.626805    88A      1.676613    89A      1.697563
      90A      1.709035    91A      1.746062    92A      1.762377
      93A      1.771882    94A      1.843696    95A      1.860331
      96A      1.870477    97A      1.936749    98A      1.956645
      99A      1.987920   100A      2.012726   101A      2.022519
     102A      2.051837   103A      2.077939   104A      2.089996
     105A      2.102097   106A      2.123637   107A      2.134326
     108A      2.189543   109A      2.192858   110A      2.234677
     111A      2.241104   112A      2.301414   113A      2.340010
     114A      2.371073   115A      2.400688   116A      2.452547
     117A      2.464520   118A      2.541897   119A      2.556237
     120A      2.577816   121A      2.606881   122A      2.665217
     123A      2.674466   124A      2.691447   125A      2.747297
     126A      2.761605   127A      2.802526   128A      2.840474
     129A      2.886879   130A      2.893247   131A      2.935842
     132A      2.965576   133A      2.978744   134A      3.015122
     135A      3.119335   136A      3.221316   137A      3.267198
     138A      3.268619   139A      3.300738   140A      3.321145
     141A      3.385112   142A      3.421605   143A      3.618056
     144A      3.659403   145A      3.670829   146A      3.806818
     147A      3.851345   148A      3.992096   149A      4.049243
     150A      4.080265   151A      4.106837   152A      4.214178

    Final Occupation by Irrep:
              A
    DOCC [    32 ]

  @RHF Final Energy:  -435.21190830344455

   => Energetics <=

    Nuclear Repulsion Energy =            352.9272747999909825
    One-Electron Energy =               -1308.6339564279437582
    Two-Electron Energy =                 520.4947733245082873
    Total Energy =                       -435.2119083034444884

Computation Completed

Properties will be evaluated at   0.000000,   0.000000,   0.000000 [a0]

Properties computed using the SCF density matrix

  Nuclear Dipole Moment: [e a0]
     X:    -1.2678      Y:     5.0521      Z:    -7.2904

  Electronic Dipole Moment: [e a0]
     X:     0.3806      Y:    -0.9652      Z:     5.1739

  Dipole Moment: [e a0]
     X:    -0.8872      Y:     4.0869      Z:    -2.1165     Total:     4.6871

  Dipole Moment: [D]
     X:    -2.2549      Y:    10.3878      Z:    -5.3796     Total:    11.9135

*** tstop() called on ds3 at Tue Apr 28 00:47:04 2020
Module time:
	user time   =      22.12 seconds =       0.37 minutes
	system time =      11.04 seconds =       0.18 minutes
	total time  =         34 seconds =       0.57 minutes
Total time:
	user time   =      22.12 seconds =       0.37 minutes
	system time =      11.04 seconds =       0.18 minutes
	total time  =         34 seconds =       0.57 minutes
                                     G D M A

                                 by Anthony Stone

                           version 2.2.06, 22 June 2011

               Distributed Multipoles from Gaussian wavefunctions

Starting at 0:47:4 on 28 Apr 2020

Using SCF density matrix from file ./SSI/SSI-055GLN-272GLU-1-dimer.test.28786.fchk

                         Distributed Multipole Analysis

Standard DMA

Positions and radii in angstrom
Multipole moments in atomic units, ea_0^k for rank k

C          x = -1.637191  y =  2.628881  z = -1.423357 angstrom
           Maximum rank =  0   Radius =  0.650 angstrom
                   Q00  =  -0.255333

C          x = -0.896191  y =  1.815881  z = -0.404357 angstrom
           Maximum rank =  0   Radius =  0.650 angstrom
                   Q00  =   0.806341

O          x = -1.293191  y =  0.678881  z = -0.077357 angstrom
           Maximum rank =  0   Radius =  0.650 angstrom
                   Q00  =  -0.780498

N          x =  0.107809  y =  2.390881  z =  0.167643 angstrom
           Maximum rank =  0   Radius =  0.650 angstrom
                   Q00  =  -0.494226

H          x = -1.841191  y =  1.984881  z = -2.280357 angstrom
           Maximum rank =  0   Radius =  0.325 angstrom
                   Q00  =   0.121565

H          x = -1.018191  y =  3.457881  z = -1.768357 angstrom
           Maximum rank =  0   Radius =  0.325 angstrom
                   Q00  =   0.049474

H          x =  0.605809  y =  1.860881  z =  0.868643 angstrom
           Maximum rank =  0   Radius =  0.325 angstrom
                   Q00  =   0.250393

H          x =  0.361809  y =  3.335881  z = -0.071357 angstrom
           Maximum rank =  0   Radius =  0.325 angstrom
                   Q00  =   0.180767

H          x = -2.586091  y =  3.017071  z = -1.024737 angstrom
           Maximum rank =  0   Radius =  0.325 angstrom
                   Q00  =   0.118227

C          x =  1.004809  y = -2.564119  z = -0.838357 angstrom
           Maximum rank =  0   Radius =  0.650 angstrom
                   Q00  =  -0.285811

C          x =  0.906809  y = -1.860119  z =  0.502643 angstrom
           Maximum rank =  0   Radius =  0.650 angstrom
                   Q00  =   0.994570

O          x = -0.173191  y = -1.884119  z =  1.128643 angstrom
           Maximum rank =  0   Radius =  0.650 angstrom
                   Q00  =  -0.912401

O          x =  1.923809  y = -1.244119  z =  0.915643 angstrom
           Maximum rank =  0   Radius =  0.650 angstrom
                   Q00  =  -0.965383

H          x =  1.013809  y = -3.638119  z = -0.683357 angstrom
           Maximum rank =  0   Radius =  0.325 angstrom
                   Q00  =   0.065425

H          x =  1.945809  y = -2.307119  z = -1.329357 angstrom
           Maximum rank =  0   Radius =  0.325 angstrom
                   Q00  =   0.039147

H          x =  0.163889  y = -2.302359  z = -1.497397 angstrom
           Maximum rank =  0   Radius =  0.325 angstrom
                   Q00  =   0.067743

Total multipoles referred to origin at
           x =   0.000000,  y =    0.000000,  z =    0.000000 angstrom
                   Q00  =  -1.000000

Finished at 0:47:4 on 28 Apr 2020

  DMA results are available in the Python driver through the
	  variable('DMA DISTRIBUTED MULTIPOLES')
  and
	  variable('DMA TOTAL MULTIPOLES')
  commands.

    Psi4 stopped on: Tuesday, 28 April 2020 12:47AM
    Psi4 wall time for execution: 0:00:34.33

*** Psi4 exiting successfully. Buy a developer a beer!
