                               Psi4 1.3.2 release

  ==> Input File <==

--------------------------------------------------------------------------
import numpy as np
set {scf_type pk
basis cc-pvdz
d_convergence 10
gdma_switch   0
gdma_limit    0
gdma_origin   [ 0.0,  0.0,  0.0 ]
}
molecule test {
    units Angstrom
    0 1
    --
    0 1
    C               -0.807853367843071     2.052188052530357    -2.860784840907169
    C               -0.999853367843071     0.496188052530357    -0.785784840907170
    C               -0.568853367843071     1.600188052530357    -1.451784840907170
    C                0.236146632156929     1.687188052530357     0.593215159092830
    N               -0.491853367843071     0.579188052530357     0.492215159092830
    N                0.202146632156929     2.326188052530358    -0.568784840907170
    H               -1.691853367843071    -0.250811947469643    -1.158784840907170
    H               -0.899853367843071     0.108188052530357     1.300215159092830
    H                0.160146632156929     2.256188052530358    -3.317784840907170
    H               -1.359853367843071     2.988188052530357    -2.812784840907170
    H                0.713146632156929     2.054188052530357     1.494215159092830
    H               -1.377154367843071     1.353338052530357    -3.491264840907170
    C                0.218146632156929    -2.596811947469643     1.166215159092830
    C                0.938146632156929    -3.848811947469643     1.668215159092830
    O                1.064146632156929    -1.469811947469643     1.317215159092830
    H               -0.061853367843071    -2.701811947469642     0.125215159092830
    H               -0.691853367843071    -2.442811947469643     1.745215159092830
    H                0.354146632156929    -4.727811947469643     1.421215159092830
    H                0.685146632156929    -0.712811947469643     0.846215159092830
    H                1.120092632156929    -3.759341947469643     2.749365159092831
    H                1.904000332156929    -3.944381947469643     1.150535159092830

}
e, wfn = energy('scf', return_wfn=True)
gdma(wfn)
dmavals = variable('DMA DISTRIBUTED MULTIPOLES')
charges = np.array(dmavals)
print(charges)
np.save('SSI-011HIE-304SER-1-dimer.npy', np.array(charges))--------------------------------------------------------------------------

*** tstart() called on ds3
*** at Mon Apr 27 17:42:52 2020

   => Loading Basis Set <=

    Name: CC-PVDZ
    Role: ORBITAL
    Keyword: BASIS
    atoms 1-4, 13-14  entry C          line   138 file /theoryfs2/ds/metcalf/miniconda2/envs/tf2gpu/share/psi4/basis/cc-pvdz.gbs
    atoms 5-6         entry N          line   168 file /theoryfs2/ds/metcalf/miniconda2/envs/tf2gpu/share/psi4/basis/cc-pvdz.gbs
    atoms 7-12, 16-21 entry H          line    22 file /theoryfs2/ds/metcalf/miniconda2/envs/tf2gpu/share/psi4/basis/cc-pvdz.gbs
    atoms 15          entry O          line   198 file /theoryfs2/ds/metcalf/miniconda2/envs/tf2gpu/share/psi4/basis/cc-pvdz.gbs

         ---------------------------------------------------------
                                   SCF
               by Justin Turney, Rob Parrish, Andy Simmonett
                          and Daniel G. A. Smith
                              RHF Reference
                        1 Threads,    500 MiB Core
         ---------------------------------------------------------

  ==> Geometry <==

    Molecular point group: c1
    Full point group: C1

    Geometry (in Angstrom), charge = 0, multiplicity = 1:

       Center              X                  Y                   Z               Mass
    ------------   -----------------  -----------------  -----------------  -----------------
         C           -0.807853367843     2.052188052530    -2.860784840907    12.000000000000
         C           -0.999853367843     0.496188052530    -0.785784840907    12.000000000000
         C           -0.568853367843     1.600188052530    -1.451784840907    12.000000000000
         C            0.236146632157     1.687188052530     0.593215159093    12.000000000000
         N           -0.491853367843     0.579188052530     0.492215159093    14.003074004430
         N            0.202146632157     2.326188052530    -0.568784840907    14.003074004430
         H           -1.691853367843    -0.250811947470    -1.158784840907     1.007825032230
         H           -0.899853367843     0.108188052530     1.300215159093     1.007825032230
         H            0.160146632157     2.256188052530    -3.317784840907     1.007825032230
         H           -1.359853367843     2.988188052530    -2.812784840907     1.007825032230
         H            0.713146632157     2.054188052530     1.494215159093     1.007825032230
         H           -1.377154367843     1.353338052530    -3.491264840907     1.007825032230
         C            0.218146632157    -2.596811947470     1.166215159093    12.000000000000
         C            0.938146632157    -3.848811947470     1.668215159093    12.000000000000
         O            1.064146632157    -1.469811947470     1.317215159093    15.994914619570
         H           -0.061853367843    -2.701811947470     0.125215159093     1.007825032230
         H           -0.691853367843    -2.442811947470     1.745215159093     1.007825032230
         H            0.354146632157    -4.727811947470     1.421215159093     1.007825032230
         H            0.685146632157    -0.712811947470     0.846215159093     1.007825032230
         H            1.120092632157    -3.759341947470     2.749365159093     1.007825032230
         H            1.904000332157    -3.944381947470     1.150535159093     1.007825032230

  Running in c1 symmetry.

  Rotational constants: A =      0.12855  B =      0.02058  C =      0.01885 [cm^-1]
  Rotational constants: A =   3853.97487  B =    617.03120  C =    565.03225 [MHz]
  Nuclear repulsion =  439.314215138950033

  Charge       = 0
  Multiplicity = 1
  Electrons    = 70
  Nalpha       = 35
  Nbeta        = 35

  ==> Algorithm <==

  SCF Algorithm Type is PK.
  DIIS enabled.
  MOM disabled.
  Fractional occupation disabled.
  Guess Type is SAD.
  Energy threshold   = 1.00e-06
  Density threshold  = 1.00e-10
  Integral threshold = 0.00e+00

  ==> Primary Basis <==

  Basis Set: CC-PVDZ
    Blend: CC-PVDZ
    Number of shells: 90
    Number of basis function: 186
    Number of Cartesian functions: 195
    Spherical Harmonics?: true
    Max angular momentum: 2

  ==> Pre-Iterations <==

   -------------------------------------------------------
    Irrep   Nso     Nmo     Nalpha   Nbeta   Ndocc  Nsocc
   -------------------------------------------------------
     A        186     186       0       0       0       0
   -------------------------------------------------------
    Total     186     186      35      35      35       0
   -------------------------------------------------------

  ==> Integral Setup <==

  Using integral reordering PK algorithm.
  Sizing the integral batches needed.
  Building batch lookup table.
   Calculation information:
      Number of atoms:                  21
      Number of AO shells:              90
      Number of primitives:            258
      Number of atomic orbitals:       195
      Number of basis functions:       186

      Integral cutoff                 1.00e-12
      Number of threads:                 1

	Batch   1 pq = [       0,    9405] index = [             0,44231715] size =     44231715
	Batch   2 pq = [    9405,   13301] index = [      44231715,88464951] size =     44233236
	Batch   3 pq = [   13301,   16290] index = [      88464951,132690195] size =     44225244
	Batch   4 pq = [   16290,   17391] index = [     132690195,151232136] size =     18541941
  Task number: 14
  Buffer size: 11059200
  Buffer per thread: 2
  We computed 6626457 shell quartets total.
  Whereas there are 8386560 unique shell quartets.

  ==> DiskJK: Disk-Based J/K Matrices <==

    J tasked:                  Yes
    K tasked:                  Yes
    wK tasked:                  No
    Memory [MiB]:              375
    Schwarz Cutoff:          1E-12

    OpenMP threads:              1

  Minimum eigenvalue in the overlap matrix is 1.1143499010E-03.
  Using Symmetric Orthogonalization.

  SCF Guess: Superposition of Atomic Densities via on-the-fly atomic UHF.

  ==> Iterations <==

                        Total Energy        Delta E     RMS |[F,P]|

   @RHF iter SAD:  -417.08496126695599   -4.17085e+02   0.00000e+00
   @RHF iter   1:  -417.71348353130622   -6.28522e-01   3.41447e-03 DIIS
   @RHF iter   2:  -417.89752438134030   -1.84041e-01   1.86004e-03 DIIS
   @RHF iter   3:  -417.94849781709365   -5.09734e-02   4.29551e-04 DIIS
   @RHF iter   4:  -417.95240192428946   -3.90411e-03   1.74789e-04 DIIS
   @RHF iter   5:  -417.95300024888087   -5.98325e-04   2.99899e-05 DIIS
   @RHF iter   6:  -417.95302862084384   -2.83720e-05   1.30901e-05 DIIS
   @RHF iter   7:  -417.95303399516911   -5.37433e-06   4.29837e-06 DIIS
   @RHF iter   8:  -417.95303502739284   -1.03222e-06   1.64833e-06 DIIS
   @RHF iter   9:  -417.95303521737344   -1.89981e-07   5.69773e-07 DIIS
   @RHF iter  10:  -417.95303523627160   -1.88982e-08   2.01380e-07 DIIS
   @RHF iter  11:  -417.95303523885298   -2.58137e-09   6.85371e-08 DIIS
   @RHF iter  12:  -417.95303523914458   -2.91607e-10   3.15408e-08 DIIS
   @RHF iter  13:  -417.95303523919591   -5.13296e-11   9.43093e-09 DIIS
   @RHF iter  14:  -417.95303523920057   -4.66116e-12   3.29713e-09 DIIS
   @RHF iter  15:  -417.95303523920234   -1.76215e-12   1.38432e-09 DIIS
   @RHF iter  16:  -417.95303523920376   -1.42109e-12   4.56608e-10 DIIS
   @RHF iter  17:  -417.95303523920182    1.93268e-12   1.66651e-10 DIIS
   @RHF iter  18:  -417.95303523920228   -4.54747e-13   5.99231e-11 DIIS
  Energy and wave function converged.

  ==> Post-Iterations <==

    Orbital Energies [Eh]
    ---------------------

    Doubly Occupied:

       1A    -20.532868     2A    -15.632746     3A    -15.543642
       4A    -11.307357     5A    -11.275009     6A    -11.262589
       7A    -11.257150     8A    -11.232623     9A    -11.221034
      10A     -1.362525    11A     -1.341271    12A     -1.170780
      13A     -1.043075    14A     -1.007297    15A     -0.953552
      16A     -0.834080    17A     -0.831824    18A     -0.775886
      19A     -0.754891    20A     -0.698428    21A     -0.641512
      22A     -0.629848    23A     -0.612311    24A     -0.604381
      25A     -0.566016    26A     -0.557174    27A     -0.550190
      28A     -0.535943    29A     -0.533678    30A     -0.516671
      31A     -0.475525    32A     -0.430012    33A     -0.424349
      34A     -0.392335    35A     -0.323677

    Virtual:

      36A      0.154846    37A      0.170736    38A      0.191575
      39A      0.200282    40A      0.213758    41A      0.217119
      42A      0.223544    43A      0.246788    44A      0.266906
      45A      0.267576    46A      0.277665    47A      0.287471
      48A      0.294015    49A      0.322994    50A      0.359863
      51A      0.383450    52A      0.389885    53A      0.397220
      54A      0.425482    55A      0.472472    56A      0.502731
      57A      0.593560    58A      0.601376    59A      0.608674
      60A      0.620659    61A      0.635120    62A      0.656814
      63A      0.674147    64A      0.696207    65A      0.701956
      66A      0.736813    67A      0.750633    68A      0.765906
      69A      0.775585    70A      0.781828    71A      0.799936
      72A      0.815570    73A      0.837311    74A      0.846574
      75A      0.871943    76A      0.878344    77A      0.886890
      78A      0.888046    79A      0.894178    80A      0.903217
      81A      0.905284    82A      0.909601    83A      0.935840
      84A      0.950753    85A      0.952478    86A      0.971996
      87A      1.026275    88A      1.061144    89A      1.089991
      90A      1.094205    91A      1.116375    92A      1.121818
      93A      1.155491    94A      1.165789    95A      1.176179
      96A      1.200721    97A      1.236383    98A      1.269839
      99A      1.295473   100A      1.309948   101A      1.323922
     102A      1.356124   103A      1.413010   104A      1.428313
     105A      1.444421   106A      1.468472   107A      1.474522
     108A      1.491813   109A      1.508688   110A      1.542242
     111A      1.565761   112A      1.578494   113A      1.626258
     114A      1.636923   115A      1.674085   116A      1.681926
     117A      1.685576   118A      1.725033   119A      1.772514
     120A      1.787054   121A      1.804077   122A      1.831983
     123A      1.844228   124A      1.873906   125A      1.882813
     126A      1.899289   127A      1.912409   128A      1.920386
     129A      1.935304   130A      1.945048   131A      1.953654
     132A      1.963343   133A      1.979717   134A      1.982184
     135A      1.997021   136A      2.002228   137A      2.024666
     138A      2.051704   139A      2.085874   140A      2.108318
     141A      2.112189   142A      2.123537   143A      2.151809
     144A      2.179913   145A      2.219275   146A      2.242497
     147A      2.256576   148A      2.290065   149A      2.317031
     150A      2.323190   151A      2.356321   152A      2.406388
     153A      2.410866   154A      2.463351   155A      2.491373
     156A      2.503911   157A      2.511547   158A      2.545025
     159A      2.573998   160A      2.601210   161A      2.676091
     162A      2.701429   163A      2.718973   164A      2.751298
     165A      2.760381   166A      2.771431   167A      2.781732
     168A      2.786801   169A      2.801724   170A      2.860476
     171A      2.874539   172A      2.893628   173A      2.897463
     174A      2.935845   175A      2.957963   176A      3.009790
     177A      3.047780   178A      3.155108   179A      3.235627
     180A      3.353644   181A      3.431402   182A      3.459907
     183A      3.488115   184A      3.650828   185A      3.739589
     186A      4.210790

    Final Occupation by Irrep:
              A
    DOCC [    35 ]

  @RHF Final Energy:  -417.95303523920228

   => Energetics <=

    Nuclear Repulsion Energy =            439.3142151389500327
    One-Electron Energy =               -1438.8699984075601606
    Two-Electron Energy =                 581.6027480294079623
    Total Energy =                       -417.9530352392022223

Computation Completed

Properties will be evaluated at   0.000000,   0.000000,   0.000000 [a0]

Properties computed using the SCF density matrix

  Nuclear Dipole Moment: [e a0]
     X:    -1.0681      Y:    -9.1837      Z:     0.0549

  Electronic Dipole Moment: [e a0]
     X:    -0.1203      Y:     8.5890      Z:     0.1326

  Dipole Moment: [e a0]
     X:    -1.1884      Y:    -0.5946      Z:     0.1875     Total:     1.3420

  Dipole Moment: [D]
     X:    -3.0206      Y:    -1.5114      Z:     0.4766     Total:     3.4111

*** tstop() called on ds3 at Mon Apr 27 17:44:06 2020
Module time:
	user time   =      50.98 seconds =       0.85 minutes
	system time =      25.16 seconds =       0.42 minutes
	total time  =         74 seconds =       1.23 minutes
Total time:
	user time   =      50.98 seconds =       0.85 minutes
	system time =      25.16 seconds =       0.42 minutes
	total time  =         74 seconds =       1.23 minutes
                                     G D M A

                                 by Anthony Stone

                           version 2.2.06, 22 June 2011

               Distributed Multipoles from Gaussian wavefunctions

Starting at 17:44:6 on 27 Apr 2020

Using SCF density matrix from file ./SSI/SSI-011HIE-304SER-1-dimer.test.19069.fchk

                         Distributed Multipole Analysis

Standard DMA

Positions and radii in angstrom
Multipole moments in atomic units, ea_0^k for rank k

C          x = -0.807853  y =  2.052188  z = -2.860785 angstrom
           Maximum rank =  0   Radius =  0.650 angstrom
                   Q00  =  -0.197914

C          x = -0.999853  y =  0.496188  z = -0.785785 angstrom
           Maximum rank =  0   Radius =  0.650 angstrom
                   Q00  =  -0.020716

C          x = -0.568853  y =  1.600188  z = -1.451785 angstrom
           Maximum rank =  0   Radius =  0.650 angstrom
                   Q00  =   0.224943

C          x =  0.236147  y =  1.687188  z =  0.593215 angstrom
           Maximum rank =  0   Radius =  0.650 angstrom
                   Q00  =   0.465335

N          x = -0.491853  y =  0.579188  z =  0.492215 angstrom
           Maximum rank =  0   Radius =  0.650 angstrom
                   Q00  =  -0.492583

N          x =  0.202147  y =  2.326188  z = -0.568785 angstrom
           Maximum rank =  0   Radius =  0.650 angstrom
                   Q00  =  -0.753646

H          x = -1.691853  y = -0.250812  z = -1.158785 angstrom
           Maximum rank =  0   Radius =  0.325 angstrom
                   Q00  =   0.106263

H          x = -0.899853  y =  0.108188  z =  1.300215 angstrom
           Maximum rank =  0   Radius =  0.325 angstrom
                   Q00  =   0.223777

H          x =  0.160147  y =  2.256188  z = -3.317785 angstrom
           Maximum rank =  0   Radius =  0.325 angstrom
                   Q00  =   0.118804

H          x = -1.359853  y =  2.988188  z = -2.812785 angstrom
           Maximum rank =  0   Radius =  0.325 angstrom
                   Q00  =   0.114537

H          x =  0.713147  y =  2.054188  z =  1.494215 angstrom
           Maximum rank =  0   Radius =  0.325 angstrom
                   Q00  =   0.133370

H          x = -1.377154  y =  1.353338  z = -3.491265 angstrom
           Maximum rank =  0   Radius =  0.325 angstrom
                   Q00  =   0.095695

C          x =  0.218147  y = -2.596812  z =  1.166215 angstrom
           Maximum rank =  0   Radius =  0.650 angstrom
                   Q00  =   0.057452

C          x =  0.938147  y = -3.848812  z =  1.668215 angstrom
           Maximum rank =  0   Radius =  0.650 angstrom
                   Q00  =  -0.212067

O          x =  1.064147  y = -1.469812  z =  1.317215 angstrom
           Maximum rank =  0   Radius =  0.650 angstrom
                   Q00  =  -0.657128

H          x = -0.061853  y = -2.701812  z =  0.125215 angstrom
           Maximum rank =  0   Radius =  0.325 angstrom
                   Q00  =   0.040195

H          x = -0.691853  y = -2.442812  z =  1.745215 angstrom
           Maximum rank =  0   Radius =  0.325 angstrom
                   Q00  =   0.019627

H          x =  0.354147  y = -4.727812  z =  1.421215 angstrom
           Maximum rank =  0   Radius =  0.325 angstrom
                   Q00  =   0.083614

H          x =  0.685147  y = -0.712812  z =  0.846215 angstrom
           Maximum rank =  0   Radius =  0.325 angstrom
                   Q00  =   0.467406

H          x =  1.120093  y = -3.759342  z =  2.749365 angstrom
           Maximum rank =  0   Radius =  0.325 angstrom
                   Q00  =   0.089418

H          x =  1.904000  y = -3.944382  z =  1.150535 angstrom
           Maximum rank =  0   Radius =  0.325 angstrom
                   Q00  =   0.093618

Total multipoles referred to origin at
           x =   0.000000,  y =    0.000000,  z =    0.000000 angstrom
                   Q00  =  -0.000000

Finished at 17:44:6 on 27 Apr 2020

  DMA results are available in the Python driver through the
	  variable('DMA DISTRIBUTED MULTIPOLES')
  and
	  variable('DMA TOTAL MULTIPOLES')
  commands.

    Psi4 stopped on: Monday, 27 April 2020 05:44PM
    Psi4 wall time for execution: 0:01:13.73

*** Psi4 exiting successfully. Buy a developer a beer!
