                               Psi4 1.3.2 release

  ==> Input File <==

--------------------------------------------------------------------------
import numpy as np
set {scf_type pk
basis cc-pvdz
d_convergence 10
gdma_switch   0
gdma_limit    0
gdma_origin   [ 0.0,  0.0,  0.0 ]
}
molecule test {
    units Angstrom
    0 1
    --
    0 1
    C               -0.793600759027281     0.727006976161259     1.269851315919761
    C               -1.015600759027281     0.603006976161259     2.778851315919761
    C                0.643399240972719     0.937006976161259     0.890851315919762
    C                1.274399240972719     2.046006976161259     0.423851315919761
    C                2.772399240972719     0.444006976161259     0.627851315919762
    N                1.600399240972719    -0.052993023838741     1.006851315919761
    N                2.603399240972719     1.713006976161259     0.267851315919762
    H               -1.162600759027281    -0.168993023838741     0.783851315919762
    H               -1.377600759027281     1.569006976161259     0.895851315919762
    H               -0.732600759027281     1.557006976161259     3.228851315919762
    H                0.814399240972719     3.008006976161259     0.227851315919761
    H                3.714399240972719    -0.094993023838741     0.613851315919761
    H                3.341399240972719     2.326006976161259    -0.065148684080238
    H               -0.417510759027281    -0.220598023838741     3.195933315919762
    H               -2.075550759027281     0.403903976161259     2.995330315919762
    C               -2.960600759027281    -2.027993023838741    -1.915148684080238
    C               -1.574600759027281    -1.443993023838741    -1.742148684080239
    O               -1.216600759027281    -0.478993023838741    -2.415148684080239
    N               -0.769600759027281    -2.027993023838741    -0.866148684080238
    H               -2.932600759027281    -2.661993023838741    -2.802148684080239
    H               -3.663600759027281    -1.215993023838741    -2.094148684080238
    H                0.145399240972719    -1.624993023838741    -0.718148684080238
    H               -1.067600759027281    -2.830993023838741    -0.339148684080239
    H               -3.297200759027281    -2.631435023838741    -1.059258684080238

}
e, wfn = energy('scf', return_wfn=True)
gdma(wfn)
dmavals = variable('DMA DISTRIBUTED MULTIPOLES')
charges = np.array(dmavals)
print(charges)
np.save('SSI-096HIE-101GLN-1-dimer.npy', np.array(charges))--------------------------------------------------------------------------

*** tstart() called on ds3
*** at Mon Apr 27 11:33:27 2020

   => Loading Basis Set <=

    Name: CC-PVDZ
    Role: ORBITAL
    Keyword: BASIS
    atoms 1-5, 16-17  entry C          line   138 file /theoryfs2/ds/metcalf/miniconda2/envs/tf2gpu/share/psi4/basis/cc-pvdz.gbs
    atoms 6-7, 19     entry N          line   168 file /theoryfs2/ds/metcalf/miniconda2/envs/tf2gpu/share/psi4/basis/cc-pvdz.gbs
    atoms 8-15, 20-24 entry H          line    22 file /theoryfs2/ds/metcalf/miniconda2/envs/tf2gpu/share/psi4/basis/cc-pvdz.gbs
    atoms 18          entry O          line   198 file /theoryfs2/ds/metcalf/miniconda2/envs/tf2gpu/share/psi4/basis/cc-pvdz.gbs

         ---------------------------------------------------------
                                   SCF
               by Justin Turney, Rob Parrish, Andy Simmonett
                          and Daniel G. A. Smith
                              RHF Reference
                        1 Threads,    500 MiB Core
         ---------------------------------------------------------

  ==> Geometry <==

    Molecular point group: c1
    Full point group: C1

    Geometry (in Angstrom), charge = 0, multiplicity = 1:

       Center              X                  Y                   Z               Mass
    ------------   -----------------  -----------------  -----------------  -----------------
         C           -0.793600759027     0.727006976161     1.269851315920    12.000000000000
         C           -1.015600759027     0.603006976161     2.778851315920    12.000000000000
         C            0.643399240973     0.937006976161     0.890851315920    12.000000000000
         C            1.274399240973     2.046006976161     0.423851315920    12.000000000000
         C            2.772399240973     0.444006976161     0.627851315920    12.000000000000
         N            1.600399240973    -0.052993023839     1.006851315920    14.003074004430
         N            2.603399240973     1.713006976161     0.267851315920    14.003074004430
         H           -1.162600759027    -0.168993023839     0.783851315920     1.007825032230
         H           -1.377600759027     1.569006976161     0.895851315920     1.007825032230
         H           -0.732600759027     1.557006976161     3.228851315920     1.007825032230
         H            0.814399240973     3.008006976161     0.227851315920     1.007825032230
         H            3.714399240973    -0.094993023839     0.613851315920     1.007825032230
         H            3.341399240973     2.326006976161    -0.065148684080     1.007825032230
         H           -0.417510759027    -0.220598023839     3.195933315920     1.007825032230
         H           -2.075550759027     0.403903976161     2.995330315920     1.007825032230
         C           -2.960600759027    -2.027993023839    -1.915148684080    12.000000000000
         C           -1.574600759027    -1.443993023839    -1.742148684080    12.000000000000
         O           -1.216600759027    -0.478993023839    -2.415148684080    15.994914619570
         N           -0.769600759027    -2.027993023839    -0.866148684080    14.003074004430
         H           -2.932600759027    -2.661993023839    -2.802148684080     1.007825032230
         H           -3.663600759027    -1.215993023839    -2.094148684080     1.007825032230
         H            0.145399240973    -1.624993023839    -0.718148684080     1.007825032230
         H           -1.067600759027    -2.830993023839    -0.339148684080     1.007825032230
         H           -3.297200759027    -2.631435023839    -1.059258684080     1.007825032230

  Running in c1 symmetry.

  Rotational constants: A =      0.05033  B =      0.01807  C =      0.01563 [cm^-1]
  Rotational constants: A =   1508.79420  B =    541.86328  C =    468.51485 [MHz]
  Nuclear repulsion =  596.389674084598596

  Charge       = 0
  Multiplicity = 1
  Electrons    = 84
  Nalpha       = 42
  Nbeta        = 42

  ==> Algorithm <==

  SCF Algorithm Type is PK.
  DIIS enabled.
  MOM disabled.
  Fractional occupation disabled.
  Guess Type is SAD.
  Energy threshold   = 1.00e-06
  Density threshold  = 1.00e-10
  Integral threshold = 0.00e+00

  ==> Primary Basis <==

  Basis Set: CC-PVDZ
    Blend: CC-PVDZ
    Number of shells: 105
    Number of basis function: 219
    Number of Cartesian functions: 230
    Spherical Harmonics?: true
    Max angular momentum: 2

  ==> Pre-Iterations <==

   -------------------------------------------------------
    Irrep   Nso     Nmo     Nalpha   Nbeta   Ndocc  Nsocc
   -------------------------------------------------------
     A        219     219       0       0       0       0
   -------------------------------------------------------
    Total     219     219      42      42      42       0
   -------------------------------------------------------

  ==> Integral Setup <==

  Using integral reordering PK algorithm.
  Sizing the integral batches needed.
  Building batch lookup table.
   Calculation information:
      Number of atoms:                  24
      Number of AO shells:             105
      Number of primitives:            307
      Number of atomic orbitals:       230
      Number of basis functions:       219

      Integral cutoff                 1.00e-12
      Number of threads:                 1

	Batch   1 pq = [       0,    9405] index = [             0,44231715] size =     44231715
	Batch   2 pq = [    9405,   13301] index = [      44231715,88464951] size =     44233236
	Batch   3 pq = [   13301,   16290] index = [      88464951,132690195] size =     44225244
	Batch   4 pq = [   16290,   18810] index = [     132690195,176917455] size =     44227260
	Batch   5 pq = [   18810,   21030] index = [     176917455,221140965] size =     44223510
	Batch   6 pq = [   21030,   23037] index = [     221140965,265363203] size =     44222238
	Batch   7 pq = [   23037,   24090] index = [     265363203,290176095] size =     24812892
  Task number: 27
  Buffer size: 11059200
  Buffer per thread: 2
  We computed 13882726 shell quartets total.
  Whereas there are 15487395 unique shell quartets.

  ==> DiskJK: Disk-Based J/K Matrices <==

    J tasked:                  Yes
    K tasked:                  Yes
    wK tasked:                  No
    Memory [MiB]:              375
    Schwarz Cutoff:          1E-12

    OpenMP threads:              1

  Minimum eigenvalue in the overlap matrix is 1.1489555400E-03.
  Using Symmetric Orthogonalization.

  SCF Guess: Superposition of Atomic Densities via on-the-fly atomic UHF.

  ==> Iterations <==

                        Total Energy        Delta E     RMS |[F,P]|

   @RHF iter SAD:  -509.79342126407977   -5.09793e+02   0.00000e+00
   @RHF iter   1:  -510.59525460069671   -8.01833e-01   3.37253e-03 DIIS
   @RHF iter   2:  -510.82959507591659   -2.34340e-01   1.93442e-03 DIIS
   @RHF iter   3:  -510.90157736286596   -7.19823e-02   4.15254e-04 DIIS
   @RHF iter   4:  -510.90656829878549   -4.99094e-03   1.55409e-04 DIIS
   @RHF iter   5:  -510.90729858107471   -7.30282e-04   2.71136e-05 DIIS
   @RHF iter   6:  -510.90734027024979   -4.16892e-05   1.32032e-05 DIIS
   @RHF iter   7:  -510.90734836175852   -8.09151e-06   5.13358e-06 DIIS
   @RHF iter   8:  -510.90735005812962   -1.69637e-06   2.08536e-06 DIIS
   @RHF iter   9:  -510.90735034388365   -2.85754e-07   9.37149e-07 DIIS
   @RHF iter  10:  -510.90735038906411   -4.51805e-08   2.17266e-07 DIIS
   @RHF iter  11:  -510.90735039254275   -3.47865e-09   7.81717e-08 DIIS
   @RHF iter  12:  -510.90735039293992   -3.97165e-10   3.39938e-08 DIIS
   @RHF iter  13:  -510.90735039301256   -7.26459e-11   1.17322e-08 DIIS
   @RHF iter  14:  -510.90735039302587   -1.33014e-11   5.54938e-09 DIIS
   @RHF iter  15:  -510.90735039302803   -2.16005e-12   2.02659e-09 DIIS
   @RHF iter  16:  -510.90735039303081   -2.78533e-12   7.11092e-10 DIIS
   @RHF iter  17:  -510.90735039302820    2.61480e-12   2.70358e-10 DIIS
   @RHF iter  18:  -510.90735039303053   -2.33058e-12   7.18352e-11 DIIS
  Energy and wave function converged.

  ==> Post-Iterations <==

    Orbital Energies [Eh]
    ---------------------

    Doubly Occupied:

       1A    -20.491196     2A    -15.622191     3A    -15.573728
       4A    -15.532680     5A    -11.336483     6A    -11.296454
       7A    -11.250533     8A    -11.238514     9A    -11.234387
      10A    -11.218427    11A    -11.213033    12A     -1.355618
      13A     -1.341778    14A     -1.203448    15A     -1.155437
      16A     -1.048435    17A     -0.991431    18A     -0.983915
      19A     -0.855448    20A     -0.818580    21A     -0.787180
      22A     -0.760013    23A     -0.734057    24A     -0.714588
      25A     -0.644610    26A     -0.622840    27A     -0.607713
      28A     -0.601025    29A     -0.597189    30A     -0.581392
      31A     -0.561430    32A     -0.558423    33A     -0.549181
      34A     -0.514640    35A     -0.507182    36A     -0.483920
      37A     -0.479056    38A     -0.414665    39A     -0.399282
      40A     -0.389504    41A     -0.380085    42A     -0.309120

    Virtual:

      43A      0.171322    44A      0.175938    45A      0.186452
      46A      0.200636    47A      0.209358    48A      0.221955
      49A      0.224468    50A      0.231282    51A      0.244996
      52A      0.254724    53A      0.269552    54A      0.277709
      55A      0.285564    56A      0.289867    57A      0.295877
      58A      0.314433    59A      0.377714    60A      0.390710
      61A      0.393973    62A      0.411889    63A      0.444356
      64A      0.472368    65A      0.482779    66A      0.491199
      67A      0.575974    68A      0.603182    69A      0.611863
      70A      0.627545    71A      0.642456    72A      0.648396
      73A      0.660924    74A      0.684179    75A      0.686016
      76A      0.694502    77A      0.708246    78A      0.726984
      79A      0.733948    80A      0.760688    81A      0.763686
      82A      0.769705    83A      0.809746    84A      0.829281
      85A      0.834095    86A      0.848810    87A      0.865461
      88A      0.876382    89A      0.890252    90A      0.895330
      91A      0.899915    92A      0.910108    93A      0.917017
      94A      0.926812    95A      0.935429    96A      0.941240
      97A      0.956811    98A      0.967738    99A      0.972097
     100A      0.978033   101A      1.008359   102A      1.025844
     103A      1.049041   104A      1.059458   105A      1.069973
     106A      1.097251   107A      1.114734   108A      1.119996
     109A      1.128516   110A      1.139339   111A      1.147585
     112A      1.188612   113A      1.219739   114A      1.257159
     115A      1.274580   116A      1.309142   117A      1.320921
     118A      1.330932   119A      1.351129   120A      1.368248
     121A      1.394660   122A      1.401377   123A      1.415374
     124A      1.418757   125A      1.442929   126A      1.445917
     127A      1.458817   128A      1.476381   129A      1.480306
     130A      1.517272   131A      1.548877   132A      1.563136
     133A      1.609999   134A      1.655858   135A      1.664943
     136A      1.671199   137A      1.694233   138A      1.727685
     139A      1.747500   140A      1.757767   141A      1.770431
     142A      1.820147   143A      1.833106   144A      1.850440
     145A      1.858373   146A      1.879787   147A      1.888058
     148A      1.902205   149A      1.904137   150A      1.915420
     151A      1.925714   152A      1.937777   153A      1.952307
     154A      1.956463   155A      1.967706   156A      1.981674
     157A      1.987377   158A      2.006712   159A      2.016451
     160A      2.028429   161A      2.037728   162A      2.051707
     163A      2.066210   164A      2.091831   165A      2.116001
     166A      2.126853   167A      2.160039   168A      2.164000
     169A      2.180410   170A      2.221617   171A      2.233339
     172A      2.251374   173A      2.284291   174A      2.307821
     175A      2.315547   176A      2.327680   177A      2.388021
     178A      2.438668   179A      2.446565   180A      2.460628
     181A      2.470078   182A      2.476356   183A      2.497403
     184A      2.512119   185A      2.562145   186A      2.570025
     187A      2.585387   188A      2.595972   189A      2.607474
     190A      2.647964   191A      2.683945   192A      2.742148
     193A      2.750355   194A      2.757640   195A      2.772467
     196A      2.778965   197A      2.803323   198A      2.811830
     199A      2.841003   200A      2.862712   201A      2.872639
     202A      2.891506   203A      2.911070   204A      2.941248
     205A      2.949833   206A      2.991477   207A      3.033532
     208A      3.081702   209A      3.107425   210A      3.145044
     211A      3.174609   212A      3.257400   213A      3.308539
     214A      3.471325   215A      3.511840   216A      3.556091
     217A      3.788459   218A      3.882381   219A      3.916839

    Final Occupation by Irrep:
              A
    DOCC [    42 ]

  @RHF Final Energy:  -510.90735039303053

   => Energetics <=

    Nuclear Repulsion Energy =            596.3896740845985960
    One-Electron Energy =               -1878.6764243069912936
    Two-Electron Energy =                 771.3793998293620007
    Total Energy =                       -510.9073503930305833

Computation Completed

Properties will be evaluated at   0.000000,   0.000000,   0.000000 [a0]

Properties computed using the SCF density matrix

  Nuclear Dipole Moment: [e a0]
     X:    -8.1824      Y:    -2.4256      Z:     4.5466

  Electronic Dipole Moment: [e a0]
     X:     8.7722      Y:     2.3091      Z:    -4.0140

  Dipole Moment: [e a0]
     X:     0.5898      Y:    -0.1165      Z:     0.5326     Total:     0.8032

  Dipole Moment: [D]
     X:     1.4992      Y:    -0.2961      Z:     1.3537     Total:     2.0415

*** tstop() called on ds3 at Mon Apr 27 11:45:33 2020
Module time:
	user time   =     105.75 seconds =       1.76 minutes
	system time =      43.83 seconds =       0.73 minutes
	total time  =        726 seconds =      12.10 minutes
Total time:
	user time   =     105.75 seconds =       1.76 minutes
	system time =      43.83 seconds =       0.73 minutes
	total time  =        726 seconds =      12.10 minutes
                                     G D M A

                                 by Anthony Stone

                           version 2.2.06, 22 June 2011

               Distributed Multipoles from Gaussian wavefunctions

Starting at 11:45:33 on 27 Apr 2020

Using SCF density matrix from file ./SSI/SSI-096HIE-101GLN-1-dimer.test.3005.fchk

                         Distributed Multipole Analysis

Standard DMA

Positions and radii in angstrom
Multipole moments in atomic units, ea_0^k for rank k

C          x = -0.793601  y =  0.727007  z =  1.269851 angstrom
           Maximum rank =  0   Radius =  0.650 angstrom
                   Q00  =  -0.019684

C          x = -1.015601  y =  0.603007  z =  2.778851 angstrom
           Maximum rank =  0   Radius =  0.650 angstrom
                   Q00  =  -0.240122

C          x =  0.643399  y =  0.937007  z =  0.890851 angstrom
           Maximum rank =  0   Radius =  0.650 angstrom
                   Q00  =   0.201324

C          x =  1.274399  y =  2.046007  z =  0.423851 angstrom
           Maximum rank =  0   Radius =  0.650 angstrom
                   Q00  =   0.013842

C          x =  2.772399  y =  0.444007  z =  0.627851 angstrom
           Maximum rank =  0   Radius =  0.650 angstrom
                   Q00  =   0.466501

N          x =  1.600399  y = -0.052993  z =  1.006851 angstrom
           Maximum rank =  0   Radius =  0.650 angstrom
                   Q00  =  -0.792642

N          x =  2.603399  y =  1.713007  z =  0.267851 angstrom
           Maximum rank =  0   Radius =  0.650 angstrom
                   Q00  =  -0.477615

H          x = -1.162601  y = -0.168993  z =  0.783851 angstrom
           Maximum rank =  0   Radius =  0.325 angstrom
                   Q00  =   0.082603

H          x = -1.377601  y =  1.569007  z =  0.895851 angstrom
           Maximum rank =  0   Radius =  0.325 angstrom
                   Q00  =   0.063445

H          x = -0.732601  y =  1.557007  z =  3.228851 angstrom
           Maximum rank =  0   Radius =  0.325 angstrom
                   Q00  =   0.074715

H          x =  0.814399  y =  3.008007  z =  0.227851 angstrom
           Maximum rank =  0   Radius =  0.325 angstrom
                   Q00  =   0.108099

H          x =  3.714399  y = -0.094993  z =  0.613851 angstrom
           Maximum rank =  0   Radius =  0.325 angstrom
                   Q00  =   0.123966

H          x =  3.341399  y =  2.326007  z = -0.065149 angstrom
           Maximum rank =  0   Radius =  0.325 angstrom
                   Q00  =   0.222236

H          x = -0.417511  y = -0.220598  z =  3.195933 angstrom
           Maximum rank =  0   Radius =  0.325 angstrom
                   Q00  =   0.092408

H          x = -2.075551  y =  0.403904  z =  2.995330 angstrom
           Maximum rank =  0   Radius =  0.325 angstrom
                   Q00  =   0.076128

C          x = -2.960601  y = -2.027993  z = -1.915149 angstrom
           Maximum rank =  0   Radius =  0.650 angstrom
                   Q00  =  -0.268819

C          x = -1.574601  y = -1.443993  z = -1.742149 angstrom
           Maximum rank =  0   Radius =  0.650 angstrom
                   Q00  =   0.816885

O          x = -1.216601  y = -0.478993  z = -2.415149 angstrom
           Maximum rank =  0   Radius =  0.650 angstrom
                   Q00  =  -0.797859

N          x = -0.769601  y = -2.027993  z = -0.866149 angstrom
           Maximum rank =  0   Radius =  0.650 angstrom
                   Q00  =  -0.526414

H          x = -2.932601  y = -2.661993  z = -2.802149 angstrom
           Maximum rank =  0   Radius =  0.325 angstrom
                   Q00  =   0.130826

H          x = -3.663601  y = -1.215993  z = -2.094149 angstrom
           Maximum rank =  0   Radius =  0.325 angstrom
                   Q00  =   0.129006

H          x =  0.145399  y = -1.624993  z = -0.718149 angstrom
           Maximum rank =  0   Radius =  0.325 angstrom
                   Q00  =   0.238742

H          x = -1.067601  y = -2.830993  z = -0.339149 angstrom
           Maximum rank =  0   Radius =  0.325 angstrom
                   Q00  =   0.203855

H          x = -3.297201  y = -2.631435  z = -1.059259 angstrom
           Maximum rank =  0   Radius =  0.325 angstrom
                   Q00  =   0.078573

Total multipoles referred to origin at
           x =   0.000000,  y =    0.000000,  z =    0.000000 angstrom
                   Q00  =  -0.000000

Finished at 11:45:34 on 27 Apr 2020

  DMA results are available in the Python driver through the
	  variable('DMA DISTRIBUTED MULTIPOLES')
  and
	  variable('DMA TOTAL MULTIPOLES')
  commands.

    Psi4 stopped on: Monday, 27 April 2020 11:45AM
    Psi4 wall time for execution: 0:12:06.11

*** Psi4 exiting successfully. Buy a developer a beer!
