                               Psi4 1.3.2 release

  ==> Input File <==

--------------------------------------------------------------------------
import numpy as np
set {scf_type pk
basis cc-pvdz
d_convergence 10
gdma_switch   0
gdma_limit    0
gdma_origin   [ 0.0,  0.0,  0.0 ]
}
molecule test {
    units Angstrom
    0 1
    --
    0 1
    C                1.796360591113174    -2.206496223223345     0.955488646571402
    C                0.494360591113174    -1.485496223223345     0.638488646571402
    O                0.232360591113174    -0.380496223223345     1.105488646571402
    N               -0.345639408886826    -2.124496223223345    -0.149511353428598
    H                1.632360591113174    -2.794496223223345     1.857488646571402
    H                2.571360591113174    -1.479496223223345     1.189488646571402
    H               -1.215639408886826    -1.696496223223345    -0.410511353428598
    H               -0.142639408886826    -3.063496223223345    -0.458511353428598
    H                2.124683591113174    -2.897176223223345     0.164818646571402
    C               -0.773639408886826     2.192503776776655    -0.279511353428598
    C                0.437360591113174     2.632503776776655    -1.081511353428598
    C               -1.804639408886826     1.450503776776655    -1.126511353428598
    H               -0.473639408886826     1.637503776776655     0.582488646571402
    H               -1.245639408886826     3.098503776776655     0.101488646571402
    H                0.218360591113174     3.562503776776655    -1.608511353428598
    H                0.683360591113174     1.856503776776655    -1.806511353428598
    H               -2.290639408886826     2.155503776776655    -1.811511353428598
    H               -1.274639408886826     0.709503776776655    -1.735511353428598
    H                1.290018591113174     2.765463776776655    -0.399384353428598
    H               -2.546282408886826     0.941403776776655    -0.493437353428598

}
e, wfn = energy('scf', return_wfn=True)
gdma(wfn)
dmavals = variable('DMA DISTRIBUTED MULTIPOLES')
charges = np.array(dmavals)
print(charges)
np.save('SSI-025GLN-029LYS-1-dimer.npy', np.array(charges))--------------------------------------------------------------------------

*** tstart() called on ds3
*** at Mon Apr 27 04:08:26 2020

   => Loading Basis Set <=

    Name: CC-PVDZ
    Role: ORBITAL
    Keyword: BASIS
    atoms 1-2, 10-12 entry C          line   138 file /theoryfs2/ds/metcalf/miniconda2/envs/tf2gpu/share/psi4/basis/cc-pvdz.gbs
    atoms 3          entry O          line   198 file /theoryfs2/ds/metcalf/miniconda2/envs/tf2gpu/share/psi4/basis/cc-pvdz.gbs
    atoms 4          entry N          line   168 file /theoryfs2/ds/metcalf/miniconda2/envs/tf2gpu/share/psi4/basis/cc-pvdz.gbs
    atoms 5-9, 13-20 entry H          line    22 file /theoryfs2/ds/metcalf/miniconda2/envs/tf2gpu/share/psi4/basis/cc-pvdz.gbs

         ---------------------------------------------------------
                                   SCF
               by Justin Turney, Rob Parrish, Andy Simmonett
                          and Daniel G. A. Smith
                              RHF Reference
                        1 Threads,    500 MiB Core
         ---------------------------------------------------------

  ==> Geometry <==

    Molecular point group: c1
    Full point group: C1

    Geometry (in Angstrom), charge = 0, multiplicity = 1:

       Center              X                  Y                   Z               Mass
    ------------   -----------------  -----------------  -----------------  -----------------
         C            1.796360591113    -2.206496223223     0.955488646571    12.000000000000
         C            0.494360591113    -1.485496223223     0.638488646571    12.000000000000
         O            0.232360591113    -0.380496223223     1.105488646571    15.994914619570
         N           -0.345639408887    -2.124496223223    -0.149511353429    14.003074004430
         H            1.632360591113    -2.794496223223     1.857488646571     1.007825032230
         H            2.571360591113    -1.479496223223     1.189488646571     1.007825032230
         H           -1.215639408887    -1.696496223223    -0.410511353429     1.007825032230
         H           -0.142639408887    -3.063496223223    -0.458511353429     1.007825032230
         H            2.124683591113    -2.897176223223     0.164818646571     1.007825032230
         C           -0.773639408887     2.192503776777    -0.279511353429    12.000000000000
         C            0.437360591113     2.632503776777    -1.081511353429    12.000000000000
         C           -1.804639408887     1.450503776777    -1.126511353429    12.000000000000
         H           -0.473639408887     1.637503776777     0.582488646571     1.007825032230
         H           -1.245639408887     3.098503776777     0.101488646571     1.007825032230
         H            0.218360591113     3.562503776777    -1.608511353429     1.007825032230
         H            0.683360591113     1.856503776777    -1.806511353429     1.007825032230
         H           -2.290639408887     2.155503776777    -1.811511353429     1.007825032230
         H           -1.274639408887     0.709503776777    -1.735511353429     1.007825032230
         H            1.290018591113     2.765463776777    -0.399384353429     1.007825032230
         H           -2.546282408887     0.941403776777    -0.493437353429     1.007825032230

  Running in c1 symmetry.

  Rotational constants: A =      0.13286  B =      0.03340  C =      0.02969 [cm^-1]
  Rotational constants: A =   3983.10245  B =   1001.41719  C =    890.07830 [MHz]
  Nuclear repulsion =  307.154543151102644

  Charge       = 0
  Multiplicity = 1
  Electrons    = 58
  Nalpha       = 29
  Nbeta        = 29

  ==> Algorithm <==

  SCF Algorithm Type is PK.
  DIIS enabled.
  MOM disabled.
  Fractional occupation disabled.
  Guess Type is SAD.
  Energy threshold   = 1.00e-06
  Density threshold  = 1.00e-10
  Integral threshold = 0.00e+00

  ==> Primary Basis <==

  Basis Set: CC-PVDZ
    Blend: CC-PVDZ
    Number of shells: 81
    Number of basis function: 163
    Number of Cartesian functions: 170
    Spherical Harmonics?: true
    Max angular momentum: 2

  ==> Pre-Iterations <==

   -------------------------------------------------------
    Irrep   Nso     Nmo     Nalpha   Nbeta   Ndocc  Nsocc
   -------------------------------------------------------
     A        163     163       0       0       0       0
   -------------------------------------------------------
    Total     163     163      29      29      29       0
   -------------------------------------------------------

  ==> Integral Setup <==

  Using integral reordering PK algorithm.
  Sizing the integral batches needed.
  Building batch lookup table.
   Calculation information:
      Number of atoms:                  20
      Number of AO shells:              81
      Number of primitives:            219
      Number of atomic orbitals:       170
      Number of basis functions:       163

      Integral cutoff                 1.00e-12
      Number of threads:                 1

	Batch   1 pq = [       0,    9405] index = [             0,44231715] size =     44231715
	Batch   2 pq = [    9405,   13366] index = [      44231715,89331661] size =     45099946
  Task number: 9
  Buffer size: 11059200
  Buffer per thread: 2
  We computed 4910271 shell quartets total.
  Whereas there are 5516181 unique shell quartets.

  ==> DiskJK: Disk-Based J/K Matrices <==

    J tasked:                  Yes
    K tasked:                  Yes
    wK tasked:                  No
    Memory [MiB]:              375
    Schwarz Cutoff:          1E-12

    OpenMP threads:              1

  Minimum eigenvalue in the overlap matrix is 4.6477565352E-03.
  Using Symmetric Orthogonalization.

  SCF Guess: Superposition of Atomic Densities via on-the-fly atomic UHF.

  ==> Iterations <==

                        Total Energy        Delta E     RMS |[F,P]|

   @RHF iter SAD:  -325.01303024053442   -3.25013e+02   0.00000e+00
   @RHF iter   1:  -325.99587821409449   -9.82848e-01   4.16466e-03 DIIS
   @RHF iter   2:  -326.19894861953986   -2.03070e-01   2.28904e-03 DIIS
   @RHF iter   3:  -326.25461740690690   -5.56688e-02   4.90997e-04 DIIS
   @RHF iter   4:  -326.25838045167012   -3.76304e-03   2.02296e-04 DIIS
   @RHF iter   5:  -326.25904199103070   -6.61539e-04   3.06085e-05 DIIS
   @RHF iter   6:  -326.25907158499678   -2.95940e-05   1.30244e-05 DIIS
   @RHF iter   7:  -326.25907641791753   -4.83292e-06   4.95661e-06 DIIS
   @RHF iter   8:  -326.25907736962569   -9.51708e-07   1.78987e-06 DIIS
   @RHF iter   9:  -326.25907749998657   -1.30361e-07   4.78412e-07 DIIS
   @RHF iter  10:  -326.25907750675998   -6.77340e-09   1.58434e-07 DIIS
   @RHF iter  11:  -326.25907750756102   -8.01037e-10   3.87513e-08 DIIS
   @RHF iter  12:  -326.25907750760865   -4.76348e-11   9.23476e-09 DIIS
   @RHF iter  13:  -326.25907750761093   -2.27374e-12   2.25425e-09 DIIS
   @RHF iter  14:  -326.25907750760831    2.61480e-12   9.38902e-10 DIIS
   @RHF iter  15:  -326.25907750761218   -3.86535e-12   3.82962e-10 DIIS
   @RHF iter  16:  -326.25907750760871    3.46745e-12   1.56141e-10 DIIS
   @RHF iter  17:  -326.25907750761149   -2.78533e-12   7.72925e-11 DIIS
  Energy and wave function converged.

  ==> Post-Iterations <==

    Orbital Energies [Eh]
    ---------------------

    Doubly Occupied:

       1A    -20.507751     2A    -15.591931     3A    -11.352656
       4A    -11.245853     5A    -11.204050     6A    -11.196430
       7A    -11.185928     8A     -1.374026     9A     -1.223746
      10A     -1.035762    11A     -1.002832    12A     -0.906866
      13A     -0.808332    14A     -0.777549    15A     -0.731921
      16A     -0.662713    17A     -0.615872    18A     -0.605162
      19A     -0.582415    20A     -0.572365    21A     -0.563937
      22A     -0.531710    23A     -0.524739    24A     -0.515420
      25A     -0.453716    26A     -0.450982    27A     -0.441501
      28A     -0.413744    29A     -0.406993

    Virtual:

      30A      0.159909    31A      0.193515    32A      0.199508
      33A      0.212934    34A      0.228056    35A      0.244751
      36A      0.252612    37A      0.258686    38A      0.278920
      39A      0.282907    40A      0.288087    41A      0.304315
      42A      0.326145    43A      0.353899    44A      0.379219
      45A      0.407068    46A      0.452586    47A      0.478082
      48A      0.549078    49A      0.599545    50A      0.614832
      51A      0.623555    52A      0.636121    53A      0.647974
      54A      0.672507    55A      0.679479    56A      0.696704
      57A      0.730776    58A      0.746749    59A      0.758375
      60A      0.810892    61A      0.817270    62A      0.833456
      63A      0.859928    64A      0.881827    65A      0.886664
      66A      0.890362    67A      0.892477    68A      0.905988
      69A      0.908776    70A      0.920079    71A      0.931955
      72A      0.939897    73A      0.960392    74A      0.968982
      75A      0.972123    76A      1.002980    77A      1.022960
      78A      1.028817    79A      1.068746    80A      1.116300
      81A      1.130617    82A      1.141176    83A      1.195076
      84A      1.274894    85A      1.332640    86A      1.344299
      87A      1.388643    88A      1.394378    89A      1.415948
      90A      1.423508    91A      1.457613    92A      1.482191
      93A      1.517627    94A      1.534579    95A      1.588200
      96A      1.644163    97A      1.654446    98A      1.666897
      99A      1.681334   100A      1.701885   101A      1.723373
     102A      1.733647   103A      1.826167   104A      1.850917
     105A      1.871899   106A      1.879560   107A      1.883826
     108A      1.885486   109A      1.901476   110A      1.912600
     111A      1.942011   112A      1.950891   113A      1.956285
     114A      1.971129   115A      1.983326   116A      1.996268
     117A      2.013959   118A      2.024144   119A      2.033035
     120A      2.037969   121A      2.071187   122A      2.080550
     123A      2.105198   124A      2.137739   125A      2.177048
     126A      2.199611   127A      2.233372   128A      2.286986
     129A      2.309946   130A      2.315940   131A      2.343859
     132A      2.387362   133A      2.418989   134A      2.447985
     135A      2.467888   136A      2.480683   137A      2.526349
     138A      2.563976   139A      2.585727   140A      2.590588
     141A      2.624090   142A      2.659147   143A      2.691791
     144A      2.734212   145A      2.740361   146A      2.772729
     147A      2.798330   148A      2.802841   149A      2.807986
     150A      2.823966   151A      2.883033   152A      2.928000
     153A      2.960667   154A      2.975301   155A      2.995263
     156A      3.091294   157A      3.113308   158A      3.150064
     159A      3.274899   160A      3.503564   161A      3.547145
     162A      3.872764   163A      3.956013

    Final Occupation by Irrep:
              A
    DOCC [    29 ]

  @RHF Final Energy:  -326.25907750761149

   => Energetics <=

    Nuclear Repulsion Energy =            307.1545431511026436
    One-Electron Energy =               -1051.8534366081435110
    Two-Electron Energy =                 418.4398159494293736
    Total Energy =                       -326.2590775076114937

Computation Completed

Properties will be evaluated at   0.000000,   0.000000,   0.000000 [a0]

Properties computed using the SCF density matrix

  Nuclear Dipole Moment: [e a0]
     X:    -0.6250      Y:     4.5002      Z:    -4.5205

  Electronic Dipole Moment: [e a0]
     X:     0.7640      Y:    -6.1982      Z:     3.9998

  Dipole Moment: [e a0]
     X:     0.1390      Y:    -1.6980      Z:    -0.5206     Total:     1.7815

  Dipole Moment: [D]
     X:     0.3533      Y:    -4.3159      Z:    -1.3233     Total:     4.5280

*** tstop() called on ds3 at Mon Apr 27 04:09:09 2020
Module time:
	user time   =      28.83 seconds =       0.48 minutes
	system time =      12.73 seconds =       0.21 minutes
	total time  =         43 seconds =       0.72 minutes
Total time:
	user time   =      28.83 seconds =       0.48 minutes
	system time =      12.73 seconds =       0.21 minutes
	total time  =         43 seconds =       0.72 minutes
                                     G D M A

                                 by Anthony Stone

                           version 2.2.06, 22 June 2011

               Distributed Multipoles from Gaussian wavefunctions

Starting at 4:9:9 on 27 Apr 2020

Using SCF density matrix from file ./SSI/SSI-025GLN-029LYS-1-dimer.test.22890.fchk

                         Distributed Multipole Analysis

Standard DMA

Positions and radii in angstrom
Multipole moments in atomic units, ea_0^k for rank k

C          x =  1.796361  y = -2.206496  z =  0.955489 angstrom
           Maximum rank =  0   Radius =  0.650 angstrom
                   Q00  =  -0.272505

C          x =  0.494361  y = -1.485496  z =  0.638489 angstrom
           Maximum rank =  0   Radius =  0.650 angstrom
                   Q00  =   0.821111

O          x =  0.232361  y = -0.380496  z =  1.105489 angstrom
           Maximum rank =  0   Radius =  0.650 angstrom
                   Q00  =  -0.788338

N          x = -0.345639  y = -2.124496  z = -0.149511 angstrom
           Maximum rank =  0   Radius =  0.650 angstrom
                   Q00  =  -0.519224

H          x =  1.632361  y = -2.794496  z =  1.857489 angstrom
           Maximum rank =  0   Radius =  0.325 angstrom
                   Q00  =   0.129053

H          x =  2.571361  y = -1.479496  z =  1.189489 angstrom
           Maximum rank =  0   Radius =  0.325 angstrom
                   Q00  =   0.133867

H          x = -1.215639  y = -1.696496  z = -0.410511 angstrom
           Maximum rank =  0   Radius =  0.325 angstrom
                   Q00  =   0.225947

H          x = -0.142639  y = -3.063496  z = -0.458511 angstrom
           Maximum rank =  0   Radius =  0.325 angstrom
                   Q00  =   0.201933

H          x =  2.124684  y = -2.897176  z =  0.164819 angstrom
           Maximum rank =  0   Radius =  0.325 angstrom
                   Q00  =   0.086457

C          x = -0.773639  y =  2.192504  z = -0.279511 angstrom
           Maximum rank =  0   Radius =  0.650 angstrom
                   Q00  =  -0.103853

C          x =  0.437361  y =  2.632504  z = -1.081511 angstrom
           Maximum rank =  0   Radius =  0.650 angstrom
                   Q00  =  -0.233253

C          x = -1.804639  y =  1.450504  z = -1.126511 angstrom
           Maximum rank =  0   Radius =  0.650 angstrom
                   Q00  =  -0.235311

H          x = -0.473639  y =  1.637504  z =  0.582489 angstrom
           Maximum rank =  0   Radius =  0.325 angstrom
                   Q00  =   0.102523

H          x = -1.245639  y =  3.098504  z =  0.101489 angstrom
           Maximum rank =  0   Radius =  0.325 angstrom
                   Q00  =   0.024114

H          x =  0.218361  y =  3.562504  z = -1.608511 angstrom
           Maximum rank =  0   Radius =  0.325 angstrom
                   Q00  =   0.072010

H          x =  0.683361  y =  1.856504  z = -1.806511 angstrom
           Maximum rank =  0   Radius =  0.325 angstrom
                   Q00  =   0.062853

H          x = -2.290639  y =  2.155504  z = -1.811511 angstrom
           Maximum rank =  0   Radius =  0.325 angstrom
                   Q00  =   0.068466

H          x = -1.274639  y =  0.709504  z = -1.735511 angstrom
           Maximum rank =  0   Radius =  0.325 angstrom
                   Q00  =   0.057233

H          x =  1.290019  y =  2.765464  z = -0.399384 angstrom
           Maximum rank =  0   Radius =  0.325 angstrom
                   Q00  =   0.087542

H          x = -2.546282  y =  0.941404  z = -0.493437 angstrom
           Maximum rank =  0   Radius =  0.325 angstrom
                   Q00  =   0.079373

Total multipoles referred to origin at
           x =   0.000000,  y =    0.000000,  z =    0.000000 angstrom
                   Q00  =  -0.000000

Finished at 4:9:9 on 27 Apr 2020

  DMA results are available in the Python driver through the
	  variable('DMA DISTRIBUTED MULTIPOLES')
  and
	  variable('DMA TOTAL MULTIPOLES')
  commands.

    Psi4 stopped on: Monday, 27 April 2020 04:09AM
    Psi4 wall time for execution: 0:00:43.59

*** Psi4 exiting successfully. Buy a developer a beer!
