                               Psi4 1.3.2 release

  ==> Input File <==

--------------------------------------------------------------------------
import numpy as np
set {scf_type pk
basis cc-pvdz
d_convergence 10
gdma_switch   0
gdma_limit    0
gdma_origin   [ 0.0,  0.0,  0.0 ]
}
molecule test {
    units Angstrom
    0 1
    --
    0 1
    C               -0.660057686211184     1.171089534394170    -0.718665135036738
    C               -0.216057686211184     2.313089534394170     0.187334864963262
    O                0.437942313788816     0.700089534394170    -1.458665135036737
    H               -1.066057686211184     0.367089534394170    -0.107665135036738
    H               -1.437057686211184     1.517089534394170    -1.401665135036738
    H                0.557942313788816     1.945089534394170     0.862334864963263
    H                0.199942313788816    -0.161910465605830    -1.848665135036738
    H               -1.058027686211184     2.730693534394169     0.758914864963262
    H                0.203952313788816     3.118350534394170    -0.433265135036738
    C               -0.400057686211184    -1.922910465605830     1.491334864963262
    C                0.806942313788816    -2.245910465605830     0.628334864963263
    H               -0.714057686211184    -2.812910465605830     2.040334864963262
    H               -0.137057686211184    -1.142910465605830     2.206334864963263
    H               -1.238057686211184    -1.565910465605830     0.894334864963263
    H                1.125942313788816    -1.341910465605830     0.109334864963262
    H                0.565362313788816    -3.024082465605830    -0.110645135036738
    H                1.633762313788816    -2.587693465605830     1.268304864963262

}
e, wfn = energy('scf', return_wfn=True)
gdma(wfn)
dmavals = variable('DMA DISTRIBUTED MULTIPOLES')
charges = np.array(dmavals)
print(charges)
np.save('SSI-095SER-114THR-1-dimer.npy', np.array(charges))--------------------------------------------------------------------------

*** tstart() called on ds3
*** at Mon Apr 27 13:55:42 2020

   => Loading Basis Set <=

    Name: CC-PVDZ
    Role: ORBITAL
    Keyword: BASIS
    atoms 1-2, 10-11 entry C          line   138 file /theoryfs2/ds/metcalf/miniconda2/envs/tf2gpu/share/psi4/basis/cc-pvdz.gbs
    atoms 3          entry O          line   198 file /theoryfs2/ds/metcalf/miniconda2/envs/tf2gpu/share/psi4/basis/cc-pvdz.gbs
    atoms 4-9, 12-17 entry H          line    22 file /theoryfs2/ds/metcalf/miniconda2/envs/tf2gpu/share/psi4/basis/cc-pvdz.gbs

         ---------------------------------------------------------
                                   SCF
               by Justin Turney, Rob Parrish, Andy Simmonett
                          and Daniel G. A. Smith
                              RHF Reference
                        1 Threads,    500 MiB Core
         ---------------------------------------------------------

  ==> Geometry <==

    Molecular point group: c1
    Full point group: C1

    Geometry (in Angstrom), charge = 0, multiplicity = 1:

       Center              X                  Y                   Z               Mass
    ------------   -----------------  -----------------  -----------------  -----------------
         C           -0.660057686211     1.171089534394    -0.718665135037    12.000000000000
         C           -0.216057686211     2.313089534394     0.187334864963    12.000000000000
         O            0.437942313789     0.700089534394    -1.458665135037    15.994914619570
         H           -1.066057686211     0.367089534394    -0.107665135037     1.007825032230
         H           -1.437057686211     1.517089534394    -1.401665135037     1.007825032230
         H            0.557942313789     1.945089534394     0.862334864963     1.007825032230
         H            0.199942313789    -0.161910465606    -1.848665135037     1.007825032230
         H           -1.058027686211     2.730693534394     0.758914864963     1.007825032230
         H            0.203952313789     3.118350534394    -0.433265135037     1.007825032230
         C           -0.400057686211    -1.922910465606     1.491334864963    12.000000000000
         C            0.806942313789    -2.245910465606     0.628334864963    12.000000000000
         H           -0.714057686211    -2.812910465606     2.040334864963     1.007825032230
         H           -0.137057686211    -1.142910465606     2.206334864963     1.007825032230
         H           -1.238057686211    -1.565910465606     0.894334864963     1.007825032230
         H            1.125942313789    -1.341910465606     0.109334864963     1.007825032230
         H            0.565362313789    -3.024082465606    -0.110645135037     1.007825032230
         H            1.633762313789    -2.587693465606     1.268304864963     1.007825032230

  Running in c1 symmetry.

  Rotational constants: A =      0.20944  B =      0.05524  C =      0.04844 [cm^-1]
  Rotational constants: A =   6278.86705  B =   1656.03181  C =   1452.09515 [MHz]
  Nuclear repulsion =  185.085100772870021

  Charge       = 0
  Multiplicity = 1
  Electrons    = 44
  Nalpha       = 22
  Nbeta        = 22

  ==> Algorithm <==

  SCF Algorithm Type is PK.
  DIIS enabled.
  MOM disabled.
  Fractional occupation disabled.
  Guess Type is SAD.
  Energy threshold   = 1.00e-06
  Density threshold  = 1.00e-10
  Integral threshold = 0.00e+00

  ==> Primary Basis <==

  Basis Set: CC-PVDZ
    Blend: CC-PVDZ
    Number of shells: 66
    Number of basis function: 130
    Number of Cartesian functions: 135
    Spherical Harmonics?: true
    Max angular momentum: 2

  ==> Pre-Iterations <==

   -------------------------------------------------------
    Irrep   Nso     Nmo     Nalpha   Nbeta   Ndocc  Nsocc
   -------------------------------------------------------
     A        130     130       0       0       0       0
   -------------------------------------------------------
    Total     130     130      22      22      22       0
   -------------------------------------------------------

  ==> Integral Setup <==

  Using integral reordering PK algorithm.
  Sizing the integral batches needed.
  Building batch lookup table.
   Calculation information:
      Number of atoms:                  17
      Number of AO shells:              66
      Number of primitives:            170
      Number of atomic orbitals:       135
      Number of basis functions:       130

      Integral cutoff                 1.00e-12
      Number of threads:                 1

	Batch   1 pq = [       0,    8515] index = [             0,36256870] size =     36256870
  Task number: 4
  Buffer size: 11059200
  Buffer per thread: 2
  We computed 2212088 shell quartets total.
  Whereas there are 2445366 unique shell quartets.

  ==> DiskJK: Disk-Based J/K Matrices <==

    J tasked:                  Yes
    K tasked:                  Yes
    wK tasked:                  No
    Memory [MiB]:              375
    Schwarz Cutoff:          1E-12

    OpenMP threads:              1

  Minimum eigenvalue in the overlap matrix is 6.0408285275E-03.
  Using Symmetric Orthogonalization.

  SCF Guess: Superposition of Atomic Densities via on-the-fly atomic UHF.

  ==> Iterations <==

                        Total Energy        Delta E     RMS |[F,P]|

   @RHF iter SAD:  -232.12799550321978   -2.32128e+02   0.00000e+00
   @RHF iter   1:  -233.14291655855010   -1.01492e+00   4.22734e-03 DIIS
   @RHF iter   2:  -233.29231680879158   -1.49400e-01   2.00703e-03 DIIS
   @RHF iter   3:  -233.32254323967604   -3.02264e-02   3.86102e-04 DIIS
   @RHF iter   4:  -233.32464824145993   -2.10500e-03   1.27171e-04 DIIS
   @RHF iter   5:  -233.32479584539482   -1.47604e-04   2.41519e-05 DIIS
   @RHF iter   6:  -233.32480420974576   -8.36435e-06   4.23350e-06 DIIS
   @RHF iter   7:  -233.32480455692482   -3.47179e-07   1.11544e-06 DIIS
   @RHF iter   8:  -233.32480457728767   -2.03628e-08   3.58081e-07 DIIS
   @RHF iter   9:  -233.32480457964806   -2.36039e-09   8.44694e-08 DIIS
   @RHF iter  10:  -233.32480457981876   -1.70701e-10   1.54644e-08 DIIS
   @RHF iter  11:  -233.32480457982351   -4.74643e-12   4.39386e-09 DIIS
   @RHF iter  12:  -233.32480457982422   -7.10543e-13   1.49933e-09 DIIS
   @RHF iter  13:  -233.32480457982581   -1.59162e-12   3.92393e-10 DIIS
   @RHF iter  14:  -233.32480457982564    1.70530e-13   1.19984e-10 DIIS
   @RHF iter  15:  -233.32480457982547    1.70530e-13   4.50739e-11 DIIS
  Energy and wave function converged.

  ==> Post-Iterations <==

    Orbital Energies [Eh]
    ---------------------

    Doubly Occupied:

       1A    -20.552632     2A    -11.273358     3A    -11.220579
       4A    -11.219525     5A    -11.218578     6A     -1.356699
       7A     -1.022903     8A     -1.007239     9A     -0.838974
      10A     -0.831404    11A     -0.695141    12A     -0.647282
      13A     -0.600908    14A     -0.598630    15A     -0.567421
      16A     -0.533649    17A     -0.525314    18A     -0.505432
      19A     -0.489930    20A     -0.486821    21A     -0.474171
      22A     -0.433075

    Virtual:

      23A      0.164116    24A      0.200598    25A      0.210228
      26A      0.229728    27A      0.243713    28A      0.256918
      29A      0.264620    30A      0.270316    31A      0.279657
      32A      0.290252    33A      0.325085    34A      0.353565
      35A      0.387097    36A      0.399603    37A      0.403705
      38A      0.592071    39A      0.597417    40A      0.608612
      41A      0.617218    42A      0.633160    43A      0.659955
      44A      0.690756    45A      0.714202    46A      0.755196
      47A      0.791873    48A      0.830861    49A      0.848267
      50A      0.870324    51A      0.877759    52A      0.887775
      53A      0.893131    54A      0.896141    55A      0.905201
      56A      0.910713    57A      0.917582    58A      0.938671
      59A      0.972614    60A      0.978717    61A      0.992016
      62A      1.122491    63A      1.127803    64A      1.139766
      65A      1.162954    66A      1.219973    67A      1.235794
      68A      1.268468    69A      1.396895    70A      1.444391
      71A      1.469385    72A      1.482350    73A      1.498769
      74A      1.518971    75A      1.558574    76A      1.572753
      77A      1.622627    78A      1.683056    79A      1.691032
      80A      1.704531    81A      1.777888    82A      1.849977
      83A      1.868846    84A      1.872680    85A      1.893802
      86A      1.903055    87A      1.916078    88A      1.920390
      89A      1.942418    90A      1.953529    91A      1.957247
      92A      1.961693    93A      1.965633    94A      1.969361
      95A      1.984062    96A      1.996348    97A      2.022810
      98A      2.100996    99A      2.110059   100A      2.124299
     101A      2.198767   102A      2.245871   103A      2.276561
     104A      2.302681   105A      2.306895   106A      2.326679
     107A      2.448182   108A      2.460248   109A      2.476149
     110A      2.524989   111A      2.540452   112A      2.563030
     113A      2.573556   114A      2.583453   115A      2.758424
     116A      2.764048   117A      2.783453   118A      2.791891
     119A      2.806644   120A      2.856428   121A      2.865375
     122A      2.896614   123A      2.939113   124A      2.954635
     125A      2.979670   126A      3.322096   127A      3.422908
     128A      3.466551   129A      3.625182   130A      4.102757

    Final Occupation by Irrep:
              A
    DOCC [    22 ]

  @RHF Final Energy:  -233.32480457982547

   => Energetics <=

    Nuclear Repulsion Energy =            185.0851007728700210
    One-Electron Energy =                -682.6204848635559301
    Two-Electron Energy =                 264.2105795108604411
    Total Energy =                       -233.3248045798254680

Computation Completed

Properties will be evaluated at   0.000000,   0.000000,   0.000000 [a0]

Properties computed using the SCF density matrix

  Nuclear Dipole Moment: [e a0]
     X:    -1.2761      Y:    -2.7706      Z:     3.9660

  Electronic Dipole Moment: [e a0]
     X:     0.7262      Y:     2.4789      Z:    -3.9005

  Dipole Moment: [e a0]
     X:    -0.5499      Y:    -0.2917      Z:     0.0655     Total:     0.6259

  Dipole Moment: [D]
     X:    -1.3976      Y:    -0.7415      Z:     0.1665     Total:     1.5909

*** tstop() called on ds3 at Mon Apr 27 13:56:00 2020
Module time:
	user time   =      13.77 seconds =       0.23 minutes
	system time =       5.52 seconds =       0.09 minutes
	total time  =         18 seconds =       0.30 minutes
Total time:
	user time   =      13.77 seconds =       0.23 minutes
	system time =       5.52 seconds =       0.09 minutes
	total time  =         18 seconds =       0.30 minutes
                                     G D M A

                                 by Anthony Stone

                           version 2.2.06, 22 June 2011

               Distributed Multipoles from Gaussian wavefunctions

Starting at 13:56:1 on 27 Apr 2020

Using SCF density matrix from file ./SSI/SSI-095SER-114THR-1-dimer.test.8250.fchk

                         Distributed Multipole Analysis

Standard DMA

Positions and radii in angstrom
Multipole moments in atomic units, ea_0^k for rank k

C          x = -0.660058  y =  1.171090  z = -0.718665 angstrom
           Maximum rank =  0   Radius =  0.650 angstrom
                   Q00  =   0.092757

C          x = -0.216058  y =  2.313090  z =  0.187335 angstrom
           Maximum rank =  0   Radius =  0.650 angstrom
                   Q00  =  -0.240845

O          x =  0.437942  y =  0.700090  z = -1.458665 angstrom
           Maximum rank =  0   Radius =  0.650 angstrom
                   Q00  =  -0.580070

H          x = -1.066058  y =  0.367090  z = -0.107665 angstrom
           Maximum rank =  0   Radius =  0.325 angstrom
                   Q00  =   0.029962

H          x = -1.437058  y =  1.517090  z = -1.401665 angstrom
           Maximum rank =  0   Radius =  0.325 angstrom
                   Q00  =   0.045284

H          x =  0.557942  y =  1.945090  z =  0.862335 angstrom
           Maximum rank =  0   Radius =  0.325 angstrom
                   Q00  =   0.090691

H          x =  0.199942  y = -0.161910  z = -1.848665 angstrom
           Maximum rank =  0   Radius =  0.325 angstrom
                   Q00  =   0.394462

H          x = -1.058028  y =  2.730694  z =  0.758915 angstrom
           Maximum rank =  0   Radius =  0.325 angstrom
                   Q00  =   0.084822

H          x =  0.203952  y =  3.118351  z = -0.433265 angstrom
           Maximum rank =  0   Radius =  0.325 angstrom
                   Q00  =   0.090894

C          x = -0.400058  y = -1.922910  z =  1.491335 angstrom
           Maximum rank =  0   Radius =  0.650 angstrom
                   Q00  =  -0.234233

C          x =  0.806942  y = -2.245910  z =  0.628335 angstrom
           Maximum rank =  0   Radius =  0.650 angstrom
                   Q00  =  -0.228475

H          x = -0.714058  y = -2.812910  z =  2.040335 angstrom
           Maximum rank =  0   Radius =  0.325 angstrom
                   Q00  =   0.078254

H          x = -0.137058  y = -1.142910  z =  2.206335 angstrom
           Maximum rank =  0   Radius =  0.325 angstrom
                   Q00  =   0.079308

H          x = -1.238058  y = -1.565910  z =  0.894335 angstrom
           Maximum rank =  0   Radius =  0.325 angstrom
                   Q00  =   0.071755

H          x =  1.125942  y = -1.341910  z =  0.109335 angstrom
           Maximum rank =  0   Radius =  0.325 angstrom
                   Q00  =   0.072160

H          x =  0.565362  y = -3.024082  z = -0.110645 angstrom
           Maximum rank =  0   Radius =  0.325 angstrom
                   Q00  =   0.071861

H          x =  1.633762  y = -2.587693  z =  1.268305 angstrom
           Maximum rank =  0   Radius =  0.325 angstrom
                   Q00  =   0.081410

Total multipoles referred to origin at
           x =   0.000000,  y =    0.000000,  z =    0.000000 angstrom
                   Q00  =  -0.000000

Finished at 13:56:1 on 27 Apr 2020

  DMA results are available in the Python driver through the
	  variable('DMA DISTRIBUTED MULTIPOLES')
  and
	  variable('DMA TOTAL MULTIPOLES')
  commands.

    Psi4 stopped on: Monday, 27 April 2020 01:56PM
    Psi4 wall time for execution: 0:00:19.10

*** Psi4 exiting successfully. Buy a developer a beer!
