                               Psi4 1.3.2 release

  ==> Input File <==

--------------------------------------------------------------------------
import numpy as np
set {scf_type pk
basis cc-pvdz
d_convergence 10
gdma_switch   0
gdma_limit    0
gdma_origin   [ 0.0,  0.0,  0.0 ]
}
molecule test {
    units Angstrom
    -1 1
    --
    -1 1
    C               -0.103175019796738    -2.335644783901562    -1.704515676484587
    C                0.406824980203262    -0.947644783901561    -1.326515676484587
    O               -0.477175019796738    -0.093644783901562    -1.050515676484587
    O                1.634824980203262    -0.697644783901561    -1.321515676484587
    H               -0.886175019796738    -2.251644783901562    -2.461515676484587
    H               -0.562175019796738    -2.775644783901562    -0.816515676484587
    H                0.673824980203262    -3.029604783901561    -2.057635676484587
    C               -0.130175019796738     0.992355216098438     2.048484323515413
    C               -1.563175019796738     1.334355216098438     2.400484323515413
    O                0.259824980203262     1.611355216098439     0.864484323515413
    H                0.545824980203262     1.295355216098438     2.845484323515413
    H               -0.036175019796738    -0.087644783901562     1.923484323515413
    H               -1.825175019796738     0.827355216098439     3.328484323515414
    H                0.054824980203262     0.985355216098438     0.128484323515413
    H               -2.250595019796738     0.990265216098439     1.613684323515413
    H               -1.663615019796738     2.420995216098439     2.538774323515413

}
e, wfn = energy('scf', return_wfn=True)
gdma(wfn)
dmavals = variable('DMA DISTRIBUTED MULTIPOLES')
charges = np.array(dmavals)
print(charges)
np.save('SSI-221GLU-263SER-1-dimer.npy', np.array(charges))--------------------------------------------------------------------------

*** tstart() called on ds3
*** at Mon Apr 27 07:20:05 2020

   => Loading Basis Set <=

    Name: CC-PVDZ
    Role: ORBITAL
    Keyword: BASIS
    atoms 1-2, 8-9   entry C          line   138 file /theoryfs2/ds/metcalf/miniconda2/envs/tf2gpu/share/psi4/basis/cc-pvdz.gbs
    atoms 3-4, 10    entry O          line   198 file /theoryfs2/ds/metcalf/miniconda2/envs/tf2gpu/share/psi4/basis/cc-pvdz.gbs
    atoms 5-7, 11-16 entry H          line    22 file /theoryfs2/ds/metcalf/miniconda2/envs/tf2gpu/share/psi4/basis/cc-pvdz.gbs

         ---------------------------------------------------------
                                   SCF
               by Justin Turney, Rob Parrish, Andy Simmonett
                          and Daniel G. A. Smith
                              RHF Reference
                        1 Threads,    500 MiB Core
         ---------------------------------------------------------

  ==> Geometry <==

    Molecular point group: c1
    Full point group: C1

    Geometry (in Angstrom), charge = -1, multiplicity = 1:

       Center              X                  Y                   Z               Mass
    ------------   -----------------  -----------------  -----------------  -----------------
         C           -0.103175019797    -2.335644783902    -1.704515676485    12.000000000000
         C            0.406824980203    -0.947644783902    -1.326515676485    12.000000000000
         O           -0.477175019797    -0.093644783902    -1.050515676485    15.994914619570
         O            1.634824980203    -0.697644783902    -1.321515676485    15.994914619570
         H           -0.886175019797    -2.251644783902    -2.461515676485     1.007825032230
         H           -0.562175019797    -2.775644783902    -0.816515676485     1.007825032230
         H            0.673824980203    -3.029604783902    -2.057635676485     1.007825032230
         C           -0.130175019797     0.992355216098     2.048484323515    12.000000000000
         C           -1.563175019797     1.334355216098     2.400484323515    12.000000000000
         O            0.259824980203     1.611355216098     0.864484323515    15.994914619570
         H            0.545824980203     1.295355216098     2.845484323515     1.007825032230
         H           -0.036175019797    -0.087644783902     1.923484323515     1.007825032230
         H           -1.825175019797     0.827355216098     3.328484323515     1.007825032230
         H            0.054824980203     0.985355216098     0.128484323515     1.007825032230
         H           -2.250595019797     0.990265216098     1.613684323515     1.007825032230
         H           -1.663615019797     2.420995216098     2.538774323515     1.007825032230

  Running in c1 symmetry.

  Rotational constants: A =      0.16292  B =      0.03485  C =      0.03166 [cm^-1]
  Rotational constants: A =   4884.23176  B =   1044.89686  C =    949.28398 [MHz]
  Nuclear repulsion =  300.956553367690447

  Charge       = -1
  Multiplicity = 1
  Electrons    = 58
  Nalpha       = 29
  Nbeta        = 29

  ==> Algorithm <==

  SCF Algorithm Type is PK.
  DIIS enabled.
  MOM disabled.
  Fractional occupation disabled.
  Guess Type is SAD.
  Energy threshold   = 1.00e-06
  Density threshold  = 1.00e-10
  Integral threshold = 0.00e+00

  ==> Primary Basis <==

  Basis Set: CC-PVDZ
    Blend: CC-PVDZ
    Number of shells: 69
    Number of basis function: 143
    Number of Cartesian functions: 150
    Spherical Harmonics?: true
    Max angular momentum: 2

  ==> Pre-Iterations <==

   -------------------------------------------------------
    Irrep   Nso     Nmo     Nalpha   Nbeta   Ndocc  Nsocc
   -------------------------------------------------------
     A        143     143       0       0       0       0
   -------------------------------------------------------
    Total     143     143      29      29      29       0
   -------------------------------------------------------

  ==> Integral Setup <==

  Using integral reordering PK algorithm.
  Sizing the integral batches needed.
  Building batch lookup table.
   Calculation information:
      Number of atoms:                  16
      Number of AO shells:              69
      Number of primitives:            199
      Number of atomic orbitals:       150
      Number of basis functions:       143

      Integral cutoff                 1.00e-12
      Number of threads:                 1

	Batch   1 pq = [       0,    9405] index = [             0,44231715] size =     44231715
	Batch   2 pq = [    9405,   10296] index = [      44231715,53008956] size =      8777241
  Task number: 5
  Buffer size: 11059200
  Buffer per thread: 2
  We computed 2373300 shell quartets total.
  Whereas there are 2917320 unique shell quartets.

  ==> DiskJK: Disk-Based J/K Matrices <==

    J tasked:                  Yes
    K tasked:                  Yes
    wK tasked:                  No
    Memory [MiB]:              375
    Schwarz Cutoff:          1E-12

    OpenMP threads:              1

  Minimum eigenvalue in the overlap matrix is 5.3844330200E-03.
  Using Symmetric Orthogonalization.

  SCF Guess: Superposition of Atomic Densities via on-the-fly atomic UHF.

  ==> Iterations <==

                        Total Energy        Delta E     RMS |[F,P]|

   @RHF iter SAD:  -379.70387509660395   -3.79704e+02   0.00000e+00
   @RHF iter   1:  -381.08585141163837   -1.38198e+00   5.24647e-03 DIIS
   @RHF iter   2:  -381.29137046304186   -2.05519e-01   2.96068e-03 DIIS
   @RHF iter   3:  -381.35546859200815   -6.40981e-02   4.45752e-04 DIIS
   @RHF iter   4:  -381.35814697488502   -2.67838e-03   1.72410e-04 DIIS
   @RHF iter   5:  -381.35854344376901   -3.96469e-04   3.59652e-05 DIIS
   @RHF iter   6:  -381.35856037343143   -1.69297e-05   1.60146e-05 DIIS
   @RHF iter   7:  -381.35856325169146   -2.87826e-06   3.25548e-06 DIIS
   @RHF iter   8:  -381.35856352678616   -2.75095e-07   1.53447e-06 DIIS
   @RHF iter   9:  -381.35856357654131   -4.97552e-08   6.55228e-07 DIIS
   @RHF iter  10:  -381.35856358943937   -1.28981e-08   2.17674e-07 DIIS
   @RHF iter  11:  -381.35856359091207   -1.47270e-09   7.02261e-08 DIIS
   @RHF iter  12:  -381.35856359102854   -1.16472e-10   1.87378e-08 DIIS
   @RHF iter  13:  -381.35856359103764   -9.09495e-12   4.03904e-09 DIIS
   @RHF iter  14:  -381.35856359103639    1.25056e-12   1.21909e-09 DIIS
   @RHF iter  15:  -381.35856359103690   -5.11591e-13   4.02998e-10 DIIS
   @RHF iter  16:  -381.35856359103536    1.53477e-12   1.49154e-10 DIIS
   @RHF iter  17:  -381.35856359103656   -1.19371e-12   6.18534e-11 DIIS
  Energy and wave function converged.

  ==> Post-Iterations <==

    Orbital Energies [Eh]
    ---------------------

    Doubly Occupied:

       1A    -20.349889     2A    -20.292244     3A    -20.285685
       4A    -11.144319     5A    -11.119230     6A    -11.087592
       7A    -11.068608     8A     -1.179664     9A     -1.166081
      10A     -1.063410    11A     -0.864440    12A     -0.813786
      13A     -0.686174    14A     -0.542463    15A     -0.513926
      16A     -0.472655    17A     -0.435852    18A     -0.428596
      19A     -0.426860    20A     -0.419632    21A     -0.403000
      22A     -0.374403    23A     -0.364445    24A     -0.327668
      25A     -0.307794    26A     -0.256565    27A     -0.210459
      28A     -0.199080    29A     -0.190582

    Virtual:

      30A      0.316546    31A      0.336654    32A      0.365530
      33A      0.372720    34A      0.378397    35A      0.396734
      36A      0.405621    37A      0.419559    38A      0.466903
      39A      0.500620    40A      0.534521    41A      0.555638
      42A      0.620719    43A      0.678526    44A      0.728247
      45A      0.742269    46A      0.753214    47A      0.800520
      48A      0.811997    49A      0.858062    50A      0.877513
      51A      0.904154    52A      0.943373    53A      0.960112
      54A      0.981905    55A      0.999395    56A      1.009861
      57A      1.018382    58A      1.019875    59A      1.025365
      60A      1.031788    61A      1.044828    62A      1.074094
      63A      1.079932    64A      1.088293    65A      1.118901
      66A      1.200316    67A      1.276034    68A      1.288243
      69A      1.312556    70A      1.323388    71A      1.334998
      72A      1.398031    73A      1.460580    74A      1.515042
      75A      1.527137    76A      1.561857    77A      1.580578
      78A      1.601506    79A      1.607981    80A      1.638499
      81A      1.657318    82A      1.704165    83A      1.725287
      84A      1.788421    85A      1.798243    86A      1.816728
      87A      1.830894    88A      1.850725    89A      1.882891
      90A      1.917373    91A      2.011182    92A      2.014825
      93A      2.018347    94A      2.036333    95A      2.066824
      96A      2.083290    97A      2.089039    98A      2.097581
      99A      2.116223   100A      2.130678   101A      2.139635
     102A      2.199724   103A      2.214336   104A      2.235393
     105A      2.252096   106A      2.310365   107A      2.321665
     108A      2.384286   109A      2.409252   110A      2.420304
     111A      2.462464   112A      2.530718   113A      2.559089
     114A      2.615552   115A      2.634713   116A      2.672557
     117A      2.692534   118A      2.699832   119A      2.738234
     120A      2.857889   121A      2.884987   122A      2.903634
     123A      2.917758   124A      2.945247   125A      2.950660
     126A      2.980122   127A      3.030840   128A      3.061190
     129A      3.237282   130A      3.251686   131A      3.325859
     132A      3.451552   133A      3.529857   134A      3.603009
     135A      3.612468   136A      3.672881   137A      3.759408
     138A      3.795730   139A      3.851217   140A      4.031843
     141A      4.058052   142A      4.173821   143A      4.359098

    Final Occupation by Irrep:
              A
    DOCC [    29 ]

  @RHF Final Energy:  -381.35856359103656

   => Energetics <=

    Nuclear Repulsion Energy =            300.9565533676904465
    One-Electron Energy =               -1130.6400296313406670
    Two-Electron Energy =                 448.3249126726136069
    Total Energy =                       -381.3585635910365568

Computation Completed

Properties will be evaluated at   0.000000,   0.000000,   0.000000 [a0]

Properties computed using the SCF density matrix

  Nuclear Dipole Moment: [e a0]
     X:    -5.5706      Y:    -1.5196      Z:     6.5951

  Electronic Dipole Moment: [e a0]
     X:     4.3584      Y:     0.9024      Z:    -5.2553

  Dipole Moment: [e a0]
     X:    -1.2122      Y:    -0.6172      Z:     1.3398     Total:     1.9093

  Dipole Moment: [D]
     X:    -3.0812      Y:    -1.5688      Z:     3.4054     Total:     4.8530

*** tstop() called on ds3 at Mon Apr 27 07:20:32 2020
Module time:
	user time   =      18.08 seconds =       0.30 minutes
	system time =       8.11 seconds =       0.14 minutes
	total time  =         27 seconds =       0.45 minutes
Total time:
	user time   =      18.08 seconds =       0.30 minutes
	system time =       8.11 seconds =       0.14 minutes
	total time  =         27 seconds =       0.45 minutes
                                     G D M A

                                 by Anthony Stone

                           version 2.2.06, 22 June 2011

               Distributed Multipoles from Gaussian wavefunctions

Starting at 7:20:32 on 27 Apr 2020

Using SCF density matrix from file ./SSI/SSI-221GLU-263SER-1-dimer.test.28272.fchk

                         Distributed Multipole Analysis

Standard DMA

Positions and radii in angstrom
Multipole moments in atomic units, ea_0^k for rank k

C          x = -0.103175  y = -2.335645  z = -1.704516 angstrom
           Maximum rank =  0   Radius =  0.650 angstrom
                   Q00  =  -0.262708

C          x =  0.406825  y = -0.947645  z = -1.326516 angstrom
           Maximum rank =  0   Radius =  0.650 angstrom
                   Q00  =   0.905425

O          x = -0.477175  y = -0.093645  z = -1.050516 angstrom
           Maximum rank =  0   Radius =  0.650 angstrom
                   Q00  =  -0.941723

O          x =  1.634825  y = -0.697645  z = -1.321516 angstrom
           Maximum rank =  0   Radius =  0.650 angstrom
                   Q00  =  -0.880221

H          x = -0.886175  y = -2.251645  z = -2.461516 angstrom
           Maximum rank =  0   Radius =  0.325 angstrom
                   Q00  =   0.074911

H          x = -0.562175  y = -2.775645  z = -0.816516 angstrom
           Maximum rank =  0   Radius =  0.325 angstrom
                   Q00  =   0.076258

H          x =  0.673825  y = -3.029605  z = -2.057636 angstrom
           Maximum rank =  0   Radius =  0.325 angstrom
                   Q00  =   0.054103

C          x = -0.130175  y =  0.992355  z =  2.048484 angstrom
           Maximum rank =  0   Radius =  0.650 angstrom
                   Q00  =   0.200598

C          x = -1.563175  y =  1.334355  z =  2.400484 angstrom
           Maximum rank =  0   Radius =  0.650 angstrom
                   Q00  =  -0.271739

O          x =  0.259825  y =  1.611355  z =  0.864484 angstrom
           Maximum rank =  0   Radius =  0.650 angstrom
                   Q00  =  -0.710799

H          x =  0.545825  y =  1.295355  z =  2.845484 angstrom
           Maximum rank =  0   Radius =  0.325 angstrom
                   Q00  =   0.010997

H          x = -0.036175  y = -0.087645  z =  1.923484 angstrom
           Maximum rank =  0   Radius =  0.325 angstrom
                   Q00  =   0.020123

H          x = -1.825175  y =  0.827355  z =  3.328484 angstrom
           Maximum rank =  0   Radius =  0.325 angstrom
                   Q00  =   0.031980

H          x =  0.054825  y =  0.985355  z =  0.128484 angstrom
           Maximum rank =  0   Radius =  0.325 angstrom
                   Q00  =   0.544181

H          x = -2.250595  y =  0.990265  z =  1.613684 angstrom
           Maximum rank =  0   Radius =  0.325 angstrom
                   Q00  =   0.089279

H          x = -1.663615  y =  2.420995  z =  2.538774 angstrom
           Maximum rank =  0   Radius =  0.325 angstrom
                   Q00  =   0.059335

Total multipoles referred to origin at
           x =   0.000000,  y =    0.000000,  z =    0.000000 angstrom
                   Q00  =  -1.000000

Finished at 7:20:32 on 27 Apr 2020

  DMA results are available in the Python driver through the
	  variable('DMA DISTRIBUTED MULTIPOLES')
  and
	  variable('DMA TOTAL MULTIPOLES')
  commands.

    Psi4 stopped on: Monday, 27 April 2020 07:20AM
    Psi4 wall time for execution: 0:00:26.33

*** Psi4 exiting successfully. Buy a developer a beer!
