                               Psi4 1.3.2 release

  ==> Input File <==

--------------------------------------------------------------------------
import numpy as np
set {scf_type pk
basis cc-pvdz
d_convergence 10
gdma_switch   0
gdma_limit    0
gdma_origin   [ 0.0,  0.0,  0.0 ]
}
molecule test {
    units Angstrom
    0 1
    --
    0 1
    C               -2.199775463013607    -2.191279311058482    -0.134268272596344
    C               -0.086775463013607    -0.968279311058482    -0.852268272596344
    C               -1.391775463013607    -1.388279311058482    -1.113268272596344
    C                0.616224536986393    -0.219279311058482    -1.798268272596344
    C                0.032224536986393     0.100720688941518    -3.002268272596344
    C               -1.961775463013607    -1.060279311058482    -2.335268272596344
    C               -1.260775463013607    -0.315279311058482    -3.276268272596344
    H                0.382224536986393    -1.143279311058482     0.086731727403656
    H                1.622224536986393     0.115720688941518    -1.585268272596344
    H               -2.584775463013607    -3.066279311058482    -0.646268272596344
    H               -3.053775463013607    -1.574279311058483     0.148731727403656
    H                0.579224536986393     0.685720688941518    -3.728268272596344
    H               -2.965775463013607    -1.389279311058482    -2.563268272596344
    H               -1.714775463013607    -0.100279311058482    -4.228268272596345
    H               -1.686805463013607    -2.501363311058483     0.788071727403656
    C                1.197224536986393     0.549720688941518     2.251731727403656
    C                1.289224536986393    -0.164279311058482     3.614731727403656
    S                1.433224536986393     2.351720688941518     2.298731727403656
    H                1.923224536986393     0.111720688941518     1.564731727403656
    H                0.207224536986393     0.355720688941518     1.843731727403656
    H                0.922224536986393    -1.182279311058482     3.510731727403656
    H                2.727224536986393     2.306720688941517     2.660731727403656
    H                0.687120536986393     0.348651688941518     4.379171727403656
    H                2.328710536986393    -0.221665311058482     3.969941727403656

}
e, wfn = energy('scf', return_wfn=True)
gdma(wfn)
dmavals = variable('DMA DISTRIBUTED MULTIPOLES')
charges = np.array(dmavals)
print(charges)
np.save('SSI-007PHE-160CYS-1-dimer.npy', np.array(charges))--------------------------------------------------------------------------

*** tstart() called on ds3
*** at Tue Apr 28 08:58:50 2020

   => Loading Basis Set <=

    Name: CC-PVDZ
    Role: ORBITAL
    Keyword: BASIS
    atoms 1-7, 16-17  entry C          line   138 file /theoryfs2/ds/metcalf/miniconda2/envs/tf2gpu/share/psi4/basis/cc-pvdz.gbs
    atoms 8-15, 19-24 entry H          line    22 file /theoryfs2/ds/metcalf/miniconda2/envs/tf2gpu/share/psi4/basis/cc-pvdz.gbs
    atoms 18          entry S          line   598 file /theoryfs2/ds/metcalf/miniconda2/envs/tf2gpu/share/psi4/basis/cc-pvdz.gbs

         ---------------------------------------------------------
                                   SCF
               by Justin Turney, Rob Parrish, Andy Simmonett
                          and Daniel G. A. Smith
                              RHF Reference
                        1 Threads,    500 MiB Core
         ---------------------------------------------------------

  ==> Geometry <==

    Molecular point group: c1
    Full point group: C1

    Geometry (in Angstrom), charge = 0, multiplicity = 1:

       Center              X                  Y                   Z               Mass
    ------------   -----------------  -----------------  -----------------  -----------------
         C           -2.199775463014    -2.191279311058    -0.134268272596    12.000000000000
         C           -0.086775463014    -0.968279311058    -0.852268272596    12.000000000000
         C           -1.391775463014    -1.388279311058    -1.113268272596    12.000000000000
         C            0.616224536986    -0.219279311058    -1.798268272596    12.000000000000
         C            0.032224536986     0.100720688942    -3.002268272596    12.000000000000
         C           -1.961775463014    -1.060279311058    -2.335268272596    12.000000000000
         C           -1.260775463014    -0.315279311058    -3.276268272596    12.000000000000
         H            0.382224536986    -1.143279311058     0.086731727404     1.007825032230
         H            1.622224536986     0.115720688942    -1.585268272596     1.007825032230
         H           -2.584775463014    -3.066279311058    -0.646268272596     1.007825032230
         H           -3.053775463014    -1.574279311058     0.148731727404     1.007825032230
         H            0.579224536986     0.685720688942    -3.728268272596     1.007825032230
         H           -2.965775463014    -1.389279311058    -2.563268272596     1.007825032230
         H           -1.714775463014    -0.100279311058    -4.228268272596     1.007825032230
         H           -1.686805463014    -2.501363311058     0.788071727404     1.007825032230
         C            1.197224536986     0.549720688942     2.251731727404    12.000000000000
         C            1.289224536986    -0.164279311058     3.614731727404    12.000000000000
         S            1.433224536986     2.351720688942     2.298731727404    31.972071174400
         H            1.923224536986     0.111720688942     1.564731727404     1.007825032230
         H            0.207224536986     0.355720688942     1.843731727404     1.007825032230
         H            0.922224536986    -1.182279311058     3.510731727404     1.007825032230
         H            2.727224536986     2.306720688942     2.660731727404     1.007825032230
         H            0.687120536986     0.348651688942     4.379171727404     1.007825032230
         H            2.328710536986    -0.221665311058     3.969941727404     1.007825032230

  Running in c1 symmetry.

  Rotational constants: A =      0.05320  B =      0.01389  C =      0.01183 [cm^-1]
  Rotational constants: A =   1594.90880  B =    416.47074  C =    354.54755 [MHz]
  Nuclear repulsion =  538.928854200168189

  Charge       = 0
  Multiplicity = 1
  Electrons    = 84
  Nalpha       = 42
  Nbeta        = 42

  ==> Algorithm <==

  SCF Algorithm Type is PK.
  DIIS enabled.
  MOM disabled.
  Fractional occupation disabled.
  Guess Type is SAD.
  Energy threshold   = 1.00e-06
  Density threshold  = 1.00e-10
  Integral threshold = 0.00e+00

  ==> Primary Basis <==

  Basis Set: CC-PVDZ
    Blend: CC-PVDZ
    Number of shells: 104
    Number of basis function: 214
    Number of Cartesian functions: 224
    Spherical Harmonics?: true
    Max angular momentum: 2

  ==> Pre-Iterations <==

   -------------------------------------------------------
    Irrep   Nso     Nmo     Nalpha   Nbeta   Ndocc  Nsocc
   -------------------------------------------------------
     A        214     214       0       0       0       0
   -------------------------------------------------------
    Total     214     214      42      42      42       0
   -------------------------------------------------------

  ==> Integral Setup <==

  Using integral reordering PK algorithm.
  Sizing the integral batches needed.
  Building batch lookup table.
   Calculation information:
      Number of atoms:                  24
      Number of AO shells:             104
      Number of primitives:            318
      Number of atomic orbitals:       224
      Number of basis functions:       214

      Integral cutoff                 1.00e-12
      Number of threads:                 1

	Batch   1 pq = [       0,    9405] index = [             0,44231715] size =     44231715
	Batch   2 pq = [    9405,   13301] index = [      44231715,88464951] size =     44233236
	Batch   3 pq = [   13301,   16290] index = [      88464951,132690195] size =     44225244
	Batch   4 pq = [   16290,   18810] index = [     132690195,176917455] size =     44227260
	Batch   5 pq = [   18810,   21030] index = [     176917455,221140965] size =     44223510
	Batch   6 pq = [   21030,   23005] index = [     221140965,264626515] size =     43485550
  Task number: 24
  Buffer size: 11059200
  Buffer per thread: 2
  We computed 12305340 shell quartets total.
  Whereas there are 14908530 unique shell quartets.

  ==> DiskJK: Disk-Based J/K Matrices <==

    J tasked:                  Yes
    K tasked:                  Yes
    wK tasked:                  No
    Memory [MiB]:              375
    Schwarz Cutoff:          1E-12

    OpenMP threads:              1

  Minimum eigenvalue in the overlap matrix is 2.9486589785E-04.
  Using Symmetric Orthogonalization.

  SCF Guess: Superposition of Atomic Densities via on-the-fly atomic UHF.

  ==> Iterations <==

                        Total Energy        Delta E     RMS |[F,P]|

   @RHF iter SAD:  -745.52865325822120   -7.45529e+02   0.00000e+00
   @RHF iter   1:  -746.29325812906768   -7.64605e-01   2.60631e-03 DIIS
   @RHF iter   2:  -746.48897519001093   -1.95717e-01   1.04977e-03 DIIS
   @RHF iter   3:  -746.51701657677143   -2.80414e-02   2.49670e-04 DIIS
   @RHF iter   4:  -746.51969764019475   -2.68106e-03   5.60200e-05 DIIS
   @RHF iter   5:  -746.51980269953663   -1.05059e-04   1.60355e-05 DIIS
   @RHF iter   6:  -746.51981151351242   -8.81398e-06   4.82958e-06 DIIS
   @RHF iter   7:  -746.51981242342299   -9.09911e-07   1.63871e-06 DIIS
   @RHF iter   8:  -746.51981254468194   -1.21259e-07   4.66350e-07 DIIS
   @RHF iter   9:  -746.51981256513272   -2.04508e-08   1.84394e-07 DIIS
   @RHF iter  10:  -746.51981256924057   -4.10785e-09   8.73814e-08 DIIS
   @RHF iter  11:  -746.51981257047066   -1.23009e-09   3.35361e-08 DIIS
   @RHF iter  12:  -746.51981257066529   -1.94632e-10   1.05703e-08 DIIS
   @RHF iter  13:  -746.51981257067564   -1.03455e-11   3.57292e-09 DIIS
   @RHF iter  14:  -746.51981257067723   -1.59162e-12   1.24425e-09 DIIS
   @RHF iter  15:  -746.51981257067609    1.13687e-12   4.24812e-10 DIIS
   @RHF iter  16:  -746.51981257067803   -1.93268e-12   1.47572e-10 DIIS
   @RHF iter  17:  -746.51981257067769    3.41061e-13   5.69043e-11 DIIS
  Energy and wave function converged.

  ==> Post-Iterations <==

    Orbital Energies [Eh]
    ---------------------

    Doubly Occupied:

       1A    -91.945416     2A    -11.265592     3A    -11.242305
       4A    -11.234467     5A    -11.233901     6A    -11.233468
       7A    -11.231363     8A    -11.229529     9A    -11.229108
      10A    -11.227806    11A     -8.948336    12A     -6.630379
      13A     -6.628961    14A     -6.626610    15A     -1.155869
      16A     -1.066916    17A     -1.048425    18A     -1.012629
      19A     -0.942444    20A     -0.934776    21A     -0.827812
      22A     -0.819657    23A     -0.796987    24A     -0.693610
      25A     -0.633648    26A     -0.632932    27A     -0.631537
      28A     -0.590710    29A     -0.582293    30A     -0.579306
      31A     -0.566259    32A     -0.547196    33A     -0.539446
      34A     -0.520255    35A     -0.496871    36A     -0.487943
      37A     -0.485674    38A     -0.481247    39A     -0.445233
      40A     -0.351525    41A     -0.332122    42A     -0.323333

    Virtual:

      43A      0.134279    44A      0.143010    45A      0.152533
      46A      0.173936    47A      0.190847    48A      0.200385
      49A      0.218057    50A      0.223528    51A      0.232798
      52A      0.244059    53A      0.258085    54A      0.265704
      55A      0.271093    56A      0.276865    57A      0.284619
      58A      0.301611    59A      0.323594    60A      0.361313
      61A      0.371187    62A      0.386160    63A      0.456207
      64A      0.463609    65A      0.473644    66A      0.494284
      67A      0.514770    68A      0.557510    69A      0.578734
      70A      0.591177    71A      0.595758    72A      0.607608
      73A      0.627093    74A      0.649680    75A      0.683917
      76A      0.691356    77A      0.696779    78A      0.702395
      79A      0.712945    80A      0.723612    81A      0.728117
      82A      0.741687    83A      0.745084    84A      0.749514
      85A      0.758483    86A      0.763461    87A      0.776810
      88A      0.788768    89A      0.800986    90A      0.820880
      91A      0.828077    92A      0.834922    93A      0.850452
      94A      0.859263    95A      0.869845    96A      0.872484
      97A      0.875520    98A      0.881723    99A      0.893330
     100A      0.895567   101A      0.907271   102A      0.914869
     103A      0.922226   104A      0.937251   105A      0.938236
     106A      0.957631   107A      0.968645   108A      0.971415
     109A      1.006980   110A      1.015046   111A      1.035632
     112A      1.055066   113A      1.130178   114A      1.137192
     115A      1.150954   116A      1.167347   117A      1.180810
     118A      1.201004   119A      1.224727   120A      1.239905
     121A      1.247453   122A      1.248727   123A      1.261486
     124A      1.269451   125A      1.291723   126A      1.309330
     127A      1.313594   128A      1.320360   129A      1.344509
     130A      1.398208   131A      1.426694   132A      1.460874
     133A      1.518378   134A      1.530919   135A      1.577259
     136A      1.589141   137A      1.597584   138A      1.626621
     139A      1.669838   140A      1.680550   141A      1.682649
     142A      1.719690   143A      1.736460   144A      1.744886
     145A      1.752616   146A      1.763442   147A      1.796511
     148A      1.811754   149A      1.844044   150A      1.856988
     151A      1.863145   152A      1.886901   153A      1.894263
     154A      1.895482   155A      1.900905   156A      1.916617
     157A      1.919615   158A      1.927201   159A      1.945578
     160A      1.956491   161A      1.960361   162A      1.963644
     163A      1.982462   164A      1.988401   165A      1.995079
     166A      2.017749   167A      2.030715   168A      2.042192
     169A      2.064883   170A      2.084257   171A      2.104477
     172A      2.117103   173A      2.135844   174A      2.165396
     175A      2.172260   176A      2.183442   177A      2.208542
     178A      2.226358   179A      2.253185   180A      2.273801
     181A      2.281131   182A      2.289405   183A      2.303326
     184A      2.313753   185A      2.323595   186A      2.388415
     187A      2.402044   188A      2.436525   189A      2.452428
     190A      2.484654   191A      2.508992   192A      2.538552
     193A      2.541160   194A      2.556939   195A      2.650710
     196A      2.723534   197A      2.745586   198A      2.751843
     199A      2.772605   200A      2.792520   201A      2.797029
     202A      2.814546   203A      2.839540   204A      2.847885
     205A      2.865694   206A      2.887385   207A      2.950760
     208A      2.996827   209A      3.014068   210A      3.060360
     211A      3.180993   212A      3.220923   213A      3.318057
     214A      3.985598

    Final Occupation by Irrep:
              A
    DOCC [    42 ]

  @RHF Final Energy:  -746.51981257067769

   => Energetics <=

    Nuclear Repulsion Energy =            538.9288542001681890
    One-Electron Energy =               -2090.0295410890416861
    Two-Electron Energy =                 804.5808743181958107
    Total Energy =                       -746.5198125706776864

Computation Completed

Properties will be evaluated at   0.000000,   0.000000,   0.000000 [a0]

Properties computed using the SCF density matrix

  Nuclear Dipole Moment: [e a0]
     X:    -0.5495      Y:    -6.7388      Z:     5.8741

  Electronic Dipole Moment: [e a0]
     X:     0.6648      Y:     6.0928      Z:    -5.7466

  Dipole Moment: [e a0]
     X:     0.1153      Y:    -0.6460      Z:     0.1276     Total:     0.6684

  Dipole Moment: [D]
     X:     0.2930      Y:    -1.6419      Z:     0.3242     Total:     1.6990

*** tstop() called on ds3 at Tue Apr 28 09:01:12 2020
Module time:
	user time   =     103.93 seconds =       1.73 minutes
	system time =      44.44 seconds =       0.74 minutes
	total time  =        142 seconds =       2.37 minutes
Total time:
	user time   =     103.93 seconds =       1.73 minutes
	system time =      44.44 seconds =       0.74 minutes
	total time  =        142 seconds =       2.37 minutes
                                     G D M A

                                 by Anthony Stone

                           version 2.2.06, 22 June 2011

               Distributed Multipoles from Gaussian wavefunctions

Starting at 9:1:12 on 28 Apr 2020

Using SCF density matrix from file ./SSI/SSI-007PHE-160CYS-1-dimer.test.16856.fchk

                         Distributed Multipole Analysis

Standard DMA

Positions and radii in angstrom
Multipole moments in atomic units, ea_0^k for rank k

C          x = -2.199775  y = -2.191279  z = -0.134268 angstrom
           Maximum rank =  0   Radius =  0.650 angstrom
                   Q00  =  -0.210349

C          x = -0.086775  y = -0.968279  z = -0.852268 angstrom
           Maximum rank =  0   Radius =  0.650 angstrom
                   Q00  =  -0.089276

C          x = -1.391775  y = -1.388279  z = -1.113268 angstrom
           Maximum rank =  0   Radius =  0.650 angstrom
                   Q00  =  -0.092049

C          x =  0.616225  y = -0.219279  z = -1.798268 angstrom
           Maximum rank =  0   Radius =  0.650 angstrom
                   Q00  =  -0.059123

C          x =  0.032225  y =  0.100721  z = -3.002268 angstrom
           Maximum rank =  0   Radius =  0.650 angstrom
                   Q00  =  -0.084145

C          x = -1.961775  y = -1.060279  z = -2.335268 angstrom
           Maximum rank =  0   Radius =  0.650 angstrom
                   Q00  =   0.007031

C          x = -1.260775  y = -0.315279  z = -3.276268 angstrom
           Maximum rank =  0   Radius =  0.650 angstrom
                   Q00  =  -0.064574

H          x =  0.382225  y = -1.143279  z =  0.086732 angstrom
           Maximum rank =  0   Radius =  0.325 angstrom
                   Q00  =   0.047072

H          x =  1.622225  y =  0.115721  z = -1.585268 angstrom
           Maximum rank =  0   Radius =  0.325 angstrom
                   Q00  =   0.062894

H          x = -2.584775  y = -3.066279  z = -0.646268 angstrom
           Maximum rank =  0   Radius =  0.325 angstrom
                   Q00  =   0.103494

H          x = -3.053775  y = -1.574279  z =  0.148732 angstrom
           Maximum rank =  0   Radius =  0.325 angstrom
                   Q00  =   0.101053

H          x =  0.579225  y =  0.685721  z = -3.728268 angstrom
           Maximum rank =  0   Radius =  0.325 angstrom
                   Q00  =   0.059380

H          x = -2.965775  y = -1.389279  z = -2.563268 angstrom
           Maximum rank =  0   Radius =  0.325 angstrom
                   Q00  =   0.052638

H          x = -1.714775  y = -0.100279  z = -4.228268 angstrom
           Maximum rank =  0   Radius =  0.325 angstrom
                   Q00  =   0.064926

H          x = -1.686805  y = -2.501363  z =  0.788072 angstrom
           Maximum rank =  0   Radius =  0.325 angstrom
                   Q00  =   0.098945

C          x =  1.197225  y =  0.549721  z =  2.251732 angstrom
           Maximum rank =  0   Radius =  0.650 angstrom
                   Q00  =  -0.180589

C          x =  1.289225  y = -0.164279  z =  3.614732 angstrom
           Maximum rank =  0   Radius =  0.650 angstrom
                   Q00  =  -0.247666

S          x =  1.433225  y =  2.351721  z =  2.298732 angstrom
           Maximum rank =  0   Radius =  0.650 angstrom
                   Q00  =  -0.093622

H          x =  1.923225  y =  0.111721  z =  1.564732 angstrom
           Maximum rank =  0   Radius =  0.325 angstrom
                   Q00  =   0.067012

H          x =  0.207225  y =  0.355721  z =  1.843732 angstrom
           Maximum rank =  0   Radius =  0.325 angstrom
                   Q00  =   0.088464

H          x =  0.922225  y = -1.182279  z =  3.510732 angstrom
           Maximum rank =  0   Radius =  0.325 angstrom
                   Q00  =   0.087228

H          x =  2.727225  y =  2.306721  z =  2.660732 angstrom
           Maximum rank =  0   Radius =  0.325 angstrom
                   Q00  =   0.103728

H          x =  0.687121  y =  0.348652  z =  4.379172 angstrom
           Maximum rank =  0   Radius =  0.325 angstrom
                   Q00  =   0.094668

H          x =  2.328711  y = -0.221665  z =  3.969942 angstrom
           Maximum rank =  0   Radius =  0.325 angstrom
                   Q00  =   0.082861

Total multipoles referred to origin at
           x =   0.000000,  y =    0.000000,  z =    0.000000 angstrom
                   Q00  =  -0.000000

Finished at 9:1:12 on 28 Apr 2020

  DMA results are available in the Python driver through the
	  variable('DMA DISTRIBUTED MULTIPOLES')
  and
	  variable('DMA TOTAL MULTIPOLES')
  commands.

    Psi4 stopped on: Tuesday, 28 April 2020 09:01AM
    Psi4 wall time for execution: 0:02:22.07

*** Psi4 exiting successfully. Buy a developer a beer!
