                               Psi4 1.3.2 release

  ==> Input File <==

--------------------------------------------------------------------------
import numpy as np
set {scf_type pk
basis cc-pvdz
d_convergence 10
gdma_switch   0
gdma_limit    0
gdma_origin   [ 0.0,  0.0,  0.0 ]
}
molecule test {
    units Angstrom
    0 1
    --
    0 1
    C                0.365063607110350     2.967163437496481     1.193113393805813
    C               -0.215936392889650     0.711163437496480     0.219113393805813
    C                0.754063607110350     1.593163437496480     0.701113393805813
    C                0.133063607110350    -0.569836562503519    -0.222886606194187
    C                2.076063607110350     1.165163437496481     0.768113393805813
    C                1.461063607110350    -0.981836562503519    -0.159886606194187
    C                2.435063607110350    -0.121836562503519     0.327113393805813
    O                1.824063607110350    -2.232836562503520    -0.549886606194187
    H               -1.250936392889650     1.023163437496481     0.188113393805813
    H               -0.612936392889650    -1.253836562503519    -0.598886606194187
    H               -0.710936392889650     3.106163437496480     1.074113393805813
    H                0.876063607110350     3.708163437496481     0.578113393805813
    H                2.836063607110349     1.831163437496481     1.151113393805813
    H                3.466063607110350    -0.442836562503519     0.377113393805813
    H                2.775063607110349    -2.367836562503519    -0.558886606194187
    H                0.642133607110350     3.145893437496480     2.242535393805813
    C               -3.508936392889651    -0.618836562503519    -0.608886606194187
    C               -4.567936392889650    -1.400836562503519    -1.360886606194187
    H               -2.812936392889651    -0.145836562503519    -1.299886606194187
    H               -3.987936392889651     0.170163437496480    -0.036886606194187
    H               -2.951936392889650    -1.279836562503519     0.057113393805813
    H               -5.233936392889651    -0.691836562503520    -1.853886606194187
    H               -4.095806392889650    -2.032726562503520    -2.127570606194187
    H               -5.165656392889650    -1.999266562503519    -0.657602606194187

}
e, wfn = energy('scf', return_wfn=True)
gdma(wfn)
dmavals = variable('DMA DISTRIBUTED MULTIPOLES')
charges = np.array(dmavals)
print(charges)
np.save('SSI-163TYR-184VAL-1-dimer.npy', np.array(charges))--------------------------------------------------------------------------

*** tstart() called on ds3
*** at Mon Apr 27 07:06:45 2020

   => Loading Basis Set <=

    Name: CC-PVDZ
    Role: ORBITAL
    Keyword: BASIS
    atoms 1-7, 17-18  entry C          line   138 file /theoryfs2/ds/metcalf/miniconda2/envs/tf2gpu/share/psi4/basis/cc-pvdz.gbs
    atoms 8           entry O          line   198 file /theoryfs2/ds/metcalf/miniconda2/envs/tf2gpu/share/psi4/basis/cc-pvdz.gbs
    atoms 9-16, 19-24 entry H          line    22 file /theoryfs2/ds/metcalf/miniconda2/envs/tf2gpu/share/psi4/basis/cc-pvdz.gbs

         ---------------------------------------------------------
                                   SCF
               by Justin Turney, Rob Parrish, Andy Simmonett
                          and Daniel G. A. Smith
                              RHF Reference
                        1 Threads,    500 MiB Core
         ---------------------------------------------------------

  ==> Geometry <==

    Molecular point group: c1
    Full point group: C1

    Geometry (in Angstrom), charge = 0, multiplicity = 1:

       Center              X                  Y                   Z               Mass
    ------------   -----------------  -----------------  -----------------  -----------------
         C            0.365063607110     2.967163437496     1.193113393806    12.000000000000
         C           -0.215936392890     0.711163437496     0.219113393806    12.000000000000
         C            0.754063607110     1.593163437496     0.701113393806    12.000000000000
         C            0.133063607110    -0.569836562504    -0.222886606194    12.000000000000
         C            2.076063607110     1.165163437496     0.768113393806    12.000000000000
         C            1.461063607110    -0.981836562504    -0.159886606194    12.000000000000
         C            2.435063607110    -0.121836562504     0.327113393806    12.000000000000
         O            1.824063607110    -2.232836562504    -0.549886606194    15.994914619570
         H           -1.250936392890     1.023163437496     0.188113393806     1.007825032230
         H           -0.612936392890    -1.253836562504    -0.598886606194     1.007825032230
         H           -0.710936392890     3.106163437496     1.074113393806     1.007825032230
         H            0.876063607110     3.708163437496     0.578113393806     1.007825032230
         H            2.836063607110     1.831163437496     1.151113393806     1.007825032230
         H            3.466063607110    -0.442836562504     0.377113393806     1.007825032230
         H            2.775063607110    -2.367836562504    -0.558886606194     1.007825032230
         H            0.642133607110     3.145893437496     2.242535393806     1.007825032230
         C           -3.508936392890    -0.618836562504    -0.608886606194    12.000000000000
         C           -4.567936392890    -1.400836562504    -1.360886606194    12.000000000000
         H           -2.812936392890    -0.145836562504    -1.299886606194     1.007825032230
         H           -3.987936392890     0.170163437496    -0.036886606194     1.007825032230
         H           -2.951936392890    -1.279836562504     0.057113393806     1.007825032230
         H           -5.233936392890    -0.691836562504    -1.853886606194     1.007825032230
         H           -4.095806392890    -2.032726562504    -2.127570606194     1.007825032230
         H           -5.165656392890    -1.999266562504    -0.657602606194     1.007825032230

  Running in c1 symmetry.

  Rotational constants: A =      0.04757  B =      0.02064  C =      0.01453 [cm^-1]
  Rotational constants: A =   1425.98471  B =    618.64956  C =    435.46779 [MHz]
  Nuclear repulsion =  485.812787818523020

  Charge       = 0
  Multiplicity = 1
  Electrons    = 76
  Nalpha       = 38
  Nbeta        = 38

  ==> Algorithm <==

  SCF Algorithm Type is PK.
  DIIS enabled.
  MOM disabled.
  Fractional occupation disabled.
  Guess Type is SAD.
  Energy threshold   = 1.00e-06
  Density threshold  = 1.00e-10
  Integral threshold = 0.00e+00

  ==> Primary Basis <==

  Basis Set: CC-PVDZ
    Blend: CC-PVDZ
    Number of shells: 102
    Number of basis function: 210
    Number of Cartesian functions: 220
    Spherical Harmonics?: true
    Max angular momentum: 2

  ==> Pre-Iterations <==

   -------------------------------------------------------
    Irrep   Nso     Nmo     Nalpha   Nbeta   Ndocc  Nsocc
   -------------------------------------------------------
     A        210     210       0       0       0       0
   -------------------------------------------------------
    Total     210     210      38      38      38       0
   -------------------------------------------------------

  ==> Integral Setup <==

  Using integral reordering PK algorithm.
  Sizing the integral batches needed.
  Building batch lookup table.
   Calculation information:
      Number of atoms:                  24
      Number of AO shells:             102
      Number of primitives:            290
      Number of atomic orbitals:       220
      Number of basis functions:       210

      Integral cutoff                 1.00e-12
      Number of threads:                 1

	Batch   1 pq = [       0,    9405] index = [             0,44231715] size =     44231715
	Batch   2 pq = [    9405,   13301] index = [      44231715,88464951] size =     44233236
	Batch   3 pq = [   13301,   16290] index = [      88464951,132690195] size =     44225244
	Batch   4 pq = [   16290,   18810] index = [     132690195,176917455] size =     44227260
	Batch   5 pq = [   18810,   21030] index = [     176917455,221140965] size =     44223510
	Batch   6 pq = [   21030,   22155] index = [     221140965,245433090] size =     24292125
  Task number: 23
  Buffer size: 11059200
  Buffer per thread: 2
  We computed 10645766 shell quartets total.
  Whereas there are 13799631 unique shell quartets.

  ==> DiskJK: Disk-Based J/K Matrices <==

    J tasked:                  Yes
    K tasked:                  Yes
    wK tasked:                  No
    Memory [MiB]:              375
    Schwarz Cutoff:          1E-12

    OpenMP threads:              1

  Minimum eigenvalue in the overlap matrix is 3.2415097473E-04.
  Using Symmetric Orthogonalization.

  SCF Guess: Superposition of Atomic Densities via on-the-fly atomic UHF.

  ==> Iterations <==

                        Total Energy        Delta E     RMS |[F,P]|

   @RHF iter SAD:  -422.69924546613805   -4.22699e+02   0.00000e+00
   @RHF iter   1:  -423.60010569703115   -9.00860e-01   2.97628e-03 DIIS
   @RHF iter   2:  -423.81700195264392   -2.16896e-01   1.24791e-03 DIIS
   @RHF iter   3:  -423.85147990227000   -3.44779e-02   2.82584e-04 DIIS
   @RHF iter   4:  -423.85435230841432   -2.87241e-03   1.13908e-04 DIIS
   @RHF iter   5:  -423.85468577809098   -3.33470e-04   2.09236e-05 DIIS
   @RHF iter   6:  -423.85470329326546   -1.75152e-05   6.40426e-06 DIIS
   @RHF iter   7:  -423.85470492454539   -1.63128e-06   2.09228e-06 DIIS
   @RHF iter   8:  -423.85470515516926   -2.30624e-07   7.96881e-07 DIIS
   @RHF iter   9:  -423.85470519596754   -4.07983e-08   3.30324e-07 DIIS
   @RHF iter  10:  -423.85470520446358   -8.49604e-09   1.43755e-07 DIIS
   @RHF iter  11:  -423.85470520712659   -2.66300e-09   6.18635e-08 DIIS
   @RHF iter  12:  -423.85470520758349   -4.56907e-10   2.90317e-08 DIIS
   @RHF iter  13:  -423.85470520765739   -7.38964e-11   8.11533e-09 DIIS
   @RHF iter  14:  -423.85470520766046   -3.06954e-12   2.08132e-09 DIIS
   @RHF iter  15:  -423.85470520766285   -2.38742e-12   6.89279e-10 DIIS
   @RHF iter  16:  -423.85470520766251    3.41061e-13   2.19863e-10 DIIS
   @RHF iter  17:  -423.85470520766336   -8.52651e-13   9.14278e-11 DIIS
  Energy and wave function converged.

  ==> Post-Iterations <==

    Orbital Energies [Eh]
    ---------------------

    Doubly Occupied:

       1A    -20.580329     2A    -11.297389     3A    -11.238528
       4A    -11.237345     5A    -11.232512     6A    -11.232185
       7A    -11.229210     8A    -11.227636     9A    -11.218430
      10A    -11.216033    11A     -1.399180    12A     -1.147460
      13A     -1.036231    14A     -1.022925    15A     -1.013011
      16A     -0.925270    17A     -0.844371    18A     -0.836919
      19A     -0.800199    20A     -0.731633    21A     -0.665263
      22A     -0.640782    23A     -0.608282    24A     -0.602481
      25A     -0.599860    26A     -0.584907    27A     -0.583211
      28A     -0.569175    29A     -0.563209    30A     -0.526144
      31A     -0.503203    32A     -0.495053    33A     -0.487712
      34A     -0.485394    35A     -0.480853    36A     -0.463854
      37A     -0.334687    38A     -0.301096

    Virtual:

      39A      0.129427    40A      0.157222    41A      0.179818
      42A      0.181198    43A      0.191256    44A      0.219345
      45A      0.222195    46A      0.242701    47A      0.251920
      48A      0.264123    49A      0.270742    50A      0.273588
      51A      0.277965    52A      0.291716    53A      0.313400
      54A      0.321540    55A      0.370790    56A      0.375854
      57A      0.417230    58A      0.427081    59A      0.452647
      60A      0.491558    61A      0.494300    62A      0.511931
      63A      0.597648    64A      0.608745    65A      0.612590
      66A      0.624541    67A      0.642970    68A      0.651050
      69A      0.672331    70A      0.687953    71A      0.692490
      72A      0.697115    73A      0.719632    74A      0.727507
      75A      0.736078    76A      0.741876    77A      0.769767
      78A      0.782357    79A      0.787841    80A      0.790105
      81A      0.815174    82A      0.823214    83A      0.842923
      84A      0.847710    85A      0.879995    86A      0.882345
      87A      0.888057    88A      0.890994    89A      0.893340
      90A      0.900842    91A      0.901831    92A      0.917148
      93A      0.928194    94A      0.938926    95A      0.942065
      96A      0.946794    97A      0.949406    98A      0.968193
      99A      0.989248   100A      1.022455   101A      1.041813
     102A      1.062861   103A      1.108796   104A      1.126979
     105A      1.140054   106A      1.144570   107A      1.154827
     108A      1.189059   109A      1.210068   110A      1.232452
     111A      1.248079   112A      1.255147   113A      1.282917
     114A      1.292185   115A      1.301946   116A      1.311838
     117A      1.353605   118A      1.361751   119A      1.385133
     120A      1.395651   121A      1.475976   122A      1.486236
     123A      1.504867   124A      1.520511   125A      1.526934
     126A      1.557825   127A      1.594520   128A      1.628523
     129A      1.632221   130A      1.678571   131A      1.681388
     132A      1.690729   133A      1.697884   134A      1.727835
     135A      1.751275   136A      1.783422   137A      1.802729
     138A      1.806450   139A      1.858562   140A      1.862557
     141A      1.886183   142A      1.890084   143A      1.900756
     144A      1.902184   145A      1.917268   146A      1.920335
     147A      1.930387   148A      1.945817   149A      1.948487
     150A      1.950018   151A      1.955543   152A      1.960321
     153A      1.966807   154A      1.981455   155A      1.999978
     156A      2.011179   157A      2.028912   158A      2.047033
     159A      2.063491   160A      2.071538   161A      2.082294
     162A      2.108245   163A      2.128947   164A      2.148294
     165A      2.171254   166A      2.188645   167A      2.201081
     168A      2.229826   169A      2.254652   170A      2.269986
     171A      2.304386   172A      2.316016   173A      2.337160
     174A      2.369394   175A      2.385177   176A      2.398071
     177A      2.446922   178A      2.461813   179A      2.470756
     180A      2.497330   181A      2.504272   182A      2.529225
     183A      2.542912   184A      2.576532   185A      2.591557
     186A      2.613896   187A      2.647395   188A      2.751777
     189A      2.763740   190A      2.772119   191A      2.790469
     192A      2.796895   193A      2.825985   194A      2.846057
     195A      2.848206   196A      2.851755   197A      2.890591
     198A      2.946837   199A      2.958506   200A      2.968691
     201A      3.006387   202A      3.088208   203A      3.125034
     204A      3.250582   205A      3.282734   206A      3.356527
     207A      3.574896   208A      3.662186   209A      3.984478
     210A      4.191005

    Final Occupation by Irrep:
              A
    DOCC [    38 ]

  @RHF Final Energy:  -423.85470520766336

   => Energetics <=

    Nuclear Repulsion Energy =            485.8127878185230202
    One-Electron Energy =               -1537.4110565006146771
    Two-Electron Energy =                 627.7435634744283561
    Total Energy =                       -423.8547052076633008

Computation Completed

Properties will be evaluated at   0.000000,   0.000000,   0.000000 [a0]

Properties computed using the SCF density matrix

  Nuclear Dipole Moment: [e a0]
     X:   -15.2041      Y:     2.5867      Z:    -1.3764

  Electronic Dipole Moment: [e a0]
     X:    15.6576      Y:    -2.2936      Z:     1.4906

  Dipole Moment: [e a0]
     X:     0.4534      Y:     0.2931      Z:     0.1142     Total:     0.5519

  Dipole Moment: [D]
     X:     1.1525      Y:     0.7450      Z:     0.2902     Total:     1.4027

*** tstop() called on ds3 at Mon Apr 27 07:10:10 2020
Module time:
	user time   =      80.20 seconds =       1.34 minutes
	system time =      35.07 seconds =       0.58 minutes
	total time  =        205 seconds =       3.42 minutes
Total time:
	user time   =      80.20 seconds =       1.34 minutes
	system time =      35.07 seconds =       0.58 minutes
	total time  =        205 seconds =       3.42 minutes
                                     G D M A

                                 by Anthony Stone

                           version 2.2.06, 22 June 2011

               Distributed Multipoles from Gaussian wavefunctions

Starting at 7:10:10 on 27 Apr 2020

Using SCF density matrix from file ./SSI/SSI-163TYR-184VAL-1-dimer.test.20970.fchk

                         Distributed Multipole Analysis

Standard DMA

Positions and radii in angstrom
Multipole moments in atomic units, ea_0^k for rank k

C          x =  0.365064  y =  2.967163  z =  1.193113 angstrom
           Maximum rank =  0   Radius =  0.650 angstrom
                   Q00  =  -0.196162

C          x = -0.215936  y =  0.711163  z =  0.219113 angstrom
           Maximum rank =  0   Radius =  0.650 angstrom
                   Q00  =   0.053179

C          x =  0.754064  y =  1.593163  z =  0.701113 angstrom
           Maximum rank =  0   Radius =  0.650 angstrom
                   Q00  =  -0.132081

C          x =  0.133064  y = -0.569837  z = -0.222887 angstrom
           Maximum rank =  0   Radius =  0.650 angstrom
                   Q00  =  -0.126677

C          x =  2.076064  y =  1.165163  z =  0.768113 angstrom
           Maximum rank =  0   Radius =  0.650 angstrom
                   Q00  =  -0.068376

C          x =  1.461064  y = -0.981837  z = -0.159887 angstrom
           Maximum rank =  0   Radius =  0.650 angstrom
                   Q00  =   0.297691

C          x =  2.435064  y = -0.121837  z =  0.327113 angstrom
           Maximum rank =  0   Radius =  0.650 angstrom
                   Q00  =  -0.159054

O          x =  1.824064  y = -2.232837  z = -0.549887 angstrom
           Maximum rank =  0   Radius =  0.650 angstrom
                   Q00  =  -0.654028

H          x = -1.250936  y =  1.023163  z =  0.188113 angstrom
           Maximum rank =  0   Radius =  0.325 angstrom
                   Q00  =   0.067876

H          x = -0.612936  y = -1.253837  z = -0.598887 angstrom
           Maximum rank =  0   Radius =  0.325 angstrom
                   Q00  =   0.079495

H          x = -0.710936  y =  3.106163  z =  1.074113 angstrom
           Maximum rank =  0   Radius =  0.325 angstrom
                   Q00  =   0.097121

H          x =  0.876064  y =  3.708163  z =  0.578113 angstrom
           Maximum rank =  0   Radius =  0.325 angstrom
                   Q00  =   0.096766

H          x =  2.836064  y =  1.831163  z =  1.151113 angstrom
           Maximum rank =  0   Radius =  0.325 angstrom
                   Q00  =   0.067845

H          x =  3.466064  y = -0.442837  z =  0.377113 angstrom
           Maximum rank =  0   Radius =  0.325 angstrom
                   Q00  =   0.070530

H          x =  2.775064  y = -2.367837  z = -0.558887 angstrom
           Maximum rank =  0   Radius =  0.325 angstrom
                   Q00  =   0.407109

H          x =  0.642134  y =  3.145893  z =  2.242535 angstrom
           Maximum rank =  0   Radius =  0.325 angstrom
                   Q00  =   0.098256

C          x = -3.508936  y = -0.618837  z = -0.608887 angstrom
           Maximum rank =  0   Radius =  0.650 angstrom
                   Q00  =  -0.236163

C          x = -4.567936  y = -1.400837  z = -1.360887 angstrom
           Maximum rank =  0   Radius =  0.650 angstrom
                   Q00  =  -0.232881

H          x = -2.812936  y = -0.145837  z = -1.299887 angstrom
           Maximum rank =  0   Radius =  0.325 angstrom
                   Q00  =   0.075343

H          x = -3.987936  y =  0.170163  z = -0.036887 angstrom
           Maximum rank =  0   Radius =  0.325 angstrom
                   Q00  =   0.076383

H          x = -2.951936  y = -1.279837  z =  0.057113 angstrom
           Maximum rank =  0   Radius =  0.325 angstrom
                   Q00  =   0.080028

H          x = -5.233936  y = -0.691837  z = -1.853887 angstrom
           Maximum rank =  0   Radius =  0.325 angstrom
                   Q00  =   0.076937

H          x = -4.095806  y = -2.032727  z = -2.127571 angstrom
           Maximum rank =  0   Radius =  0.325 angstrom
                   Q00  =   0.080632

H          x = -5.165656  y = -1.999267  z = -0.657603 angstrom
           Maximum rank =  0   Radius =  0.325 angstrom
                   Q00  =   0.080232

Total multipoles referred to origin at
           x =   0.000000,  y =    0.000000,  z =    0.000000 angstrom
                   Q00  =  -0.000000

Finished at 7:10:10 on 27 Apr 2020

  DMA results are available in the Python driver through the
	  variable('DMA DISTRIBUTED MULTIPOLES')
  and
	  variable('DMA TOTAL MULTIPOLES')
  commands.

    Psi4 stopped on: Monday, 27 April 2020 07:10AM
    Psi4 wall time for execution: 0:03:25.66

*** Psi4 exiting successfully. Buy a developer a beer!
