                               Psi4 1.3.2 release

  ==> Input File <==

--------------------------------------------------------------------------
import numpy as np
set {scf_type pk
basis cc-pvdz
d_convergence 10
gdma_switch   0
gdma_limit    0
gdma_origin   [ 0.0,  0.0,  0.0 ]
}
molecule test {
    units Angstrom
    0 1
    --
    0 1
    C               -2.124186341134586    -0.903474505767138    -2.560774439201680
    C               -1.928186341134586    -0.726474505767137    -1.064774439201680
    O               -1.198186341134586     0.155525494232863    -0.624774439201680
    N               -2.566186341134585    -1.572474505767137    -0.272774439201680
    H               -3.171186341134585    -1.138474505767137    -2.758774439201680
    H               -1.522186341134586    -1.758474505767137    -2.871774439201680
    H               -2.435186341134585    -1.484474505767137     0.724225560798320
    H               -3.140186341134586    -2.306474505767137    -0.659774439201680
    H               -1.825006341134586    -0.015954505767137    -3.137664439201680
    C                1.917813658865414     1.837525494232863     0.120225560798320
    C                1.914813658865414     0.730525494232863     1.164225560798320
    O                0.860813658865414     0.286525494232863     1.616225560798320
    N                3.094813658865415     0.279525494232863     1.562225560798320
    H                1.047813658865414     1.673525494232863    -0.512774439201680
    H                2.780813658865414     1.754525494232863    -0.535774439201680
    H                3.129813658865414    -0.463474505767137     2.246225560798320
    H                3.941813658865415     0.676525494232862     1.172225560798320
    H                1.819383658865414     2.841947494232862     0.557775560798320

}
e, wfn = energy('scf', return_wfn=True)
gdma(wfn)
dmavals = variable('DMA DISTRIBUTED MULTIPOLES')
charges = np.array(dmavals)
print(charges)
np.save('SSI-105ASN-146GLN-1-dimer.npy', np.array(charges))--------------------------------------------------------------------------

*** tstart() called on ds3
*** at Mon Apr 27 07:49:56 2020

   => Loading Basis Set <=

    Name: CC-PVDZ
    Role: ORBITAL
    Keyword: BASIS
    atoms 1-2, 10-11 entry C          line   138 file /theoryfs2/ds/metcalf/miniconda2/envs/tf2gpu/share/psi4/basis/cc-pvdz.gbs
    atoms 3, 12      entry O          line   198 file /theoryfs2/ds/metcalf/miniconda2/envs/tf2gpu/share/psi4/basis/cc-pvdz.gbs
    atoms 4, 13      entry N          line   168 file /theoryfs2/ds/metcalf/miniconda2/envs/tf2gpu/share/psi4/basis/cc-pvdz.gbs
    atoms 5-9, 14-18 entry H          line    22 file /theoryfs2/ds/metcalf/miniconda2/envs/tf2gpu/share/psi4/basis/cc-pvdz.gbs

         ---------------------------------------------------------
                                   SCF
               by Justin Turney, Rob Parrish, Andy Simmonett
                          and Daniel G. A. Smith
                              RHF Reference
                        1 Threads,    500 MiB Core
         ---------------------------------------------------------

  ==> Geometry <==

    Molecular point group: c1
    Full point group: C1

    Geometry (in Angstrom), charge = 0, multiplicity = 1:

       Center              X                  Y                   Z               Mass
    ------------   -----------------  -----------------  -----------------  -----------------
         C           -2.124186341135    -0.903474505767    -2.560774439202    12.000000000000
         C           -1.928186341135    -0.726474505767    -1.064774439202    12.000000000000
         O           -1.198186341135     0.155525494233    -0.624774439202    15.994914619570
         N           -2.566186341135    -1.572474505767    -0.272774439202    14.003074004430
         H           -3.171186341135    -1.138474505767    -2.758774439202     1.007825032230
         H           -1.522186341135    -1.758474505767    -2.871774439202     1.007825032230
         H           -2.435186341135    -1.484474505767     0.724225560798     1.007825032230
         H           -3.140186341135    -2.306474505767    -0.659774439202     1.007825032230
         H           -1.825006341135    -0.015954505767    -3.137664439202     1.007825032230
         C            1.917813658865     1.837525494233     0.120225560798    12.000000000000
         C            1.914813658865     0.730525494233     1.164225560798    12.000000000000
         O            0.860813658865     0.286525494233     1.616225560798    15.994914619570
         N            3.094813658865     0.279525494233     1.562225560798    14.003074004430
         H            1.047813658865     1.673525494233    -0.512774439202     1.007825032230
         H            2.780813658865     1.754525494233    -0.535774439202     1.007825032230
         H            3.129813658865    -0.463474505767     2.246225560798     1.007825032230
         H            3.941813658865     0.676525494233     1.172225560798     1.007825032230
         H            1.819383658865     2.841947494233     0.557775560798     1.007825032230

  Running in c1 symmetry.

  Rotational constants: A =      0.13160  B =      0.02182  C =      0.02004 [cm^-1]
  Rotational constants: A =   3945.23143  B =    654.08593  C =    600.80747 [MHz]
  Nuclear repulsion =  356.340348152787328

  Charge       = 0
  Multiplicity = 1
  Electrons    = 64
  Nalpha       = 32
  Nbeta        = 32

  ==> Algorithm <==

  SCF Algorithm Type is PK.
  DIIS enabled.
  MOM disabled.
  Fractional occupation disabled.
  Guess Type is SAD.
  Energy threshold   = 1.00e-06
  Density threshold  = 1.00e-10
  Integral threshold = 0.00e+00

  ==> Primary Basis <==

  Basis Set: CC-PVDZ
    Blend: CC-PVDZ
    Number of shells: 78
    Number of basis function: 162
    Number of Cartesian functions: 170
    Spherical Harmonics?: true
    Max angular momentum: 2

  ==> Pre-Iterations <==

   -------------------------------------------------------
    Irrep   Nso     Nmo     Nalpha   Nbeta   Ndocc  Nsocc
   -------------------------------------------------------
     A        162     162       0       0       0       0
   -------------------------------------------------------
    Total     162     162      32      32      32       0
   -------------------------------------------------------

  ==> Integral Setup <==

  Using integral reordering PK algorithm.
  Sizing the integral batches needed.
  Building batch lookup table.
   Calculation information:
      Number of atoms:                  18
      Number of AO shells:              78
      Number of primitives:            226
      Number of atomic orbitals:       170
      Number of basis functions:       162

      Integral cutoff                 1.00e-12
      Number of threads:                 1

	Batch   1 pq = [       0,    9405] index = [             0,44231715] size =     44231715
	Batch   2 pq = [    9405,   13203] index = [      44231715,87166206] size =     42934491
  Task number: 8
  Buffer size: 11059200
  Buffer per thread: 2
  We computed 3228212 shell quartets total.
  Whereas there are 4747821 unique shell quartets.

  ==> DiskJK: Disk-Based J/K Matrices <==

    J tasked:                  Yes
    K tasked:                  Yes
    wK tasked:                  No
    Memory [MiB]:              375
    Schwarz Cutoff:          1E-12

    OpenMP threads:              1

  Minimum eigenvalue in the overlap matrix is 4.6518868239E-03.
  Using Symmetric Orthogonalization.

  SCF Guess: Superposition of Atomic Densities via on-the-fly atomic UHF.

  ==> Iterations <==

                        Total Energy        Delta E     RMS |[F,P]|

   @RHF iter SAD:  -414.50256791100452   -4.14503e+02   0.00000e+00
   @RHF iter   1:  -415.67571624095677   -1.17315e+00   4.78420e-03 DIIS
   @RHF iter   2:  -415.89286296485511   -2.17147e-01   2.98488e-03 DIIS
   @RHF iter   3:  -415.97673865292927   -8.38757e-02   5.53301e-04 DIIS
   @RHF iter   4:  -415.98145281363344   -4.71416e-03   2.04131e-04 DIIS
   @RHF iter   5:  -415.98226334186950   -8.10528e-04   3.89255e-05 DIIS
   @RHF iter   6:  -415.98231974299011   -5.64011e-05   1.95456e-05 DIIS
   @RHF iter   7:  -415.98233026899948   -1.05260e-05   7.50217e-06 DIIS
   @RHF iter   8:  -415.98233230835172   -2.03935e-06   2.31014e-06 DIIS
   @RHF iter   9:  -415.98233251625481   -2.07903e-07   6.65213e-07 DIIS
   @RHF iter  10:  -415.98233252617911   -9.92429e-09   3.13460e-07 DIIS
   @RHF iter  11:  -415.98233252806523   -1.88612e-09   4.95162e-08 DIIS
   @RHF iter  12:  -415.98233252814128   -7.60565e-11   1.33155e-08 DIIS
   @RHF iter  13:  -415.98233252814572   -4.43379e-12   3.69521e-09 DIIS
   @RHF iter  14:  -415.98233252814561    1.13687e-13   1.41415e-09 DIIS
   @RHF iter  15:  -415.98233252814742   -1.81899e-12   4.67534e-10 DIIS
   @RHF iter  16:  -415.98233252814634    1.08002e-12   1.97497e-10 DIIS
   @RHF iter  17:  -415.98233252814561    7.38964e-13   8.86386e-11 DIIS
  Energy and wave function converged.

  ==> Post-Iterations <==

    Orbital Energies [Eh]
    ---------------------

    Doubly Occupied:

       1A    -20.489506     2A    -20.480071     3A    -15.575802
       4A    -15.573007     5A    -11.334113     6A    -11.326293
       7A    -11.235266     8A    -11.217180     9A     -1.355001
      10A     -1.344318    11A     -1.205023    12A     -1.198245
      13A     -0.990609    14A     -0.975225    15A     -0.787712
      16A     -0.780670    17A     -0.716259    18A     -0.711043
      19A     -0.641359    20A     -0.631789    21A     -0.603838
      22A     -0.590380    23A     -0.558985    24A     -0.552000
      25A     -0.545832    26A     -0.527623    27A     -0.511289
      28A     -0.501564    29A     -0.396539    30A     -0.391372
      31A     -0.385544    32A     -0.379886

    Virtual:

      33A      0.172752    34A      0.182022    35A      0.212140
      36A      0.218456    37A      0.227015    38A      0.230729
      39A      0.242265    40A      0.252105    41A      0.269696
      42A      0.285391    43A      0.292161    44A      0.324228
      45A      0.388716    46A      0.401087    47A      0.462234
      48A      0.509680    49A      0.559066    50A      0.580711
      51A      0.639291    52A      0.644728    53A      0.650107
      54A      0.685277    55A      0.708710    56A      0.716797
      57A      0.726088    58A      0.746044    59A      0.749715
      60A      0.755061    61A      0.757610    62A      0.776826
      63A      0.852410    64A      0.860196    65A      0.868137
      66A      0.882713    67A      0.894127    68A      0.921081
      69A      0.924403    70A      0.930449    71A      0.948898
      72A      0.969729    73A      1.014161    74A      1.020062
      75A      1.024738    76A      1.026973    77A      1.057310
      78A      1.073539    79A      1.122960    80A      1.141379
      81A      1.154562    82A      1.208951    83A      1.331218
      84A      1.342504    85A      1.354150    86A      1.379267
      87A      1.389771    88A      1.395819    89A      1.413749
      90A      1.420651    91A      1.450978    92A      1.478264
      93A      1.485934    94A      1.499348    95A      1.509207
      96A      1.551179    97A      1.644099    98A      1.662326
      99A      1.664188   100A      1.679254   101A      1.727299
     102A      1.755558   103A      1.818674   104A      1.827653
     105A      1.862341   106A      1.873493   107A      1.889297
     108A      1.900498   109A      1.904486   110A      1.917448
     111A      1.922502   112A      1.925748   113A      1.966702
     114A      1.974253   115A      1.982855   116A      2.008157
     117A      2.046611   118A      2.065441   119A      2.088663
     120A      2.101609   121A      2.149853   122A      2.173251
     123A      2.227068   124A      2.242074   125A      2.269073
     126A      2.311788   127A      2.418578   128A      2.424932
     129A      2.453651   130A      2.475453   131A      2.491365
     132A      2.507467   133A      2.551143   134A      2.565200
     135A      2.591228   136A      2.595036   137A      2.632357
     138A      2.633931   139A      2.716930   140A      2.747949
     141A      2.772198   142A      2.780015   143A      2.800045
     144A      2.821761   145A      2.871093   146A      2.883270
     147A      2.989749   148A      2.999492   149A      3.103745
     150A      3.111651   151A      3.152952   152A      3.161359
     153A      3.296826   154A      3.300421   155A      3.513045
     156A      3.522621   157A      3.545301   158A      3.549439
     159A      3.877273   160A      3.894787   161A      3.924925
     162A      3.954780

    Final Occupation by Irrep:
              A
    DOCC [    32 ]

  @RHF Final Energy:  -415.98233252814561

   => Energetics <=

    Nuclear Repulsion Energy =            356.3403481527873282
    One-Electron Energy =               -1275.6186767388471708
    Two-Electron Energy =                 503.2959960579142376
    Total Energy =                       -415.9823325281456050

Computation Completed

Properties will be evaluated at   0.000000,   0.000000,   0.000000 [a0]

Properties computed using the SCF density matrix

  Nuclear Dipole Moment: [e a0]
     X:     0.5836      Y:    -0.2011      Z:    -5.4139

  Electronic Dipole Moment: [e a0]
     X:    -0.1588      Y:    -0.7353      Z:     4.7046

  Dipole Moment: [e a0]
     X:     0.4248      Y:    -0.9365      Z:    -0.7093     Total:     1.2492

  Dipole Moment: [D]
     X:     1.0798      Y:    -2.3802      Z:    -1.8029     Total:     3.1752

*** tstop() called on ds3 at Mon Apr 27 07:50:46 2020
Module time:
	user time   =      25.54 seconds =       0.43 minutes
	system time =      12.78 seconds =       0.21 minutes
	total time  =         50 seconds =       0.83 minutes
Total time:
	user time   =      25.54 seconds =       0.43 minutes
	system time =      12.78 seconds =       0.21 minutes
	total time  =         50 seconds =       0.83 minutes
                                     G D M A

                                 by Anthony Stone

                           version 2.2.06, 22 June 2011

               Distributed Multipoles from Gaussian wavefunctions

Starting at 7:50:46 on 27 Apr 2020

Using SCF density matrix from file ./SSI/SSI-105ASN-146GLN-1-dimer.test.32753.fchk

                         Distributed Multipole Analysis

Standard DMA

Positions and radii in angstrom
Multipole moments in atomic units, ea_0^k for rank k

C          x = -2.124186  y = -0.903475  z = -2.560774 angstrom
           Maximum rank =  0   Radius =  0.650 angstrom
                   Q00  =  -0.258540

C          x = -1.928186  y = -0.726475  z = -1.064774 angstrom
           Maximum rank =  0   Radius =  0.650 angstrom
                   Q00  =   0.810774

O          x = -1.198186  y =  0.155525  z = -0.624774 angstrom
           Maximum rank =  0   Radius =  0.650 angstrom
                   Q00  =  -0.779031

N          x = -2.566186  y = -1.572475  z = -0.272774 angstrom
           Maximum rank =  0   Radius =  0.650 angstrom
                   Q00  =  -0.529528

H          x = -3.171186  y = -1.138475  z = -2.758774 angstrom
           Maximum rank =  0   Radius =  0.325 angstrom
                   Q00  =   0.084942

H          x = -1.522186  y = -1.758475  z = -2.871774 angstrom
           Maximum rank =  0   Radius =  0.325 angstrom
                   Q00  =   0.115458

H          x = -2.435186  y = -1.484475  z =  0.724226 angstrom
           Maximum rank =  0   Radius =  0.325 angstrom
                   Q00  =   0.232199

H          x = -3.140186  y = -2.306475  z = -0.659774 angstrom
           Maximum rank =  0   Radius =  0.325 angstrom
                   Q00  =   0.199382

H          x = -1.825006  y = -0.015955  z = -3.137664 angstrom
           Maximum rank =  0   Radius =  0.325 angstrom
                   Q00  =   0.127388

C          x =  1.917814  y =  1.837525  z =  0.120226 angstrom
           Maximum rank =  0   Radius =  0.650 angstrom
                   Q00  =  -0.277714

C          x =  1.914814  y =  0.730525  z =  1.164226 angstrom
           Maximum rank =  0   Radius =  0.650 angstrom
                   Q00  =   0.819077

O          x =  0.860814  y =  0.286525  z =  1.616226 angstrom
           Maximum rank =  0   Radius =  0.650 angstrom
                   Q00  =  -0.779233

N          x =  3.094814  y =  0.279525  z =  1.562226 angstrom
           Maximum rank =  0   Radius =  0.650 angstrom
                   Q00  =  -0.528592

H          x =  1.047814  y =  1.673525  z = -0.512774 angstrom
           Maximum rank =  0   Radius =  0.325 angstrom
                   Q00  =   0.150862

H          x =  2.780814  y =  1.754525  z = -0.535774 angstrom
           Maximum rank =  0   Radius =  0.325 angstrom
                   Q00  =   0.071201

H          x =  3.129814  y = -0.463475  z =  2.246226 angstrom
           Maximum rank =  0   Radius =  0.325 angstrom
                   Q00  =   0.215224

H          x =  3.941814  y =  0.676525  z =  1.172226 angstrom
           Maximum rank =  0   Radius =  0.325 angstrom
                   Q00  =   0.200165

H          x =  1.819384  y =  2.841947  z =  0.557776 angstrom
           Maximum rank =  0   Radius =  0.325 angstrom
                   Q00  =   0.125967

Total multipoles referred to origin at
           x =   0.000000,  y =    0.000000,  z =    0.000000 angstrom
                   Q00  =  -0.000000

Finished at 7:50:46 on 27 Apr 2020

  DMA results are available in the Python driver through the
	  variable('DMA DISTRIBUTED MULTIPOLES')
  and
	  variable('DMA TOTAL MULTIPOLES')
  commands.

    Psi4 stopped on: Monday, 27 April 2020 07:50AM
    Psi4 wall time for execution: 0:00:49.34

*** Psi4 exiting successfully. Buy a developer a beer!
