                               Psi4 1.3.2 release

  ==> Input File <==

--------------------------------------------------------------------------
import numpy as np
set {scf_type pk
basis cc-pvdz
d_convergence 10
gdma_switch   0
gdma_limit    0
gdma_origin   [ 0.0,  0.0,  0.0 ]
}
molecule test {
    units Angstrom
    0 1
    --
    0 1
    C               -0.395549149500136    -1.229157138310687     1.525147116320734
    C               -0.013549149500136    -1.772157138310687     2.889147116320734
    C                1.333450850499864    -2.874157138310687     0.100147116320733
    S               -0.417549149500136    -2.490157138310687     0.236147116320733
    H               -1.385549149500136    -0.774157138310688     1.587147116320733
    H                0.327450850499864    -0.465157138310687     1.267147116320734
    H                0.988450850499864    -2.199157138310687     2.854147116320734
    H               -0.714549149500136    -2.569157138310687     3.140147116320734
    H                1.689450850499864    -3.339157138310688     1.018147116320733
    H                1.494450850499864    -3.570157138310687    -0.718852883679267
    H                1.900450850499864    -1.964157138310688    -0.094852883679267
    H               -0.046719149500136    -1.003395138310687     3.675216116320733
    C                0.752450850499864     1.292842861689313    -0.999852883679267
    C                0.288450850499864     1.047842861689312    -2.423852883679266
    C               -1.489549149500136     2.820842861689313    -0.912852883679267
    S                0.194450850499864     2.843842861689313    -0.301852883679267
    H                0.345450850499864     0.488842861689313    -0.404852883679267
    H                1.829450850499864     1.259842861689313    -0.942852883679267
    H                0.644450850499864     1.850842861689313    -3.069852883679267
    H               -0.793549149500136     0.987842861689312    -2.473852883679267
    H               -1.992549149500136     1.904842861689312    -0.599852883679267
    H               -2.008549149500136     3.674842861689313    -0.484852883679267
    H               -1.522549149500136     2.919842861689313    -1.996852883679266
    H                0.657800850499864     0.078123861689313    -2.788855883679267

}
e, wfn = energy('scf', return_wfn=True)
gdma(wfn)
dmavals = variable('DMA DISTRIBUTED MULTIPOLES')
charges = np.array(dmavals)
print(charges)
np.save('SSI-205MET-224MET-1-dimer.npy', np.array(charges))--------------------------------------------------------------------------

*** tstart() called on ds3
*** at Mon Apr 27 17:15:34 2020

   => Loading Basis Set <=

    Name: CC-PVDZ
    Role: ORBITAL
    Keyword: BASIS
    atoms 1-3, 13-15  entry C          line   138 file /theoryfs2/ds/metcalf/miniconda2/envs/tf2gpu/share/psi4/basis/cc-pvdz.gbs
    atoms 4, 16       entry S          line   598 file /theoryfs2/ds/metcalf/miniconda2/envs/tf2gpu/share/psi4/basis/cc-pvdz.gbs
    atoms 5-12, 17-24 entry H          line    22 file /theoryfs2/ds/metcalf/miniconda2/envs/tf2gpu/share/psi4/basis/cc-pvdz.gbs

         ---------------------------------------------------------
                                   SCF
               by Justin Turney, Rob Parrish, Andy Simmonett
                          and Daniel G. A. Smith
                              RHF Reference
                        1 Threads,    500 MiB Core
         ---------------------------------------------------------

  ==> Geometry <==

    Molecular point group: c1
    Full point group: C1

    Geometry (in Angstrom), charge = 0, multiplicity = 1:

       Center              X                  Y                   Z               Mass
    ------------   -----------------  -----------------  -----------------  -----------------
         C           -0.395549149500    -1.229157138311     1.525147116321    12.000000000000
         C           -0.013549149500    -1.772157138311     2.889147116321    12.000000000000
         C            1.333450850500    -2.874157138311     0.100147116321    12.000000000000
         S           -0.417549149500    -2.490157138311     0.236147116321    31.972071174400
         H           -1.385549149500    -0.774157138311     1.587147116321     1.007825032230
         H            0.327450850500    -0.465157138311     1.267147116321     1.007825032230
         H            0.988450850500    -2.199157138311     2.854147116321     1.007825032230
         H           -0.714549149500    -2.569157138311     3.140147116321     1.007825032230
         H            1.689450850500    -3.339157138311     1.018147116321     1.007825032230
         H            1.494450850500    -3.570157138311    -0.718852883679     1.007825032230
         H            1.900450850500    -1.964157138311    -0.094852883679     1.007825032230
         H           -0.046719149500    -1.003395138311     3.675216116321     1.007825032230
         C            0.752450850500     1.292842861689    -0.999852883679    12.000000000000
         C            0.288450850500     1.047842861689    -2.423852883679    12.000000000000
         C           -1.489549149500     2.820842861689    -0.912852883679    12.000000000000
         S            0.194450850500     2.843842861689    -0.301852883679    31.972071174400
         H            0.345450850500     0.488842861689    -0.404852883679     1.007825032230
         H            1.829450850500     1.259842861689    -0.942852883679     1.007825032230
         H            0.644450850500     1.850842861689    -3.069852883679     1.007825032230
         H           -0.793549149500     0.987842861689    -2.473852883679     1.007825032230
         H           -1.992549149500     1.904842861689    -0.599852883679     1.007825032230
         H           -2.008549149500     3.674842861689    -0.484852883679     1.007825032230
         H           -1.522549149500     2.919842861689    -1.996852883679     1.007825032230
         H            0.657800850500     0.078123861689    -2.788855883679     1.007825032230

  Running in c1 symmetry.

  Rotational constants: A =      0.05986  B =      0.01689  C =      0.01510 [cm^-1]
  Rotational constants: A =   1794.44935  B =    506.23128  C =    452.70620 [MHz]
  Nuclear repulsion =  532.039558518218200

  Charge       = 0
  Multiplicity = 1
  Electrons    = 84
  Nalpha       = 42
  Nbeta        = 42

  ==> Algorithm <==

  SCF Algorithm Type is PK.
  DIIS enabled.
  MOM disabled.
  Fractional occupation disabled.
  Guess Type is SAD.
  Energy threshold   = 1.00e-06
  Density threshold  = 1.00e-10
  Integral threshold = 0.00e+00

  ==> Primary Basis <==

  Basis Set: CC-PVDZ
    Blend: CC-PVDZ
    Number of shells: 100
    Number of basis function: 200
    Number of Cartesian functions: 208
    Spherical Harmonics?: true
    Max angular momentum: 2

  ==> Pre-Iterations <==

   -------------------------------------------------------
    Irrep   Nso     Nmo     Nalpha   Nbeta   Ndocc  Nsocc
   -------------------------------------------------------
     A        200     200       0       0       0       0
   -------------------------------------------------------
    Total     200     200      42      42      42       0
   -------------------------------------------------------

  ==> Integral Setup <==

  Using integral reordering PK algorithm.
  Sizing the integral batches needed.
  Building batch lookup table.
   Calculation information:
      Number of atoms:                  24
      Number of AO shells:             100
      Number of primitives:            312
      Number of atomic orbitals:       208
      Number of basis functions:       200

      Integral cutoff                 1.00e-12
      Number of threads:                 1

	Batch   1 pq = [       0,    9405] index = [             0,44231715] size =     44231715
	Batch   2 pq = [    9405,   13301] index = [      44231715,88464951] size =     44233236
	Batch   3 pq = [   13301,   16290] index = [      88464951,132690195] size =     44225244
	Batch   4 pq = [   16290,   18810] index = [     132690195,176917455] size =     44227260
	Batch   5 pq = [   18810,   20100] index = [     176917455,202015050] size =     25097595
  Task number: 19
  Buffer size: 11059200
  Buffer per thread: 2
  We computed 10995483 shell quartets total.
  Whereas there are 12753775 unique shell quartets.

  ==> DiskJK: Disk-Based J/K Matrices <==

    J tasked:                  Yes
    K tasked:                  Yes
    wK tasked:                  No
    Memory [MiB]:              375
    Schwarz Cutoff:          1E-12

    OpenMP threads:              1

  Minimum eigenvalue in the overlap matrix is 4.8657254609E-03.
  Using Symmetric Orthogonalization.

  SCF Guess: Superposition of Atomic Densities via on-the-fly atomic UHF.

  ==> Iterations <==

                        Total Energy        Delta E     RMS |[F,P]|

   @RHF iter SAD: -1030.65677626447064   -1.03066e+03   0.00000e+00
   @RHF iter   1: -1031.38239876525768   -7.25623e-01   2.61512e-03 DIIS
   @RHF iter   2: -1031.55350920535943   -1.71110e-01   1.03049e-03 DIIS
   @RHF iter   3: -1031.57755242758594   -2.40432e-02   2.77219e-04 DIIS
   @RHF iter   4: -1031.58045189148379   -2.89946e-03   5.36295e-05 DIIS
   @RHF iter   5: -1031.58054406022484   -9.21687e-05   1.35424e-05 DIIS
   @RHF iter   6: -1031.58055000546142   -5.94524e-06   3.34912e-06 DIIS
   @RHF iter   7: -1031.58055042299088   -4.17529e-07   7.87546e-07 DIIS
   @RHF iter   8: -1031.58055045360379   -3.06129e-08   2.76533e-07 DIIS
   @RHF iter   9: -1031.58055045723063   -3.62684e-09   7.33539e-08 DIIS
   @RHF iter  10: -1031.58055045754782   -3.17186e-10   1.91438e-08 DIIS
   @RHF iter  11: -1031.58055045756419   -1.63709e-11   4.60144e-09 DIIS
   @RHF iter  12: -1031.58055045756873   -4.54747e-12   1.55023e-09 DIIS
   @RHF iter  13: -1031.58055045756760    1.13687e-12   5.86562e-10 DIIS
   @RHF iter  14: -1031.58055045757078   -3.18323e-12   2.10217e-10 DIIS
   @RHF iter  15: -1031.58055045757033    4.54747e-13   7.17806e-11 DIIS
  Energy and wave function converged.

  ==> Post-Iterations <==

    Orbital Energies [Eh]
    ---------------------

    Doubly Occupied:

       1A    -91.937734     2A    -91.931103     3A    -11.258360
       4A    -11.257666     5A    -11.251385     6A    -11.248850
       7A    -11.227429     8A    -11.224531     9A     -8.941815
      10A     -8.935680    11A     -6.623876    12A     -6.622303
      13A     -6.620145    14A     -6.617748    15A     -6.616186
      16A     -6.613930    17A     -1.088856    18A     -1.085838
      19A     -0.999788    20A     -0.991578    21A     -0.892193
      22A     -0.888292    23A     -0.789960    24A     -0.779072
      25A     -0.642527    26A     -0.633919    27A     -0.614520
      28A     -0.607344    29A     -0.588142    30A     -0.579863
      31A     -0.561939    32A     -0.551574    33A     -0.536482
      34A     -0.533287    35A     -0.515866    36A     -0.496782
      37A     -0.483235    38A     -0.476398    39A     -0.424897
      40A     -0.422314    41A     -0.336128    42A     -0.328070

    Virtual:

      43A      0.161984    44A      0.170126    45A      0.188222
      46A      0.195042    47A      0.218773    48A      0.228581
      49A      0.240509    50A      0.241490    51A      0.245902
      52A      0.249696    53A      0.257966    54A      0.261921
      55A      0.269610    56A      0.276497    57A      0.285299
      58A      0.298444    59A      0.300007    60A      0.308267
      61A      0.319109    62A      0.329926    63A      0.392990
      64A      0.405011    65A      0.526656    66A      0.547493
      67A      0.564276    68A      0.572768    69A      0.584513
      70A      0.590821    71A      0.610834    72A      0.613644
      73A      0.622893    74A      0.631071    75A      0.642415
      76A      0.663325    77A      0.686479    78A      0.697930
      79A      0.700764    80A      0.723449    81A      0.746977
      82A      0.783362    83A      0.796185    84A      0.804409
      85A      0.810741    86A      0.820849    87A      0.826399
      88A      0.830931    89A      0.849011    90A      0.855084
      91A      0.859662    92A      0.872535    93A      0.878389
      94A      0.882941    95A      0.891517    96A      0.892901
      97A      0.898992    98A      0.905478    99A      0.908378
     100A      0.923124   101A      0.926149   102A      0.931400
     103A      0.933441   104A      0.945460   105A      0.964540
     106A      0.979943   107A      0.991204   108A      0.992156
     109A      1.017510   110A      1.024151   111A      1.056995
     112A      1.102090   113A      1.160434   114A      1.211927
     115A      1.225034   116A      1.260680   117A      1.274036
     118A      1.287925   119A      1.299217   120A      1.315980
     121A      1.321443   122A      1.337320   123A      1.356231
     124A      1.377671   125A      1.407049   126A      1.449718
     127A      1.470181   128A      1.499784   129A      1.510563
     130A      1.538193   131A      1.614116   132A      1.628522
     133A      1.644819   134A      1.655446   135A      1.680326
     136A      1.686920   137A      1.696927   138A      1.772989
     139A      1.845311   140A      1.853614   141A      1.878696
     142A      1.881821   143A      1.884926   144A      1.888557
     145A      1.896796   146A      1.904511   147A      1.910079
     148A      1.920003   149A      1.927978   150A      1.938227
     151A      1.943518   152A      1.960138   153A      1.974826
     154A      1.992238   155A      1.999689   156A      2.011734
     157A      2.019207   158A      2.029398   159A      2.037830
     160A      2.050651   161A      2.055275   162A      2.061386
     163A      2.069517   164A      2.091368   165A      2.140050
     166A      2.146411   167A      2.216393   168A      2.235129
     169A      2.242414   170A      2.248056   171A      2.306131
     172A      2.307142   173A      2.338602   174A      2.349744
     175A      2.415127   176A      2.428958   177A      2.447918
     178A      2.461839   179A      2.480161   180A      2.484353
     181A      2.550657   182A      2.555438   183A      2.565054
     184A      2.635499   185A      2.759196   186A      2.761068
     187A      2.768022   188A      2.777720   189A      2.789825
     190A      2.794201   191A      2.800339   192A      2.813849
     193A      2.821008   194A      2.831017   195A      2.851110
     196A      2.882342   197A      2.897728   198A      2.930995
     199A      2.981520   200A      3.017634

    Final Occupation by Irrep:
              A
    DOCC [    42 ]

  @RHF Final Energy: -1031.58055045757033

   => Energetics <=

    Nuclear Repulsion Energy =            532.0395585182182003
    One-Electron Energy =               -2475.6850029948118390
    Two-Electron Energy =                 912.0648940190234271
    Total Energy =                      -1031.5805504575700979

Computation Completed

Properties will be evaluated at   0.000000,   0.000000,   0.000000 [a0]

Properties computed using the SCF density matrix

  Nuclear Dipole Moment: [e a0]
     X:     1.3191      Y:    -2.5401      Z:    -0.0332

  Electronic Dipole Moment: [e a0]
     X:    -1.1438      Y:     2.2604      Z:     0.0150

  Dipole Moment: [e a0]
     X:     0.1753      Y:    -0.2797      Z:    -0.0182     Total:     0.3306

  Dipole Moment: [D]
     X:     0.4455      Y:    -0.7108      Z:    -0.0463     Total:     0.8402

*** tstop() called on ds3 at Mon Apr 27 17:17:35 2020
Module time:
	user time   =      96.23 seconds =       1.60 minutes
	system time =      28.58 seconds =       0.48 minutes
	total time  =        121 seconds =       2.02 minutes
Total time:
	user time   =      96.23 seconds =       1.60 minutes
	system time =      28.58 seconds =       0.48 minutes
	total time  =        121 seconds =       2.02 minutes
                                     G D M A

                                 by Anthony Stone

                           version 2.2.06, 22 June 2011

               Distributed Multipoles from Gaussian wavefunctions

Starting at 17:17:35 on 27 Apr 2020

Using SCF density matrix from file ./SSI/SSI-205MET-224MET-1-dimer.test.16608.fchk

                         Distributed Multipole Analysis

Standard DMA

Positions and radii in angstrom
Multipole moments in atomic units, ea_0^k for rank k

C          x = -0.395549  y = -1.229157  z =  1.525147 angstrom
           Maximum rank =  0   Radius =  0.650 angstrom
                   Q00  =  -0.179310

C          x = -0.013549  y = -1.772157  z =  2.889147 angstrom
           Maximum rank =  0   Radius =  0.650 angstrom
                   Q00  =  -0.243823

C          x =  1.333451  y = -2.874157  z =  0.100147 angstrom
           Maximum rank =  0   Radius =  0.650 angstrom
                   Q00  =  -0.363614

S          x = -0.417549  y = -2.490157  z =  0.236147 angstrom
           Maximum rank =  0   Radius =  0.650 angstrom
                   Q00  =   0.100737

H          x = -1.385549  y = -0.774157  z =  1.587147 angstrom
           Maximum rank =  0   Radius =  0.325 angstrom
                   Q00  =   0.092123

H          x =  0.327451  y = -0.465157  z =  1.267147 angstrom
           Maximum rank =  0   Radius =  0.325 angstrom
                   Q00  =   0.050722

H          x =  0.988451  y = -2.199157  z =  2.854147 angstrom
           Maximum rank =  0   Radius =  0.325 angstrom
                   Q00  =   0.079818

H          x = -0.714549  y = -2.569157  z =  3.140147 angstrom
           Maximum rank =  0   Radius =  0.325 angstrom
                   Q00  =   0.085587

H          x =  1.689451  y = -3.339157  z =  1.018147 angstrom
           Maximum rank =  0   Radius =  0.325 angstrom
                   Q00  =   0.087703

H          x =  1.494451  y = -3.570157  z = -0.718853 angstrom
           Maximum rank =  0   Radius =  0.325 angstrom
                   Q00  =   0.123906

H          x =  1.900451  y = -1.964157  z = -0.094853 angstrom
           Maximum rank =  0   Radius =  0.325 angstrom
                   Q00  =   0.084868

H          x = -0.046719  y = -1.003395  z =  3.675216 angstrom
           Maximum rank =  0   Radius =  0.325 angstrom
                   Q00  =   0.092108

C          x =  0.752451  y =  1.292843  z = -0.999853 angstrom
           Maximum rank =  0   Radius =  0.650 angstrom
                   Q00  =  -0.188106

C          x =  0.288451  y =  1.047843  z = -2.423853 angstrom
           Maximum rank =  0   Radius =  0.650 angstrom
                   Q00  =  -0.257524

C          x = -1.489549  y =  2.820843  z = -0.912853 angstrom
           Maximum rank =  0   Radius =  0.650 angstrom
                   Q00  =  -0.357149

S          x =  0.194451  y =  2.843843  z = -0.301853 angstrom
           Maximum rank =  0   Radius =  0.650 angstrom
                   Q00  =   0.116338

H          x =  0.345451  y =  0.488843  z = -0.404853 angstrom
           Maximum rank =  0   Radius =  0.325 angstrom
                   Q00  =   0.036742

H          x =  1.829451  y =  1.259843  z = -0.942853 angstrom
           Maximum rank =  0   Radius =  0.325 angstrom
                   Q00  =   0.085862

H          x =  0.644451  y =  1.850843  z = -3.069853 angstrom
           Maximum rank =  0   Radius =  0.325 angstrom
                   Q00  =   0.081594

H          x = -0.793549  y =  0.987843  z = -2.473853 angstrom
           Maximum rank =  0   Radius =  0.325 angstrom
                   Q00  =   0.086544

H          x = -1.992549  y =  1.904843  z = -0.599853 angstrom
           Maximum rank =  0   Radius =  0.325 angstrom
                   Q00  =   0.082610

H          x = -2.008549  y =  3.674843  z = -0.484853 angstrom
           Maximum rank =  0   Radius =  0.325 angstrom
                   Q00  =   0.118992

H          x = -1.522549  y =  2.919843  z = -1.996853 angstrom
           Maximum rank =  0   Radius =  0.325 angstrom
                   Q00  =   0.089902

H          x =  0.657801  y =  0.078124  z = -2.788856 angstrom
           Maximum rank =  0   Radius =  0.325 angstrom
                   Q00  =   0.093369

Total multipoles referred to origin at
           x =   0.000000,  y =    0.000000,  z =    0.000000 angstrom
                   Q00  =   0.000000

Finished at 17:17:35 on 27 Apr 2020

  DMA results are available in the Python driver through the
	  variable('DMA DISTRIBUTED MULTIPOLES')
  and
	  variable('DMA TOTAL MULTIPOLES')
  commands.

    Psi4 stopped on: Monday, 27 April 2020 05:17PM
    Psi4 wall time for execution: 0:02:01.26

*** Psi4 exiting successfully. Buy a developer a beer!
