                               Psi4 1.3.2 release

  ==> Input File <==

--------------------------------------------------------------------------
import numpy as np
set {scf_type pk
basis cc-pvdz
d_convergence 10
gdma_switch   0
gdma_limit    0
gdma_origin   [ 0.0,  0.0,  0.0 ]
}
molecule test {
    units Angstrom
    1 1
    --
    1 1
    C                0.004897222861180     1.033886188205451    -0.442376850193069
    C                0.715897222861180     1.648886188205451    -1.635376850193068
    C               -1.580102777138820     2.133886188205451    -1.882376850193068
    C               -2.256102777138820    -0.288113811794549     0.975623149806931
    C               -2.495102777138820     0.725886188205451    -0.133376850193069
    O               -3.637102777138820     1.090886188205451    -0.414376850193069
    N               -1.416102777138820     1.197886188205451    -0.778376850193069
    H                0.269897222861180    -0.017113811794549    -0.351376850193069
    H                0.247897222861180     1.585886188205451     0.464623149806931
    H                0.785897222861180     0.929886188205451    -2.450376850193069
    H                1.706897222861180     2.011886188205451    -1.363376850193069
    H               -2.334102777138820     2.888886188205451    -1.664376850193068
    H               -1.240102777138820    -0.149113811794549     1.339623149806931
    H                0.044317222861180     2.475226188205451    -1.911309850193069
    H               -0.588332777138820     2.600226188205451    -1.976796850193069
    H               -1.867482777138820     1.554076188205451    -2.771892050193069
    H               -2.939142777138820    -0.218753811794549     1.835072149806931
    H               -2.317352777138820    -1.301983811794549     0.553356149806931
    C                1.278897222861180    -2.952113811794549    -0.220376850193069
    C                2.275897222861180    -1.120113811794549     1.110623149806932
    N                2.249897222861180    -1.881113811794549     0.028623149806931
    N                1.390897222861180    -1.297113811794549     2.072623149806931
    N                3.177897222861180    -0.167113811794549     1.223623149806931
    H                3.000897222861179    -1.761113811794549    -0.638376850193069
    H                0.747897222861180    -2.068113811794549     2.023623149806931
    H                1.434897222861180    -0.750113811794549     2.917623149806931
    H                3.864897222861180    -0.026113811794549     0.499623149806931
    H                3.218897222861179     0.400886188205451     2.055623149806932
    H                0.286897222861180    -2.653113811794549     0.103623149806931
    H                1.568897222861179    -3.842113811794549     0.342623149806931
    H                1.243427222861180    -3.211263811794549    -1.288825850193069

}
e, wfn = energy('scf', return_wfn=True)
gdma(wfn)
dmavals = variable('DMA DISTRIBUTED MULTIPOLES')
charges = np.array(dmavals)
print(charges)
np.save('SSI-020PRO-023ARG-2-dimer.npy', np.array(charges))--------------------------------------------------------------------------

*** tstart() called on ds3
*** at Mon Apr 27 18:11:14 2020

   => Loading Basis Set <=

    Name: CC-PVDZ
    Role: ORBITAL
    Keyword: BASIS
    atoms 1-5, 19-20  entry C          line   138 file /theoryfs2/ds/metcalf/miniconda2/envs/tf2gpu/share/psi4/basis/cc-pvdz.gbs
    atoms 6           entry O          line   198 file /theoryfs2/ds/metcalf/miniconda2/envs/tf2gpu/share/psi4/basis/cc-pvdz.gbs
    atoms 7, 21-23    entry N          line   168 file /theoryfs2/ds/metcalf/miniconda2/envs/tf2gpu/share/psi4/basis/cc-pvdz.gbs
    atoms 8-18, 24-31 entry H          line    22 file /theoryfs2/ds/metcalf/miniconda2/envs/tf2gpu/share/psi4/basis/cc-pvdz.gbs

         ---------------------------------------------------------
                                   SCF
               by Justin Turney, Rob Parrish, Andy Simmonett
                          and Daniel G. A. Smith
                              RHF Reference
                        1 Threads,    500 MiB Core
         ---------------------------------------------------------

  ==> Geometry <==

    Molecular point group: c1
    Full point group: C1

    Geometry (in Angstrom), charge = 1, multiplicity = 1:

       Center              X                  Y                   Z               Mass
    ------------   -----------------  -----------------  -----------------  -----------------
         C            0.004897222861     1.033886188205    -0.442376850193    12.000000000000
         C            0.715897222861     1.648886188205    -1.635376850193    12.000000000000
         C           -1.580102777139     2.133886188205    -1.882376850193    12.000000000000
         C           -2.256102777139    -0.288113811795     0.975623149807    12.000000000000
         C           -2.495102777139     0.725886188205    -0.133376850193    12.000000000000
         O           -3.637102777139     1.090886188205    -0.414376850193    15.994914619570
         N           -1.416102777139     1.197886188205    -0.778376850193    14.003074004430
         H            0.269897222861    -0.017113811795    -0.351376850193     1.007825032230
         H            0.247897222861     1.585886188205     0.464623149807     1.007825032230
         H            0.785897222861     0.929886188205    -2.450376850193     1.007825032230
         H            1.706897222861     2.011886188205    -1.363376850193     1.007825032230
         H           -2.334102777139     2.888886188205    -1.664376850193     1.007825032230
         H           -1.240102777139    -0.149113811795     1.339623149807     1.007825032230
         H            0.044317222861     2.475226188205    -1.911309850193     1.007825032230
         H           -0.588332777139     2.600226188205    -1.976796850193     1.007825032230
         H           -1.867482777139     1.554076188205    -2.771892050193     1.007825032230
         H           -2.939142777139    -0.218753811795     1.835072149807     1.007825032230
         H           -2.317352777139    -1.301983811795     0.553356149807     1.007825032230
         C            1.278897222861    -2.952113811795    -0.220376850193    12.000000000000
         C            2.275897222861    -1.120113811795     1.110623149807    12.000000000000
         N            2.249897222861    -1.881113811795     0.028623149807    14.003074004430
         N            1.390897222861    -1.297113811795     2.072623149807    14.003074004430
         N            3.177897222861    -0.167113811795     1.223623149807    14.003074004430
         H            3.000897222861    -1.761113811795    -0.638376850193     1.007825032230
         H            0.747897222861    -2.068113811795     2.023623149807     1.007825032230
         H            1.434897222861    -0.750113811795     2.917623149807     1.007825032230
         H            3.864897222861    -0.026113811795     0.499623149807     1.007825032230
         H            3.218897222861     0.400886188205     2.055623149807     1.007825032230
         H            0.286897222861    -2.653113811795     0.103623149807     1.007825032230
         H            1.568897222861    -3.842113811795     0.342623149807     1.007825032230
         H            1.243427222861    -3.211263811795    -1.288825850193     1.007825032230

  Running in c1 symmetry.

  Rotational constants: A =      0.04083  B =      0.01434  C =      0.01259 [cm^-1]
  Rotational constants: A =   1223.94407  B =    429.90176  C =    377.38988 [MHz]
  Nuclear repulsion =  768.031765741394679

  Charge       = 1
  Multiplicity = 1
  Electrons    = 96
  Nalpha       = 48
  Nbeta        = 48

  ==> Algorithm <==

  SCF Algorithm Type is PK.
  DIIS enabled.
  MOM disabled.
  Fractional occupation disabled.
  Guess Type is SAD.
  Energy threshold   = 1.00e-06
  Density threshold  = 1.00e-10
  Integral threshold = 0.00e+00

  ==> Primary Basis <==

  Basis Set: CC-PVDZ
    Blend: CC-PVDZ
    Number of shells: 129
    Number of basis function: 263
    Number of Cartesian functions: 275
    Spherical Harmonics?: true
    Max angular momentum: 2

  ==> Pre-Iterations <==

   -------------------------------------------------------
    Irrep   Nso     Nmo     Nalpha   Nbeta   Ndocc  Nsocc
   -------------------------------------------------------
     A        263     263       0       0       0       0
   -------------------------------------------------------
    Total     263     263      48      48      48       0
   -------------------------------------------------------

  ==> Integral Setup <==

  Using integral reordering PK algorithm.
  Sizing the integral batches needed.
  Building batch lookup table.
   Calculation information:
      Number of atoms:                  31
      Number of AO shells:             129
      Number of primitives:            359
      Number of atomic orbitals:       275
      Number of basis functions:       263

      Integral cutoff                 1.00e-12
      Number of threads:                 1

	Batch   1 pq = [       0,    9405] index = [             0,44231715] size =     44231715
	Batch   2 pq = [    9405,   13301] index = [      44231715,88464951] size =     44233236
	Batch   3 pq = [   13301,   16290] index = [      88464951,132690195] size =     44225244
	Batch   4 pq = [   16290,   18810] index = [     132690195,176917455] size =     44227260
	Batch   5 pq = [   18810,   21030] index = [     176917455,221140965] size =     44223510
	Batch   6 pq = [   21030,   23037] index = [     221140965,265363203] size =     44222238
	Batch   7 pq = [   23037,   24883] index = [     265363203,309594286] size =     44231083
	Batch   8 pq = [   24883,   26601] index = [     309594286,353819901] size =     44225615
	Batch   9 pq = [   26601,   28214] index = [     353819901,398029005] size =     44209104
	Batch  10 pq = [   28214,   29740] index = [     398029005,442248670] size =     44219665
	Batch  11 pq = [   29740,   31191] index = [     442248670,486454836] size =     44206166
	Batch  12 pq = [   31191,   32578] index = [     486454836,530679331] size =     44224495
	Batch  13 pq = [   32578,   33908] index = [     530679331,574893186] size =     44213855
	Batch  14 pq = [   33908,   34716] index = [     574893186,602617686] size =     27724500
  Task number: 55
  Buffer size: 11059200
  Buffer per thread: 2
  We computed 36834968 shell quartets total.
  Whereas there are 35158305 unique shell quartets.
     4.77 percent of shell quartets recomputed by reordering.

  ==> DiskJK: Disk-Based J/K Matrices <==

    J tasked:                  Yes
    K tasked:                  Yes
    wK tasked:                  No
    Memory [MiB]:              375
    Schwarz Cutoff:          1E-12

    OpenMP threads:              1

  Minimum eigenvalue in the overlap matrix is 1.5002096613E-03.
  Using Symmetric Orthogonalization.

  SCF Guess: Superposition of Atomic Densities via on-the-fly atomic UHF.

  ==> Iterations <==

                        Total Energy        Delta E     RMS |[F,P]|

   @RHF iter SAD:  -568.22635703378808   -5.68226e+02   0.00000e+00
   @RHF iter   1:  -568.10090392591007    1.25453e-01   2.93321e-03 DIIS
   @RHF iter   2:  -568.37246537851331   -2.71561e-01   1.56563e-03 DIIS
   @RHF iter   3:  -568.43718522475444   -6.47198e-02   4.16506e-04 DIIS
   @RHF iter   4:  -568.44389664203675   -6.71142e-03   1.52882e-04 DIIS
   @RHF iter   5:  -568.44484941005169   -9.52768e-04   2.82907e-05 DIIS
   @RHF iter   6:  -568.44492098348724   -7.15734e-05   1.42260e-05 DIIS
   @RHF iter   7:  -568.44493496615939   -1.39827e-05   5.16979e-06 DIIS
   @RHF iter   8:  -568.44493770207077   -2.73591e-06   1.96815e-06 DIIS
   @RHF iter   9:  -568.44493807965921   -3.77588e-07   6.63736e-07 DIIS
   @RHF iter  10:  -568.44493811998871   -4.03295e-08   2.02700e-07 DIIS
   @RHF iter  11:  -568.44493812344524   -3.45653e-09   4.49921e-08 DIIS
   @RHF iter  12:  -568.44493812361213   -1.66892e-10   1.35385e-08 DIIS
   @RHF iter  13:  -568.44493812362396   -1.18234e-11   4.29595e-09 DIIS
   @RHF iter  14:  -568.44493812363748   -1.35287e-11   1.16153e-09 DIIS
   @RHF iter  15:  -568.44493812362339    1.40972e-11   3.31843e-10 DIIS
   @RHF iter  16:  -568.44493812363487   -1.14824e-11   1.38277e-10 DIIS
   @RHF iter  17:  -568.44493812362657    8.29914e-12   4.01374e-11 DIIS
  Energy and wave function converged.

  ==> Post-Iterations <==

    Orbital Energies [Eh]
    ---------------------

    Doubly Occupied:

       1A    -20.589027     2A    -15.797448     3A    -15.796996
       4A    -15.795406     5A    -15.676548     6A    -11.598526
       7A    -11.449821     8A    -11.434602     9A    -11.389091
      10A    -11.339603    11A    -11.331362    12A    -11.324389
      13A     -1.556484    14A     -1.453293    15A     -1.412000
      16A     -1.402198    17A     -1.351175    18A     -1.171831
      19A     -1.151178    20A     -1.106085    21A     -1.071258
      22A     -1.048871    23A     -0.988935    24A     -0.955125
      25A     -0.950539    26A     -0.869554    27A     -0.866522
      28A     -0.855725    29A     -0.839578    30A     -0.826458
      31A     -0.803606    32A     -0.776176    33A     -0.751908
      34A     -0.748704    35A     -0.733933    36A     -0.710597
      37A     -0.697685    38A     -0.667713    39A     -0.651422
      40A     -0.642386    41A     -0.636727    42A     -0.625721
      43A     -0.620739    44A     -0.594185    45A     -0.577183
      46A     -0.493775    47A     -0.485980    48A     -0.452728

    Virtual:

      49A     -0.021342    50A      0.013363    51A      0.014642
      52A      0.019724    53A      0.050222    54A      0.063828
      55A      0.082226    56A      0.089803    57A      0.094015
      58A      0.110507    59A      0.114968    60A      0.121006
      61A      0.142027    62A      0.151689    63A      0.157202
      64A      0.170413    65A      0.174796    66A      0.185481
      67A      0.190730    68A      0.213755    69A      0.218510
      70A      0.224713    71A      0.242683    72A      0.271502
      73A      0.296966    74A      0.318482    75A      0.322607
      76A      0.332843    77A      0.358220    78A      0.394357
      79A      0.422120    80A      0.427053    81A      0.462030
      82A      0.471384    83A      0.491252    84A      0.513819
      85A      0.519981    86A      0.521876    87A      0.523245
      88A      0.537804    89A      0.549859    90A      0.561312
      91A      0.564263    92A      0.577586    93A      0.605693
      94A      0.613595    95A      0.637782    96A      0.662937
      97A      0.675266    98A      0.682555    99A      0.694319
     100A      0.697354   101A      0.703112   102A      0.727035
     103A      0.731214   104A      0.745333   105A      0.747569
     106A      0.752613   107A      0.758427   108A      0.769907
     109A      0.773383   110A      0.784894   111A      0.794590
     112A      0.798995   113A      0.807567   114A      0.820280
     115A      0.826269   116A      0.836500   117A      0.847409
     118A      0.861451   119A      0.876459   120A      0.896497
     121A      0.903901   122A      0.909967   123A      0.920395
     124A      0.942949   125A      0.970962   126A      0.982433
     127A      0.995998   128A      1.011347   129A      1.019396
     130A      1.045174   131A      1.053110   132A      1.082597
     133A      1.110565   134A      1.116535   135A      1.132544
     136A      1.144861   137A      1.155601   138A      1.180013
     139A      1.191015   140A      1.214405   141A      1.219962
     142A      1.257734   143A      1.276872   144A      1.280601
     145A      1.291038   146A      1.321122   147A      1.342634
     148A      1.351241   149A      1.389989   150A      1.395449
     151A      1.458852   152A      1.472541   153A      1.473982
     154A      1.495911   155A      1.498481   156A      1.506540
     157A      1.530324   158A      1.538263   159A      1.545938
     160A      1.564804   161A      1.576913   162A      1.597388
     163A      1.606082   164A      1.615049   165A      1.648129
     166A      1.653994   167A      1.676103   168A      1.688007
     169A      1.713987   170A      1.726939   171A      1.737818
     172A      1.739529   173A      1.754239   174A      1.760617
     175A      1.764314   176A      1.770227   177A      1.775140
     178A      1.791461   179A      1.803811   180A      1.819708
     181A      1.832493   182A      1.847176   183A      1.851179
     184A      1.861669   185A      1.871537   186A      1.879822
     187A      1.889185   188A      1.895929   189A      1.928665
     190A      1.946860   191A      1.955600   192A      1.966116
     193A      2.002989   194A      2.009150   195A      2.018107
     196A      2.035043   197A      2.038702   198A      2.059995
     199A      2.062929   200A      2.080180   201A      2.105410
     202A      2.118201   203A      2.134411   204A      2.147641
     205A      2.154522   206A      2.158441   207A      2.171111
     208A      2.195980   209A      2.231494   210A      2.243206
     211A      2.249480   212A      2.265071   213A      2.300278
     214A      2.318303   215A      2.330057   216A      2.344567
     217A      2.356773   218A      2.363611   219A      2.395450
     220A      2.415648   221A      2.423181   222A      2.434329
     223A      2.455100   224A      2.475395   225A      2.513097
     226A      2.540586   227A      2.568616   228A      2.590068
     229A      2.601876   230A      2.609671   231A      2.615377
     232A      2.648837   233A      2.661745   234A      2.683765
     235A      2.698332   236A      2.716273   237A      2.725523
     238A      2.737689   239A      2.740349   240A      2.762724
     241A      2.780805   242A      2.786135   243A      2.817683
     244A      2.838946   245A      2.852076   246A      2.883513
     247A      2.911005   248A      2.948990   249A      3.012246
     250A      3.039585   251A      3.070545   252A      3.080616
     253A      3.103798   254A      3.117348   255A      3.128323
     256A      3.242953   257A      3.279100   258A      3.435255
     259A      3.562867   260A      3.647914   261A      3.740504
     262A      3.815161   263A      5.068581

    Final Occupation by Irrep:
              A
    DOCC [    48 ]

  @RHF Final Energy:  -568.44493812362657

   => Energetics <=

    Nuclear Repulsion Energy =            768.0317657413946790
    One-Electron Energy =               -2282.8118168679320661
    Two-Electron Energy =                 946.3351130029107026
    Total Energy =                       -568.4449381236265708

Computation Completed

Properties will be evaluated at   0.000000,   0.000000,   0.000000 [a0]

Properties computed using the SCF density matrix

  Nuclear Dipole Moment: [e a0]
     X:     6.6558      Y:    -1.4434      Z:    -2.1480

  Electronic Dipole Moment: [e a0]
     X:    -1.0500      Y:    -0.9198      Z:     3.9875

  Dipole Moment: [e a0]
     X:     5.6058      Y:    -2.3633      Z:     1.8394     Total:     6.3556

  Dipole Moment: [D]
     X:    14.2486      Y:    -6.0068      Z:     4.6754     Total:    16.1543

*** tstop() called on ds3 at Mon Apr 27 18:21:40 2020
Module time:
	user time   =     251.77 seconds =       4.20 minutes
	system time =      84.14 seconds =       1.40 minutes
	total time  =        626 seconds =      10.43 minutes
Total time:
	user time   =     251.77 seconds =       4.20 minutes
	system time =      84.14 seconds =       1.40 minutes
	total time  =        626 seconds =      10.43 minutes
                                     G D M A

                                 by Anthony Stone

                           version 2.2.06, 22 June 2011

               Distributed Multipoles from Gaussian wavefunctions

Starting at 18:21:40 on 27 Apr 2020

Using SCF density matrix from file ./SSI/SSI-020PRO-023ARG-2-dimer.test.18976.fchk

                         Distributed Multipole Analysis

Standard DMA

Positions and radii in angstrom
Multipole moments in atomic units, ea_0^k for rank k

C          x =  0.004897  y =  1.033886  z = -0.442377 angstrom
           Maximum rank =  0   Radius =  0.650 angstrom
                   Q00  =  -0.002913

C          x =  0.715897  y =  1.648886  z = -1.635377 angstrom
           Maximum rank =  0   Radius =  0.650 angstrom
                   Q00  =  -0.232149

C          x = -1.580103  y =  2.133886  z = -1.882377 angstrom
           Maximum rank =  0   Radius =  0.650 angstrom
                   Q00  =  -0.104429

C          x = -2.256103  y = -0.288114  z =  0.975623 angstrom
           Maximum rank =  0   Radius =  0.650 angstrom
                   Q00  =  -0.273099

C          x = -2.495103  y =  0.725886  z = -0.133377 angstrom
           Maximum rank =  0   Radius =  0.650 angstrom
                   Q00  =   0.762121

O          x = -3.637103  y =  1.090886  z = -0.414377 angstrom
           Maximum rank =  0   Radius =  0.650 angstrom
                   Q00  =  -0.759111

N          x = -1.416103  y =  1.197886  z = -0.778377 angstrom
           Maximum rank =  0   Radius =  0.650 angstrom
                   Q00  =  -0.447173

H          x =  0.269897  y = -0.017114  z = -0.351377 angstrom
           Maximum rank =  0   Radius =  0.325 angstrom
                   Q00  =   0.040578

H          x =  0.247897  y =  1.585886  z =  0.464623 angstrom
           Maximum rank =  0   Radius =  0.325 angstrom
                   Q00  =   0.052382

H          x =  0.785897  y =  0.929886  z = -2.450377 angstrom
           Maximum rank =  0   Radius =  0.325 angstrom
                   Q00  =   0.093195

H          x =  1.706897  y =  2.011886  z = -1.363377 angstrom
           Maximum rank =  0   Radius =  0.325 angstrom
                   Q00  =   0.075543

H          x = -2.334103  y =  2.888886  z = -1.664377 angstrom
           Maximum rank =  0   Radius =  0.325 angstrom
                   Q00  =   0.127736

H          x = -1.240103  y = -0.149114  z =  1.339623 angstrom
           Maximum rank =  0   Radius =  0.325 angstrom
                   Q00  =   0.049899

H          x =  0.044317  y =  2.475226  z = -1.911310 angstrom
           Maximum rank =  0   Radius =  0.325 angstrom
                   Q00  =   0.147691

H          x = -0.588333  y =  2.600226  z = -1.976797 angstrom
           Maximum rank =  0   Radius =  0.325 angstrom
                   Q00  =   0.085780

H          x = -1.867483  y =  1.554076  z = -2.771892 angstrom
           Maximum rank =  0   Radius =  0.325 angstrom
                   Q00  =   0.106387

H          x = -2.939143  y = -0.218754  z =  1.835072 angstrom
           Maximum rank =  0   Radius =  0.325 angstrom
                   Q00  =   0.149829

H          x = -2.317353  y = -1.301984  z =  0.553356 angstrom
           Maximum rank =  0   Radius =  0.325 angstrom
                   Q00  =   0.119835

C          x =  1.278897  y = -2.952114  z = -0.220377 angstrom
           Maximum rank =  0   Radius =  0.650 angstrom
                   Q00  =  -0.124617

C          x =  2.275897  y = -1.120114  z =  1.110623 angstrom
           Maximum rank =  0   Radius =  0.650 angstrom
                   Q00  =   1.071673

N          x =  2.249897  y = -1.881114  z =  0.028623 angstrom
           Maximum rank =  0   Radius =  0.650 angstrom
                   Q00  =  -0.482713

N          x =  1.390897  y = -1.297114  z =  2.072623 angstrom
           Maximum rank =  0   Radius =  0.650 angstrom
                   Q00  =  -0.580051

N          x =  3.177897  y = -0.167114  z =  1.223623 angstrom
           Maximum rank =  0   Radius =  0.650 angstrom
                   Q00  =  -0.598538

H          x =  3.000897  y = -1.761114  z = -0.638377 angstrom
           Maximum rank =  0   Radius =  0.325 angstrom
                   Q00  =   0.237089

H          x =  0.747897  y = -2.068114  z =  2.023623 angstrom
           Maximum rank =  0   Radius =  0.325 angstrom
                   Q00  =   0.272594

H          x =  1.434897  y = -0.750114  z =  2.917623 angstrom
           Maximum rank =  0   Radius =  0.325 angstrom
                   Q00  =   0.270201

H          x =  3.864897  y = -0.026114  z =  0.499623 angstrom
           Maximum rank =  0   Radius =  0.325 angstrom
                   Q00  =   0.268552

H          x =  3.218897  y =  0.400886  z =  2.055623 angstrom
           Maximum rank =  0   Radius =  0.325 angstrom
                   Q00  =   0.268064

H          x =  0.286897  y = -2.653114  z =  0.103623 angstrom
           Maximum rank =  0   Radius =  0.325 angstrom
                   Q00  =   0.113372

H          x =  1.568897  y = -3.842114  z =  0.342623 angstrom
           Maximum rank =  0   Radius =  0.325 angstrom
                   Q00  =   0.125641

H          x =  1.243427  y = -3.211264  z = -1.288826 angstrom
           Maximum rank =  0   Radius =  0.325 angstrom
                   Q00  =   0.166629

Total multipoles referred to origin at
           x =   0.000000,  y =    0.000000,  z =    0.000000 angstrom
                   Q00  =   1.000000

Finished at 18:21:40 on 27 Apr 2020

  DMA results are available in the Python driver through the
	  variable('DMA DISTRIBUTED MULTIPOLES')
  and
	  variable('DMA TOTAL MULTIPOLES')
  commands.

    Psi4 stopped on: Monday, 27 April 2020 06:21PM
    Psi4 wall time for execution: 0:10:25.64

*** Psi4 exiting successfully. Buy a developer a beer!
