                               Psi4 1.3.2 release

  ==> Input File <==

--------------------------------------------------------------------------
import numpy as np
set {scf_type pk
basis cc-pvdz
d_convergence 10
gdma_switch   0
gdma_limit    0
gdma_origin   [ 0.0,  0.0,  0.0 ]
}
molecule test {
    units Angstrom
    0 1
    --
    0 1
    C               -1.412731227810269    -2.865819621200451    -1.216029868989809
    C               -0.704731227810269    -3.220819621200451    -2.531029868989809
    H               -1.747731227810269    -1.830819621200451    -1.222029868989809
    H               -2.282731227810269    -3.511819621200451    -1.093029868989809
    H               -0.732731227810269    -3.024819621200451    -0.379029868989809
    H               -1.388731227810269    -3.048819621200451    -3.363029868989809
    H               -0.487731227810269    -4.287819621200450    -2.497029868989809
    H                0.223995772189731    -2.654417621200451    -2.694289868989809
    C               -1.214731227810269     2.847180378799549     0.896970131010191
    C                0.457268772189731    -0.540819621200451     1.233970131010191
    C                1.530268772189731    -0.395819621200451     0.392970131010191
    C               -0.456731227810269     0.502180378799549     1.392970131010191
    C               -0.261731227810269     1.696180378799549     0.726970131010191
    C                1.733268772189731     0.782180378799549    -0.280029868989809
    C                0.833268772189731     1.833180378799549    -0.109029868989809
    H                0.309268772189731    -1.472819621200451     1.762970131010191
    H                2.232268772189731    -1.201819621200451     0.253970131010191
    H               -1.306731227810269     0.387180378799549     2.048970131010191
    H                2.579268772189731     0.883180378799549    -0.943029868989809
    H               -2.228731227810269     2.464180378799549     0.895970131010191
    H               -1.121731227810269     3.488180378799549     0.018970131010191
    H                1.001268772189731     2.764180378799549    -0.633029868989809
    H               -1.043344227810269     3.454180378799549     1.798180131010191

}
e, wfn = energy('scf', return_wfn=True)
gdma(wfn)
dmavals = variable('DMA DISTRIBUTED MULTIPOLES')
charges = np.array(dmavals)
print(charges)
np.save('SSI-072ILE-116PHE-1-dimer.npy', np.array(charges))--------------------------------------------------------------------------

*** tstart() called on ds3
*** at Mon Apr 27 06:55:34 2020

   => Loading Basis Set <=

    Name: CC-PVDZ
    Role: ORBITAL
    Keyword: BASIS
    atoms 1-2, 9-15  entry C          line   138 file /theoryfs2/ds/metcalf/miniconda2/envs/tf2gpu/share/psi4/basis/cc-pvdz.gbs
    atoms 3-8, 16-23 entry H          line    22 file /theoryfs2/ds/metcalf/miniconda2/envs/tf2gpu/share/psi4/basis/cc-pvdz.gbs

         ---------------------------------------------------------
                                   SCF
               by Justin Turney, Rob Parrish, Andy Simmonett
                          and Daniel G. A. Smith
                              RHF Reference
                        1 Threads,    500 MiB Core
         ---------------------------------------------------------

  ==> Geometry <==

    Molecular point group: c1
    Full point group: C1

    Geometry (in Angstrom), charge = 0, multiplicity = 1:

       Center              X                  Y                   Z               Mass
    ------------   -----------------  -----------------  -----------------  -----------------
         C           -1.412731227810    -2.865819621200    -1.216029868990    12.000000000000
         C           -0.704731227810    -3.220819621200    -2.531029868990    12.000000000000
         H           -1.747731227810    -1.830819621200    -1.222029868990     1.007825032230
         H           -2.282731227810    -3.511819621200    -1.093029868990     1.007825032230
         H           -0.732731227810    -3.024819621200    -0.379029868990     1.007825032230
         H           -1.388731227810    -3.048819621200    -3.363029868990     1.007825032230
         H           -0.487731227810    -4.287819621200    -2.497029868990     1.007825032230
         H            0.223995772190    -2.654417621200    -2.694289868990     1.007825032230
         C           -1.214731227810     2.847180378800     0.896970131010    12.000000000000
         C            0.457268772190    -0.540819621200     1.233970131010    12.000000000000
         C            1.530268772190    -0.395819621200     0.392970131010    12.000000000000
         C           -0.456731227810     0.502180378800     1.392970131010    12.000000000000
         C           -0.261731227810     1.696180378800     0.726970131010    12.000000000000
         C            1.733268772190     0.782180378800    -0.280029868990    12.000000000000
         C            0.833268772190     1.833180378800    -0.109029868990    12.000000000000
         H            0.309268772190    -1.472819621200     1.762970131010     1.007825032230
         H            2.232268772190    -1.201819621200     0.253970131010     1.007825032230
         H           -1.306731227810     0.387180378800     2.048970131010     1.007825032230
         H            2.579268772190     0.883180378800    -0.943029868990     1.007825032230
         H           -2.228731227810     2.464180378800     0.895970131010     1.007825032230
         H           -1.121731227810     3.488180378800     0.018970131010     1.007825032230
         H            1.001268772190     2.764180378800    -0.633029868990     1.007825032230
         H           -1.043344227810     3.454180378800     1.798180131010     1.007825032230

  Running in c1 symmetry.

  Rotational constants: A =      0.07171  B =      0.02347  C =      0.02152 [cm^-1]
  Rotational constants: A =   2149.67211  B =    703.74952  C =    645.02556 [MHz]
  Nuclear repulsion =  406.143645684456487

  Charge       = 0
  Multiplicity = 1
  Electrons    = 68
  Nalpha       = 34
  Nbeta        = 34

  ==> Algorithm <==

  SCF Algorithm Type is PK.
  DIIS enabled.
  MOM disabled.
  Fractional occupation disabled.
  Guess Type is SAD.
  Energy threshold   = 1.00e-06
  Density threshold  = 1.00e-10
  Integral threshold = 0.00e+00

  ==> Primary Basis <==

  Basis Set: CC-PVDZ
    Blend: CC-PVDZ
    Number of shells: 96
    Number of basis function: 196
    Number of Cartesian functions: 205
    Spherical Harmonics?: true
    Max angular momentum: 2

  ==> Pre-Iterations <==

   -------------------------------------------------------
    Irrep   Nso     Nmo     Nalpha   Nbeta   Ndocc  Nsocc
   -------------------------------------------------------
     A        196     196       0       0       0       0
   -------------------------------------------------------
    Total     196     196      34      34      34       0
   -------------------------------------------------------

  ==> Integral Setup <==

  Using integral reordering PK algorithm.
  Sizing the integral batches needed.
  Building batch lookup table.
   Calculation information:
      Number of atoms:                  23
      Number of AO shells:              96
      Number of primitives:            268
      Number of atomic orbitals:       205
      Number of basis functions:       196

      Integral cutoff                 1.00e-12
      Number of threads:                 1

	Batch   1 pq = [       0,    9405] index = [             0,44231715] size =     44231715
	Batch   2 pq = [    9405,   13301] index = [      44231715,88464951] size =     44233236
	Batch   3 pq = [   13301,   16290] index = [      88464951,132690195] size =     44225244
	Batch   4 pq = [   16290,   18810] index = [     132690195,176917455] size =     44227260
	Batch   5 pq = [   18810,   19306] index = [     176917455,186370471] size =      9453016
  Task number: 17
  Buffer size: 11059200
  Buffer per thread: 2
  We computed 9199947 shell quartets total.
  Whereas there are 10841496 unique shell quartets.

  ==> DiskJK: Disk-Based J/K Matrices <==

    J tasked:                  Yes
    K tasked:                  Yes
    wK tasked:                  No
    Memory [MiB]:              375
    Schwarz Cutoff:          1E-12

    OpenMP threads:              1

  Minimum eigenvalue in the overlap matrix is 2.9472378197E-04.
  Using Symmetric Orthogonalization.

  SCF Guess: Superposition of Atomic Densities via on-the-fly atomic UHF.

  ==> Iterations <==

                        Total Energy        Delta E     RMS |[F,P]|

   @RHF iter SAD:  -347.96284571427213   -3.47963e+02   0.00000e+00
   @RHF iter   1:  -348.76338534157435   -8.00540e-01   2.92866e-03 DIIS
   @RHF iter   2:  -348.95837029243540   -1.94985e-01   1.23095e-03 DIIS
   @RHF iter   3:  -348.98984407611385   -3.14738e-02   2.60086e-04 DIIS
   @RHF iter   4:  -348.99233443307378   -2.49036e-03   5.19391e-05 DIIS
   @RHF iter   5:  -348.99240677066120   -7.23376e-05   1.60901e-05 DIIS
   @RHF iter   6:  -348.99241326780356   -6.49714e-06   4.37272e-06 DIIS
   @RHF iter   7:  -348.99241379282569   -5.25022e-07   1.29541e-06 DIIS
   @RHF iter   8:  -348.99241383825824   -4.54326e-08   2.53069e-07 DIIS
   @RHF iter   9:  -348.99241384104522   -2.78698e-09   8.89551e-08 DIIS
   @RHF iter  10:  -348.99241384136707   -3.21847e-10   3.17290e-08 DIIS
   @RHF iter  11:  -348.99241384142749   -6.04246e-11   1.01003e-08 DIIS
   @RHF iter  12:  -348.99241384143852   -1.10276e-11   4.98886e-09 DIIS
   @RHF iter  13:  -348.99241384143988   -1.36424e-12   2.61460e-09 DIIS
   @RHF iter  14:  -348.99241384143903    8.52651e-13   8.31758e-10 DIIS
   @RHF iter  15:  -348.99241384143971   -6.82121e-13   3.05666e-10 DIIS
   @RHF iter  16:  -348.99241384144000   -2.84217e-13   7.41946e-11 DIIS
  Energy and wave function converged.

  ==> Post-Iterations <==

    Orbital Energies [Eh]
    ---------------------

    Doubly Occupied:

       1A    -11.236963     2A    -11.233097     3A    -11.232235
       4A    -11.228896     5A    -11.228435     6A    -11.227739
       7A    -11.225632     8A    -11.213859     9A    -11.211128
      10A     -1.158354    11A     -1.049277    12A     -1.012141
      13A     -1.011132    14A     -0.933054    15A     -0.832571
      16A     -0.829144    17A     -0.794199    18A     -0.693700
      19A     -0.634149    20A     -0.628817    21A     -0.592606
      22A     -0.592212    23A     -0.581936    24A     -0.578741
      25A     -0.564051    26A     -0.533587    27A     -0.494713
      28A     -0.491314    29A     -0.486861    30A     -0.480985
      31A     -0.479727    32A     -0.479023    33A     -0.330854
      34A     -0.326605

    Virtual:

      35A      0.134801    36A      0.145447    37A      0.173912
      38A      0.194093    39A      0.205881    40A      0.213378
      41A      0.238356    42A      0.245479    43A      0.253385
      44A      0.261115    45A      0.267883    46A      0.274165
      47A      0.280849    48A      0.293575    49A      0.294614
      50A      0.319158    51A      0.372343    52A      0.377345
      53A      0.397348    54A      0.455405    55A      0.468270
      56A      0.479578    57A      0.494889    58A      0.566242
      59A      0.578758    60A      0.601524    61A      0.605273
      62A      0.609270    63A      0.640270    64A      0.659332
      65A      0.676459    66A      0.685444    67A      0.690127
      68A      0.707683    69A      0.725109    70A      0.742049
      71A      0.743422    72A      0.754450    73A      0.759114
      74A      0.773066    75A      0.782611    76A      0.815163
      77A      0.840701    78A      0.849881    79A      0.859984
      80A      0.865878    81A      0.873192    82A      0.881172
      83A      0.896516    84A      0.899398    85A      0.901118
      86A      0.905261    87A      0.912705    88A      0.923436
      89A      0.928264    90A      0.937453    91A      0.944092
      92A      0.951897    93A      0.984624    94A      0.998488
      95A      1.012359    96A      1.054644    97A      1.125738
      98A      1.129528    99A      1.134715   100A      1.138566
     101A      1.156548   102A      1.160231   103A      1.191508
     104A      1.238512   105A      1.244457   106A      1.250970
     107A      1.257462   108A      1.260455   109A      1.306995
     110A      1.314154   111A      1.327509   112A      1.333095
     113A      1.412872   114A      1.471512   115A      1.486208
     116A      1.507743   117A      1.519603   118A      1.553493
     119A      1.575808   120A      1.602854   121A      1.676906
     122A      1.687511   123A      1.697446   124A      1.705743
     125A      1.735847   126A      1.757067   127A      1.766772
     128A      1.795841   129A      1.817090   130A      1.863950
     131A      1.874033   132A      1.878180   133A      1.884302
     134A      1.894130   135A      1.902121   136A      1.912726
     137A      1.920485   138A      1.926632   139A      1.944309
     140A      1.952064   141A      1.952921   142A      1.958817
     143A      1.966837   144A      1.969004   145A      1.974867
     146A      1.983968   147A      1.993370   148A      2.000438
     149A      2.045355   150A      2.064652   151A      2.080545
     152A      2.098019   153A      2.112005   154A      2.132881
     155A      2.144930   156A      2.166598   157A      2.178874
     158A      2.186476   159A      2.196617   160A      2.256813
     161A      2.281061   162A      2.297804   163A      2.302467
     164A      2.310846   165A      2.316087   166A      2.320739
     167A      2.335859   168A      2.452982   169A      2.472392
     170A      2.475439   171A      2.479876   172A      2.514141
     173A      2.550940   174A      2.562192   175A      2.584873
     176A      2.628817   177A      2.741877   178A      2.771780
     179A      2.772850   180A      2.775566   181A      2.798018
     182A      2.800329   183A      2.814820   184A      2.853684
     185A      2.857917   186A      2.863900   187A      2.886739
     188A      2.950926   189A      2.967516   190A      2.994833
     191A      3.027205   192A      3.042242   193A      3.168761
     194A      3.219901   195A      3.317332   196A      4.003737

    Final Occupation by Irrep:
              A
    DOCC [    34 ]

  @RHF Final Energy:  -348.99241384144000

   => Energetics <=

    Nuclear Repulsion Energy =            406.1436456844564873
    One-Electron Energy =               -1275.0166445928034591
    Two-Electron Energy =                 519.8805850669069741
    Total Energy =                       -348.9924138414399977

Computation Completed

Properties will be evaluated at   0.000000,   0.000000,   0.000000 [a0]

Properties computed using the SCF density matrix

  Nuclear Dipole Moment: [e a0]
     X:    -5.6193      Y:    -7.1173      Z:    -5.6674

  Electronic Dipole Moment: [e a0]
     X:     5.5510      Y:     7.2423      Z:     5.7071

  Dipole Moment: [e a0]
     X:    -0.0683      Y:     0.1250      Z:     0.0397     Total:     0.1478

  Dipole Moment: [D]
     X:    -0.1736      Y:     0.3176      Z:     0.1009     Total:     0.3758

*** tstop() called on ds3 at Mon Apr 27 06:57:58 2020
Module time:
	user time   =      66.11 seconds =       1.10 minutes
	system time =      28.24 seconds =       0.47 minutes
	total time  =        144 seconds =       2.40 minutes
Total time:
	user time   =      66.11 seconds =       1.10 minutes
	system time =      28.24 seconds =       0.47 minutes
	total time  =        144 seconds =       2.40 minutes
                                     G D M A

                                 by Anthony Stone

                           version 2.2.06, 22 June 2011

               Distributed Multipoles from Gaussian wavefunctions

Starting at 6:57:58 on 27 Apr 2020

Using SCF density matrix from file ./SSI/SSI-072ILE-116PHE-1-dimer.test.8668.fchk

                         Distributed Multipole Analysis

Standard DMA

Positions and radii in angstrom
Multipole moments in atomic units, ea_0^k for rank k

C          x = -1.412731  y = -2.865820  z = -1.216030 angstrom
           Maximum rank =  0   Radius =  0.650 angstrom
                   Q00  =  -0.236464

C          x = -0.704731  y = -3.220820  z = -2.531030 angstrom
           Maximum rank =  0   Radius =  0.650 angstrom
                   Q00  =  -0.233858

H          x = -1.747731  y = -1.830820  z = -1.222030 angstrom
           Maximum rank =  0   Radius =  0.325 angstrom
                   Q00  =   0.086042

H          x = -2.282731  y = -3.511820  z = -1.093030 angstrom
           Maximum rank =  0   Radius =  0.325 angstrom
                   Q00  =   0.073479

H          x = -0.732731  y = -3.024820  z = -0.379030 angstrom
           Maximum rank =  0   Radius =  0.325 angstrom
                   Q00  =   0.078011

H          x = -1.388731  y = -3.048820  z = -3.363030 angstrom
           Maximum rank =  0   Radius =  0.325 angstrom
                   Q00  =   0.077153

H          x = -0.487731  y = -4.287820  z = -2.497030 angstrom
           Maximum rank =  0   Radius =  0.325 angstrom
                   Q00  =   0.072983

H          x =  0.223996  y = -2.654418  z = -2.694290 angstrom
           Maximum rank =  0   Radius =  0.325 angstrom
                   Q00  =   0.083020

C          x = -1.214731  y =  2.847180  z =  0.896970 angstrom
           Maximum rank =  0   Radius =  0.650 angstrom
                   Q00  =  -0.204327

C          x =  0.457269  y = -0.540820  z =  1.233970 angstrom
           Maximum rank =  0   Radius =  0.650 angstrom
                   Q00  =  -0.028851

C          x =  1.530269  y = -0.395820  z =  0.392970 angstrom
           Maximum rank =  0   Radius =  0.650 angstrom
                   Q00  =  -0.082386

C          x = -0.456731  y =  0.502180  z =  1.392970 angstrom
           Maximum rank =  0   Radius =  0.650 angstrom
                   Q00  =  -0.085333

C          x = -0.261731  y =  1.696180  z =  0.726970 angstrom
           Maximum rank =  0   Radius =  0.650 angstrom
                   Q00  =  -0.095256

C          x =  1.733269  y =  0.782180  z = -0.280030 angstrom
           Maximum rank =  0   Radius =  0.650 angstrom
                   Q00  =  -0.067515

C          x =  0.833269  y =  1.833180  z = -0.109030 angstrom
           Maximum rank =  0   Radius =  0.650 angstrom
                   Q00  =  -0.030674

H          x =  0.309269  y = -1.472820  z =  1.762970 angstrom
           Maximum rank =  0   Radius =  0.325 angstrom
                   Q00  =   0.063170

H          x =  2.232269  y = -1.201820  z =  0.253970 angstrom
           Maximum rank =  0   Radius =  0.325 angstrom
                   Q00  =   0.055434

H          x = -1.306731  y =  0.387180  z =  2.048970 angstrom
           Maximum rank =  0   Radius =  0.325 angstrom
                   Q00  =   0.056220

H          x =  2.579269  y =  0.883180  z = -0.943030 angstrom
           Maximum rank =  0   Radius =  0.325 angstrom
                   Q00  =   0.063357

H          x = -2.228731  y =  2.464180  z =  0.895970 angstrom
           Maximum rank =  0   Radius =  0.325 angstrom
                   Q00  =   0.099862

H          x = -1.121731  y =  3.488180  z =  0.018970 angstrom
           Maximum rank =  0   Radius =  0.325 angstrom
                   Q00  =   0.094479

H          x =  1.001269  y =  2.764180  z = -0.633030 angstrom
           Maximum rank =  0   Radius =  0.325 angstrom
                   Q00  =   0.055714

H          x = -1.043344  y =  3.454180  z =  1.798180 angstrom
           Maximum rank =  0   Radius =  0.325 angstrom
                   Q00  =   0.105742

Total multipoles referred to origin at
           x =   0.000000,  y =    0.000000,  z =    0.000000 angstrom
                   Q00  =  -0.000000

Finished at 6:57:58 on 27 Apr 2020

  DMA results are available in the Python driver through the
	  variable('DMA DISTRIBUTED MULTIPOLES')
  and
	  variable('DMA TOTAL MULTIPOLES')
  commands.

    Psi4 stopped on: Monday, 27 April 2020 06:57AM
    Psi4 wall time for execution: 0:02:24.15

*** Psi4 exiting successfully. Buy a developer a beer!
