                               Psi4 1.3.2 release

  ==> Input File <==

--------------------------------------------------------------------------
import numpy as np
set {scf_type pk
basis cc-pvdz
d_convergence 10
gdma_switch   0
gdma_limit    0
gdma_origin   [ 0.0,  0.0,  0.0 ]
}
molecule test {
    units Angstrom
    0 1
    --
    0 1
    C                0.001122941499068     0.243010348429780    -0.022922994019594
    C               -1.627877058500932     1.551010348429780     2.038077005980406
    S               -1.453877058500932     1.243010348429780     0.275077005980406
    H               -0.161877058500932    -0.745989651570220     0.405077005980407
    H                0.143122941499068     0.184010348429780    -1.099922994019594
    H                0.872122941499068     0.710010348429780     0.438077005980406
    H               -0.652877058500932     1.811010348429780     2.453077005980407
    H               -1.960877058500932     0.627010348429780     2.513077005980406
    H               -2.346337058500933     2.349940348429780     2.273727005980406
    C                1.910122941499068    -1.774989651570220    -0.886922994019594
    C                2.760122941499068    -2.636989651570219    -1.774922994019593
    H                1.819122941499068    -2.194989651570220     0.116077005980407
    H                2.350122941499068    -0.778989651570220    -0.830922994019594
    H                0.927122941499068    -1.735989651570220    -1.352922994019593
    H                2.946122941499068    -2.113989651570220    -2.712922994019594
    H                2.237482941499068    -3.581839651570220    -1.984962994019593
    H                3.710962941499067    -2.791659651570220    -1.243902994019594

}
e, wfn = energy('scf', return_wfn=True)
gdma(wfn)
dmavals = variable('DMA DISTRIBUTED MULTIPOLES')
charges = np.array(dmavals)
print(charges)
np.save('SSI-001MET-031VAL-1-dimer.npy', np.array(charges))--------------------------------------------------------------------------

*** tstart() called on ds3
*** at Mon Apr 27 16:31:23 2020

   => Loading Basis Set <=

    Name: CC-PVDZ
    Role: ORBITAL
    Keyword: BASIS
    atoms 1-2, 10-11 entry C          line   138 file /theoryfs2/ds/metcalf/miniconda2/envs/tf2gpu/share/psi4/basis/cc-pvdz.gbs
    atoms 3          entry S          line   598 file /theoryfs2/ds/metcalf/miniconda2/envs/tf2gpu/share/psi4/basis/cc-pvdz.gbs
    atoms 4-9, 12-17 entry H          line    22 file /theoryfs2/ds/metcalf/miniconda2/envs/tf2gpu/share/psi4/basis/cc-pvdz.gbs

         ---------------------------------------------------------
                                   SCF
               by Justin Turney, Rob Parrish, Andy Simmonett
                          and Daniel G. A. Smith
                              RHF Reference
                        1 Threads,    500 MiB Core
         ---------------------------------------------------------

  ==> Geometry <==

    Molecular point group: c1
    Full point group: C1

    Geometry (in Angstrom), charge = 0, multiplicity = 1:

       Center              X                  Y                   Z               Mass
    ------------   -----------------  -----------------  -----------------  -----------------
         C            0.001122941499     0.243010348430    -0.022922994020    12.000000000000
         C           -1.627877058501     1.551010348430     2.038077005980    12.000000000000
         S           -1.453877058501     1.243010348430     0.275077005980    31.972071174400
         H           -0.161877058501    -0.745989651570     0.405077005980     1.007825032230
         H            0.143122941499     0.184010348430    -1.099922994020     1.007825032230
         H            0.872122941499     0.710010348430     0.438077005980     1.007825032230
         H           -0.652877058501     1.811010348430     2.453077005980     1.007825032230
         H           -1.960877058501     0.627010348430     2.513077005980     1.007825032230
         H           -2.346337058501     2.349940348430     2.273727005980     1.007825032230
         C            1.910122941499    -1.774989651570    -0.886922994020    12.000000000000
         C            2.760122941499    -2.636989651570    -1.774922994020    12.000000000000
         H            1.819122941499    -2.194989651570     0.116077005980     1.007825032230
         H            2.350122941499    -0.778989651570    -0.830922994020     1.007825032230
         H            0.927122941499    -1.735989651570    -1.352922994020     1.007825032230
         H            2.946122941499    -2.113989651570    -2.712922994020     1.007825032230
         H            2.237482941499    -3.581839651570    -1.984962994020     1.007825032230
         H            3.710962941499    -2.791659651570    -1.243902994020     1.007825032230

  Running in c1 symmetry.

  Rotational constants: A =      0.44395  B =      0.02674  C =      0.02577 [cm^-1]
  Rotational constants: A =  13309.20716  B =    801.61157  C =    772.51178 [MHz]
  Nuclear repulsion =  220.549998172008657

  Charge       = 0
  Multiplicity = 1
  Electrons    = 52
  Nalpha       = 26
  Nbeta        = 26

  ==> Algorithm <==

  SCF Algorithm Type is PK.
  DIIS enabled.
  MOM disabled.
  Fractional occupation disabled.
  Guess Type is SAD.
  Energy threshold   = 1.00e-06
  Density threshold  = 1.00e-10
  Integral threshold = 0.00e+00

  ==> Primary Basis <==

  Basis Set: CC-PVDZ
    Blend: CC-PVDZ
    Number of shells: 68
    Number of basis function: 134
    Number of Cartesian functions: 139
    Spherical Harmonics?: true
    Max angular momentum: 2

  ==> Pre-Iterations <==

   -------------------------------------------------------
    Irrep   Nso     Nmo     Nalpha   Nbeta   Ndocc  Nsocc
   -------------------------------------------------------
     A        134     134       0       0       0       0
   -------------------------------------------------------
    Total     134     134      26      26      26       0
   -------------------------------------------------------

  ==> Integral Setup <==

  Using integral reordering PK algorithm.
  Sizing the integral batches needed.
  Building batch lookup table.
   Calculation information:
      Number of atoms:                  17
      Number of AO shells:              68
      Number of primitives:            198
      Number of atomic orbitals:       139
      Number of basis functions:       134

      Integral cutoff                 1.00e-12
      Number of threads:                 1

	Batch   1 pq = [       0,    9045] index = [             0,40910535] size =     40910535
  Task number: 4
  Buffer size: 11059200
  Buffer per thread: 2
  We computed 2110633 shell quartets total.
  Whereas there are 2753031 unique shell quartets.

  ==> DiskJK: Disk-Based J/K Matrices <==

    J tasked:                  Yes
    K tasked:                  Yes
    wK tasked:                  No
    Memory [MiB]:              375
    Schwarz Cutoff:          1E-12

    OpenMP threads:              1

  Minimum eigenvalue in the overlap matrix is 5.1015019378E-03.
  Using Symmetric Orthogonalization.

  SCF Guess: Superposition of Atomic Densities via on-the-fly atomic UHF.

  ==> Iterations <==

                        Total Energy        Delta E     RMS |[F,P]|

   @RHF iter SAD:  -555.05130437336379   -5.55051e+02   0.00000e+00
   @RHF iter   1:  -555.82349864762000   -7.72194e-01   3.42791e-03 DIIS
   @RHF iter   2:  -555.95234905302982   -1.28850e-01   1.33166e-03 DIIS
   @RHF iter   3:  -555.97035549908321   -1.80064e-02   3.19447e-04 DIIS
   @RHF iter   4:  -555.97227542623796   -1.91993e-03   4.78214e-05 DIIS
   @RHF iter   5:  -555.97231440894416   -3.89827e-05   1.04255e-05 DIIS
   @RHF iter   6:  -555.97231640675113   -1.99781e-06   2.40592e-06 DIIS
   @RHF iter   7:  -555.97231649936998   -9.26188e-08   7.39624e-07 DIIS
   @RHF iter   8:  -555.97231650934123   -9.97125e-09   2.13447e-07 DIIS
   @RHF iter   9:  -555.97231651042910   -1.08787e-09   5.85647e-08 DIIS
   @RHF iter  10:  -555.97231651052243   -9.33369e-11   1.48964e-08 DIIS
   @RHF iter  11:  -555.97231651052596   -3.52429e-12   3.08876e-09 DIIS
   @RHF iter  12:  -555.97231651052766   -1.70530e-12   8.86496e-10 DIIS
   @RHF iter  13:  -555.97231651052823   -5.68434e-13   2.66878e-10 DIIS
   @RHF iter  14:  -555.97231651052516    3.06954e-12   7.49389e-11 DIIS
  Energy and wave function converged.

  ==> Post-Iterations <==

    Orbital Energies [Eh]
    ---------------------

    Doubly Occupied:

       1A    -91.925573     2A    -11.255647     3A    -11.253627
       4A    -11.219441     5A    -11.218068     6A     -8.930175
       7A     -6.612444     8A     -6.610676     9A     -6.608549
      10A     -1.058223    11A     -1.031970    12A     -0.956376
      13A     -0.838914    14A     -0.795894    15A     -0.616341
      16A     -0.610867    17A     -0.596685    18A     -0.595831
      19A     -0.574247    20A     -0.564306    21A     -0.520802
      22A     -0.502330    23A     -0.488920    24A     -0.475014
      25A     -0.405925    26A     -0.323062

    Virtual:

      27A      0.166552    28A      0.186613    29A      0.205030
      30A      0.229131    31A      0.231854    32A      0.237750
      33A      0.251536    34A      0.254777    35A      0.263231
      36A      0.274605    37A      0.281589    38A      0.297356
      39A      0.306569    40A      0.327850    41A      0.410280
      42A      0.514327    43A      0.566183    44A      0.576596
      45A      0.596608    46A      0.601513    47A      0.613702
      48A      0.645664    49A      0.674042    50A      0.691822
      51A      0.712220    52A      0.738104    53A      0.745564
      54A      0.799098    55A      0.820438    56A      0.840781
      57A      0.860277    58A      0.868510    59A      0.874255
      60A      0.881951    61A      0.888948    62A      0.892439
      63A      0.895244    64A      0.896904    65A      0.906768
      66A      0.912372    67A      0.917817    68A      0.935715
      69A      0.946539    70A      0.955273    71A      0.989907
      72A      1.042783    73A      1.124213    74A      1.157814
      75A      1.180323    76A      1.256218    77A      1.284355
      78A      1.332108    79A      1.343657    80A      1.373613
      81A      1.408656    82A      1.444467    83A      1.493154
      84A      1.499615    85A      1.540538    86A      1.581534
      87A      1.652654    88A      1.670216    89A      1.670906
      90A      1.685855    91A      1.833002    92A      1.837427
      93A      1.884438    94A      1.885636    95A      1.897815
      96A      1.905597    97A      1.932795    98A      1.935171
      99A      1.944952   100A      1.947588   101A      1.961802
     102A      1.972563   103A      1.990208   104A      2.013284
     105A      2.045357   106A      2.056291   107A      2.085339
     108A      2.103781   109A      2.136698   110A      2.155909
     111A      2.228414   112A      2.252223   113A      2.347768
     114A      2.367317   115A      2.405602   116A      2.438685
     117A      2.441926   118A      2.457151   119A      2.477469
     120A      2.492787   121A      2.567719   122A      2.598223
     123A      2.725510   124A      2.761916   125A      2.765761
     126A      2.773822   127A      2.786824   128A      2.795580
     129A      2.806082   130A      2.822096   131A      2.833273
     132A      2.841711   133A      2.948307   134A      2.964136

    Final Occupation by Irrep:
              A
    DOCC [    26 ]

  @RHF Final Energy:  -555.97231651052516

   => Energetics <=

    Nuclear Repulsion Energy =            220.5499981720086566
    One-Electron Energy =               -1199.8648186692475974
    Two-Electron Energy =                 423.3425039867137798
    Total Energy =                       -555.9723165105251610

Computation Completed

Properties will be evaluated at   0.000000,   0.000000,   0.000000 [a0]

Properties computed using the SCF density matrix

  Nuclear Dipole Moment: [e a0]
     X:     9.2278      Y:    -7.7121      Z:    -0.9550

  Electronic Dipole Moment: [e a0]
     X:    -8.7564      Y:     7.4402      Z:     1.4018

  Dipole Moment: [e a0]
     X:     0.4714      Y:    -0.2718      Z:     0.4468     Total:     0.7041

  Dipole Moment: [D]
     X:     1.1981      Y:    -0.6910      Z:     1.1357     Total:     1.7896

*** tstop() called on ds3 at Mon Apr 27 16:31:50 2020
Module time:
	user time   =      19.80 seconds =       0.33 minutes
	system time =       7.97 seconds =       0.13 minutes
	total time  =         27 seconds =       0.45 minutes
Total time:
	user time   =      19.80 seconds =       0.33 minutes
	system time =       7.97 seconds =       0.13 minutes
	total time  =         27 seconds =       0.45 minutes
                                     G D M A

                                 by Anthony Stone

                           version 2.2.06, 22 June 2011

               Distributed Multipoles from Gaussian wavefunctions

Starting at 16:31:50 on 27 Apr 2020

Using SCF density matrix from file ./SSI/SSI-001MET-031VAL-1-dimer.test.27078.fchk

                         Distributed Multipole Analysis

Standard DMA

Positions and radii in angstrom
Multipole moments in atomic units, ea_0^k for rank k

C          x =  0.001123  y =  0.243010  z = -0.022923 angstrom
           Maximum rank =  0   Radius =  0.650 angstrom
                   Q00  =  -0.324999

C          x = -1.627877  y =  1.551010  z =  2.038077 angstrom
           Maximum rank =  0   Radius =  0.650 angstrom
                   Q00  =  -0.343806

S          x = -1.453877  y =  1.243010  z =  0.275077 angstrom
           Maximum rank =  0   Radius =  0.650 angstrom
                   Q00  =   0.083261

H          x = -0.161877  y = -0.745990  z =  0.405077 angstrom
           Maximum rank =  0   Radius =  0.325 angstrom
                   Q00  =   0.082847

H          x =  0.143123  y =  0.184010  z = -1.099923 angstrom
           Maximum rank =  0   Radius =  0.325 angstrom
                   Q00  =   0.122125

H          x =  0.872123  y =  0.710010  z =  0.438077 angstrom
           Maximum rank =  0   Radius =  0.325 angstrom
                   Q00  =   0.086773

H          x = -0.652877  y =  1.811010  z =  2.453077 angstrom
           Maximum rank =  0   Radius =  0.325 angstrom
                   Q00  =   0.086531

H          x = -1.960877  y =  0.627010  z =  2.513077 angstrom
           Maximum rank =  0   Radius =  0.325 angstrom
                   Q00  =   0.081557

H          x = -2.346337  y =  2.349940  z =  2.273727 angstrom
           Maximum rank =  0   Radius =  0.325 angstrom
                   Q00  =   0.127467

C          x =  1.910123  y = -1.774990  z = -0.886923 angstrom
           Maximum rank =  0   Radius =  0.650 angstrom
                   Q00  =  -0.235323

C          x =  2.760123  y = -2.636990  z = -1.774923 angstrom
           Maximum rank =  0   Radius =  0.650 angstrom
                   Q00  =  -0.213117

H          x =  1.819123  y = -2.194990  z =  0.116077 angstrom
           Maximum rank =  0   Radius =  0.325 angstrom
                   Q00  =   0.078112

H          x =  2.350123  y = -0.778990  z = -0.830923 angstrom
           Maximum rank =  0   Radius =  0.325 angstrom
                   Q00  =   0.071275

H          x =  0.927123  y = -1.735990  z = -1.352923 angstrom
           Maximum rank =  0   Radius =  0.325 angstrom
                   Q00  =   0.066511

H          x =  2.946123  y = -2.113990  z = -2.712923 angstrom
           Maximum rank =  0   Radius =  0.325 angstrom
                   Q00  =   0.078219

H          x =  2.237483  y = -3.581840  z = -1.984963 angstrom
           Maximum rank =  0   Radius =  0.325 angstrom
                   Q00  =   0.078219

H          x =  3.710963  y = -2.791660  z = -1.243903 angstrom
           Maximum rank =  0   Radius =  0.325 angstrom
                   Q00  =   0.074347

Total multipoles referred to origin at
           x =   0.000000,  y =    0.000000,  z =    0.000000 angstrom
                   Q00  =  -0.000000

Finished at 16:31:50 on 27 Apr 2020

  DMA results are available in the Python driver through the
	  variable('DMA DISTRIBUTED MULTIPOLES')
  and
	  variable('DMA TOTAL MULTIPOLES')
  commands.

    Psi4 stopped on: Monday, 27 April 2020 04:31PM
    Psi4 wall time for execution: 0:00:27.35

*** Psi4 exiting successfully. Buy a developer a beer!
