                               Psi4 1.3.2 release

  ==> Input File <==

--------------------------------------------------------------------------
import numpy as np
set {scf_type pk
basis cc-pvdz
d_convergence 10
gdma_switch   0
gdma_limit    0
gdma_origin   [ 0.0,  0.0,  0.0 ]
}
molecule test {
    units Angstrom
    0 1
    --
    0 1
    C               -0.706351471717670     1.373266504909093     1.106816191622076
    C               -0.824351471717670     2.421266504909093    -0.000183808377924
    H               -1.046351471717670     1.782266504909093     2.058816191622075
    H               -1.337351471717670     0.516266504909093     0.865816191622075
    H                0.327648528282330     1.037266504909093     1.199816191622076
    H               -1.811351471717670     2.866266504909093     0.064816191622076
    H               -0.073921471717670     3.210141504909093     0.156456191622076
    H               -0.721901471717670     1.980392504909093    -1.002743808377925
    C                1.397648528282330    -1.483733495090907    -0.414183808377925
    C                0.135648528282330    -2.315733495090907    -0.693183808377924
    H                2.271648528282330    -2.135733495090907    -0.421183808377925
    H                1.527648528282330    -0.713733495090907    -1.173183808377924
    H                1.333648528282330    -0.977733495090907     0.548816191622076
    H               -0.742351471717670    -1.694733495090907    -0.511183808377925
    H                0.097508528282330    -3.190694495090907    -0.027613808377924
    H                0.144238528282330    -2.621223495090907    -1.749873808377925

}
e, wfn = energy('scf', return_wfn=True)
gdma(wfn)
dmavals = variable('DMA DISTRIBUTED MULTIPOLES')
charges = np.array(dmavals)
print(charges)
np.save('SSI-025LEU-075ILE-1-dimer.npy', np.array(charges))--------------------------------------------------------------------------

*** tstart() called on ds3
*** at Mon Apr 27 16:39:41 2020

   => Loading Basis Set <=

    Name: CC-PVDZ
    Role: ORBITAL
    Keyword: BASIS
    atoms 1-2, 9-10  entry C          line   138 file /theoryfs2/ds/metcalf/miniconda2/envs/tf2gpu/share/psi4/basis/cc-pvdz.gbs
    atoms 3-8, 11-16 entry H          line    22 file /theoryfs2/ds/metcalf/miniconda2/envs/tf2gpu/share/psi4/basis/cc-pvdz.gbs

         ---------------------------------------------------------
                                   SCF
               by Justin Turney, Rob Parrish, Andy Simmonett
                          and Daniel G. A. Smith
                              RHF Reference
                        1 Threads,    500 MiB Core
         ---------------------------------------------------------

  ==> Geometry <==

    Molecular point group: c1
    Full point group: C1

    Geometry (in Angstrom), charge = 0, multiplicity = 1:

       Center              X                  Y                   Z               Mass
    ------------   -----------------  -----------------  -----------------  -----------------
         C           -0.706351471718     1.373266504909     1.106816191622    12.000000000000
         C           -0.824351471718     2.421266504909    -0.000183808378    12.000000000000
         H           -1.046351471718     1.782266504909     2.058816191622     1.007825032230
         H           -1.337351471718     0.516266504909     0.865816191622     1.007825032230
         H            0.327648528282     1.037266504909     1.199816191622     1.007825032230
         H           -1.811351471718     2.866266504909     0.064816191622     1.007825032230
         H           -0.073921471718     3.210141504909     0.156456191622     1.007825032230
         H           -0.721901471718     1.980392504909    -1.002743808378     1.007825032230
         C            1.397648528282    -1.483733495091    -0.414183808378    12.000000000000
         C            0.135648528282    -2.315733495091    -0.693183808378    12.000000000000
         H            2.271648528282    -2.135733495091    -0.421183808378     1.007825032230
         H            1.527648528282    -0.713733495091    -1.173183808378     1.007825032230
         H            1.333648528282    -0.977733495091     0.548816191622     1.007825032230
         H           -0.742351471718    -1.694733495091    -0.511183808378     1.007825032230
         H            0.097508528282    -3.190694495091    -0.027613808378     1.007825032230
         H            0.144238528282    -2.621223495091    -1.749873808378     1.007825032230

  Running in c1 symmetry.

  Rotational constants: A =      0.37341  B =      0.05574  C =      0.05504 [cm^-1]
  Rotational constants: A =  11194.41314  B =   1671.12873  C =   1649.99807 [MHz]
  Nuclear repulsion =  123.902634743776389

  Charge       = 0
  Multiplicity = 1
  Electrons    = 36
  Nalpha       = 18
  Nbeta        = 18

  ==> Algorithm <==

  SCF Algorithm Type is PK.
  DIIS enabled.
  MOM disabled.
  Fractional occupation disabled.
  Guess Type is SAD.
  Energy threshold   = 1.00e-06
  Density threshold  = 1.00e-10
  Integral threshold = 0.00e+00

  ==> Primary Basis <==

  Basis Set: CC-PVDZ
    Blend: CC-PVDZ
    Number of shells: 60
    Number of basis function: 116
    Number of Cartesian functions: 120
    Spherical Harmonics?: true
    Max angular momentum: 2

  ==> Pre-Iterations <==

   -------------------------------------------------------
    Irrep   Nso     Nmo     Nalpha   Nbeta   Ndocc  Nsocc
   -------------------------------------------------------
     A        116     116       0       0       0       0
   -------------------------------------------------------
    Total     116     116      18      18      18       0
   -------------------------------------------------------

  ==> Integral Setup <==

  Using integral reordering PK algorithm.
  Sizing the integral batches needed.
  Building batch lookup table.
   Calculation information:
      Number of atoms:                  16
      Number of AO shells:              60
      Number of primitives:            148
      Number of atomic orbitals:       120
      Number of basis functions:       116

      Integral cutoff                 1.00e-12
      Number of threads:                 1

	Batch   1 pq = [       0,    6786] index = [             0,23028291] size =     23028291
  Task number: 3
  Buffer size: 11059200
  Buffer per thread: 2
  We computed 1523882 shell quartets total.
  Whereas there are 1675365 unique shell quartets.

  ==> DiskJK: Disk-Based J/K Matrices <==

    J tasked:                  Yes
    K tasked:                  Yes
    wK tasked:                  No
    Memory [MiB]:              375
    Schwarz Cutoff:          1E-12

    OpenMP threads:              1

  Minimum eigenvalue in the overlap matrix is 7.6504134804E-03.
  Using Symmetric Orthogonalization.

  SCF Guess: Superposition of Atomic Densities via on-the-fly atomic UHF.

  ==> Iterations <==

                        Total Energy        Delta E     RMS |[F,P]|

   @RHF iter SAD:  -157.33373743998357   -1.57334e+02   0.00000e+00
   @RHF iter   1:  -158.30775076057469   -9.74013e-01   4.20242e-03 DIIS
   @RHF iter   2:  -158.44047426391296   -1.32724e-01   1.79589e-03 DIIS
   @RHF iter   3:  -158.46387899163025   -2.34047e-02   3.48617e-04 DIIS
   @RHF iter   4:  -158.46569399370014   -1.81500e-03   3.83290e-05 DIIS
   @RHF iter   5:  -158.46571705494637   -2.30612e-05   6.23307e-06 DIIS
   @RHF iter   6:  -158.46571765119336   -5.96247e-07   7.40514e-07 DIIS
   @RHF iter   7:  -158.46571765826533   -7.07198e-09   1.96059e-07 DIIS
   @RHF iter   8:  -158.46571765859724   -3.31909e-10   4.06400e-08 DIIS
   @RHF iter   9:  -158.46571765861648   -1.92415e-11   8.05457e-09 DIIS
   @RHF iter  10:  -158.46571765861739   -9.09495e-13   1.72677e-09 DIIS
   @RHF iter  11:  -158.46571765861765   -2.55795e-13   3.51385e-10 DIIS
   @RHF iter  12:  -158.46571765861751    1.42109e-13   9.04604e-11 DIIS
  Energy and wave function converged.

  ==> Post-Iterations <==

    Orbital Energies [Eh]
    ---------------------

    Doubly Occupied:

       1A    -11.220263     2A    -11.219204     3A    -11.217548
       4A    -11.216526     5A     -1.019254     6A     -1.015394
       7A     -0.838422     8A     -0.836470     9A     -0.604238
      10A     -0.599478    11A     -0.596231    12A     -0.591275
      13A     -0.502234    14A     -0.498477    15A     -0.491567
      16A     -0.488005    17A     -0.483563    18A     -0.479387

    Virtual:

      19A      0.164784    20A      0.205542    21A      0.223467
      22A      0.226525    23A      0.242186    24A      0.254522
      25A      0.259801    26A      0.279022    27A      0.283307
      28A      0.310504    29A      0.335122    30A      0.347820
      31A      0.388091    32A      0.409432    33A      0.562387
      34A      0.592682    35A      0.600855    36A      0.607080
      37A      0.615663    38A      0.630386    39A      0.676990
      40A      0.682222    41A      0.691676    42A      0.795449
      43A      0.835740    44A      0.849320    45A      0.872079
      46A      0.884692    47A      0.887862    48A      0.897240
      49A      0.904798    50A      0.909105    51A      0.916813
      52A      0.935326    53A      0.943894    54A      0.968644
      55A      0.980282    56A      0.990963    57A      1.116762
      58A      1.122256    59A      1.132119    60A      1.148959
      61A      1.223486    62A      1.271529    63A      1.465063
      64A      1.474324    65A      1.483989    66A      1.488838
      67A      1.540770    68A      1.599507    69A      1.679131
      70A      1.682938    71A      1.690270    72A      1.713175
      73A      1.856552    74A      1.859174    75A      1.868454
      76A      1.884026    77A      1.888731    78A      1.896025
      79A      1.932362    80A      1.934600    81A      1.938004
      82A      1.944250    83A      1.948882    84A      1.950877
      85A      1.955572    86A      1.960926    87A      1.971162
      88A      2.030656    89A      2.104807    90A      2.116327
      91A      2.126163    92A      2.142996    93A      2.284100
      94A      2.300581    95A      2.308503    96A      2.324650
      97A      2.428205    98A      2.445670    99A      2.450755
     100A      2.470677   101A      2.557561   102A      2.569045
     103A      2.579937   104A      2.592427   105A      2.761518
     106A      2.768125   107A      2.784530   108A      2.797602
     109A      2.837200   110A      2.853148   111A      2.854935
     112A      2.857429   113A      2.933488   114A      2.949840
     115A      2.963889   116A      2.985568

    Final Occupation by Irrep:
              A
    DOCC [    18 ]

  @RHF Final Energy:  -158.46571765861751

   => Energetics <=

    Nuclear Repulsion Energy =            123.9026347437763889
    One-Electron Energy =                -456.9016330813475406
    Two-Electron Energy =                 174.5332806789536448
    Total Energy =                       -158.4657176586175069

Computation Completed

Properties will be evaluated at   0.000000,   0.000000,   0.000000 [a0]

Properties computed using the SCF density matrix

  Nuclear Dipole Moment: [e a0]
     X:    -0.0290      Y:     0.0551      Z:     0.0082

  Electronic Dipole Moment: [e a0]
     X:     0.0178      Y:    -0.0409      Z:     0.0035

  Dipole Moment: [e a0]
     X:    -0.0111      Y:     0.0141      Z:     0.0117     Total:     0.0215

  Dipole Moment: [D]
     X:    -0.0283      Y:     0.0359      Z:     0.0297     Total:     0.0545

*** tstop() called on ds3 at Mon Apr 27 16:39:54 2020
Module time:
	user time   =       8.68 seconds =       0.14 minutes
	system time =       4.22 seconds =       0.07 minutes
	total time  =         13 seconds =       0.22 minutes
Total time:
	user time   =       8.68 seconds =       0.14 minutes
	system time =       4.22 seconds =       0.07 minutes
	total time  =         13 seconds =       0.22 minutes
                                     G D M A

                                 by Anthony Stone

                           version 2.2.06, 22 June 2011

               Distributed Multipoles from Gaussian wavefunctions

Starting at 16:39:54 on 27 Apr 2020

Using SCF density matrix from file ./SSI/SSI-025LEU-075ILE-1-dimer.test.27612.fchk

                         Distributed Multipole Analysis

Standard DMA

Positions and radii in angstrom
Multipole moments in atomic units, ea_0^k for rank k

C          x = -0.706351  y =  1.373267  z =  1.106816 angstrom
           Maximum rank =  0   Radius =  0.650 angstrom
                   Q00  =  -0.230234

C          x = -0.824351  y =  2.421267  z = -0.000184 angstrom
           Maximum rank =  0   Radius =  0.650 angstrom
                   Q00  =  -0.247060

H          x = -1.046351  y =  1.782267  z =  2.058816 angstrom
           Maximum rank =  0   Radius =  0.325 angstrom
                   Q00  =   0.080268

H          x = -1.337351  y =  0.516267  z =  0.865816 angstrom
           Maximum rank =  0   Radius =  0.325 angstrom
                   Q00  =   0.077834

H          x =  0.327649  y =  1.037267  z =  1.199816 angstrom
           Maximum rank =  0   Radius =  0.325 angstrom
                   Q00  =   0.081190

H          x = -1.811351  y =  2.866267  z =  0.064816 angstrom
           Maximum rank =  0   Radius =  0.325 angstrom
                   Q00  =   0.077569

H          x = -0.073921  y =  3.210142  z =  0.156456 angstrom
           Maximum rank =  0   Radius =  0.325 angstrom
                   Q00  =   0.078436

H          x = -0.721901  y =  1.980393  z = -1.002744 angstrom
           Maximum rank =  0   Radius =  0.325 angstrom
                   Q00  =   0.080431

C          x =  1.397649  y = -1.483733  z = -0.414184 angstrom
           Maximum rank =  0   Radius =  0.650 angstrom
                   Q00  =  -0.247957

C          x =  0.135649  y = -2.315733  z = -0.693184 angstrom
           Maximum rank =  0   Radius =  0.650 angstrom
                   Q00  =  -0.229715

H          x =  2.271649  y = -2.135733  z = -0.421184 angstrom
           Maximum rank =  0   Radius =  0.325 angstrom
                   Q00  =   0.078569

H          x =  1.527649  y = -0.713733  z = -1.173184 angstrom
           Maximum rank =  0   Radius =  0.325 angstrom
                   Q00  =   0.078804

H          x =  1.333649  y = -0.977733  z =  0.548816 angstrom
           Maximum rank =  0   Radius =  0.325 angstrom
                   Q00  =   0.081861

H          x = -0.742351  y = -1.694733  z = -0.511184 angstrom
           Maximum rank =  0   Radius =  0.325 angstrom
                   Q00  =   0.079800

H          x =  0.097509  y = -3.190694  z = -0.027614 angstrom
           Maximum rank =  0   Radius =  0.325 angstrom
                   Q00  =   0.081031

H          x =  0.144239  y = -2.621223  z = -1.749874 angstrom
           Maximum rank =  0   Radius =  0.325 angstrom
                   Q00  =   0.079171

Total multipoles referred to origin at
           x =   0.000000,  y =    0.000000,  z =    0.000000 angstrom
                   Q00  =  -0.000000

Finished at 16:39:54 on 27 Apr 2020

  DMA results are available in the Python driver through the
	  variable('DMA DISTRIBUTED MULTIPOLES')
  and
	  variable('DMA TOTAL MULTIPOLES')
  commands.

    Psi4 stopped on: Monday, 27 April 2020 04:39PM
    Psi4 wall time for execution: 0:00:12.91

*** Psi4 exiting successfully. Buy a developer a beer!
