                               Psi4 1.3.2 release

  ==> Input File <==

--------------------------------------------------------------------------
import numpy as np
set {scf_type pk
basis cc-pvdz
d_convergence 10
gdma_switch   0
gdma_limit    0
gdma_origin   [ 0.0,  0.0,  0.0 ]
}
molecule test {
    units Angstrom
    0 1
    --
    0 1
    C                1.687335209233467    -0.077125739008719    -1.828066035854030
    C                1.240335209233467    -1.897125739008719     0.170933964145970
    S                0.311335209233467    -0.847125739008719    -0.951066035854030
    H                2.425335209233467     0.241874260991281    -1.091066035854030
    H                1.316335209233467     0.825874260991281    -2.312066035854029
    H                1.932335209233467    -1.291125739008719     0.756933964145970
    H                0.550335209233467    -2.402125739008719     0.846933964145970
    H                1.797335209233468    -2.646125739008719    -0.392066035854030
    H                2.196285209233467    -0.700997739008719    -2.577569035854030
    C               -2.278664790766532     1.579874260991281     1.338933964145970
    S               -0.623664790766533     0.987874260991281     1.012933964145970
    H               -0.173664790766533     1.035874260991281     2.274933964145970
    H               -2.187664790766533     2.569874260991281     1.792933964145970
    H               -2.752664790766532     0.927874260991281     2.074933964145970
    H               -2.923274790766532     1.669703260991281     0.452139964145970

}
e, wfn = energy('scf', return_wfn=True)
gdma(wfn)
dmavals = variable('DMA DISTRIBUTED MULTIPOLES')
charges = np.array(dmavals)
print(charges)
np.save('SSI-081MET-106CYS-1-dimer.npy', np.array(charges))--------------------------------------------------------------------------

*** tstart() called on ds3
*** at Mon Apr 27 17:30:14 2020

   => Loading Basis Set <=

    Name: CC-PVDZ
    Role: ORBITAL
    Keyword: BASIS
    atoms 1-2, 10    entry C          line   138 file /theoryfs2/ds/metcalf/miniconda2/envs/tf2gpu/share/psi4/basis/cc-pvdz.gbs
    atoms 3, 11      entry S          line   598 file /theoryfs2/ds/metcalf/miniconda2/envs/tf2gpu/share/psi4/basis/cc-pvdz.gbs
    atoms 4-9, 12-15 entry H          line    22 file /theoryfs2/ds/metcalf/miniconda2/envs/tf2gpu/share/psi4/basis/cc-pvdz.gbs

         ---------------------------------------------------------
                                   SCF
               by Justin Turney, Rob Parrish, Andy Simmonett
                          and Daniel G. A. Smith
                              RHF Reference
                        1 Threads,    500 MiB Core
         ---------------------------------------------------------

  ==> Geometry <==

    Molecular point group: c1
    Full point group: C1

    Geometry (in Angstrom), charge = 0, multiplicity = 1:

       Center              X                  Y                   Z               Mass
    ------------   -----------------  -----------------  -----------------  -----------------
         C            1.687335209233    -0.077125739009    -1.828066035854    12.000000000000
         C            1.240335209233    -1.897125739009     0.170933964146    12.000000000000
         S            0.311335209233    -0.847125739009    -0.951066035854    31.972071174400
         H            2.425335209233     0.241874260991    -1.091066035854     1.007825032230
         H            1.316335209233     0.825874260991    -2.312066035854     1.007825032230
         H            1.932335209233    -1.291125739009     0.756933964146     1.007825032230
         H            0.550335209233    -2.402125739009     0.846933964146     1.007825032230
         H            1.797335209233    -2.646125739009    -0.392066035854     1.007825032230
         H            2.196285209233    -0.700997739009    -2.577569035854     1.007825032230
         C           -2.278664790767     1.579874260991     1.338933964146    12.000000000000
         S           -0.623664790767     0.987874260991     1.012933964146    31.972071174400
         H           -0.173664790767     1.035874260991     2.274933964146     1.007825032230
         H           -2.187664790767     2.569874260991     1.792933964146     1.007825032230
         H           -2.752664790767     0.927874260991     2.074933964146     1.007825032230
         H           -2.923274790767     1.669703260991     0.452139964146     1.007825032230

  Running in c1 symmetry.

  Rotational constants: A =      0.17919  B =      0.04085  C =      0.03762 [cm^-1]
  Rotational constants: A =   5372.12086  B =   1224.50752  C =   1127.93170 [MHz]
  Nuclear repulsion =  293.884471229772316

  Charge       = 0
  Multiplicity = 1
  Electrons    = 60
  Nalpha       = 30
  Nbeta        = 30

  ==> Algorithm <==

  SCF Algorithm Type is PK.
  DIIS enabled.
  MOM disabled.
  Fractional occupation disabled.
  Guess Type is SAD.
  Energy threshold   = 1.00e-06
  Density threshold  = 1.00e-10
  Integral threshold = 0.00e+00

  ==> Primary Basis <==

  Basis Set: CC-PVDZ
    Blend: CC-PVDZ
    Number of shells: 64
    Number of basis function: 128
    Number of Cartesian functions: 133
    Spherical Harmonics?: true
    Max angular momentum: 2

  ==> Pre-Iterations <==

   -------------------------------------------------------
    Irrep   Nso     Nmo     Nalpha   Nbeta   Ndocc  Nsocc
   -------------------------------------------------------
     A        128     128       0       0       0       0
   -------------------------------------------------------
    Total     128     128      30      30      30       0
   -------------------------------------------------------

  ==> Integral Setup <==

  Using integral reordering PK algorithm.
  Sizing the integral batches needed.
  Building batch lookup table.
   Calculation information:
      Number of atoms:                  15
      Number of AO shells:              64
      Number of primitives:            216
      Number of atomic orbitals:       133
      Number of basis functions:       128

      Integral cutoff                 1.00e-12
      Number of threads:                 1

	Batch   1 pq = [       0,    8256] index = [             0,34084896] size =     34084896
  Task number: 4
  Buffer size: 11059200
  Buffer per thread: 2
  We computed 1852402 shell quartets total.
  Whereas there are 2164240 unique shell quartets.

  ==> DiskJK: Disk-Based J/K Matrices <==

    J tasked:                  Yes
    K tasked:                  Yes
    wK tasked:                  No
    Memory [MiB]:              375
    Schwarz Cutoff:          1E-12

    OpenMP threads:              1

  Minimum eigenvalue in the overlap matrix is 8.9905322514E-03.
  Using Symmetric Orthogonalization.

  SCF Guess: Superposition of Atomic Densities via on-the-fly atomic UHF.

  ==> Iterations <==

                        Total Energy        Delta E     RMS |[F,P]|

   @RHF iter SAD:  -913.64494910687336   -9.13645e+02   0.00000e+00
   @RHF iter   1:  -914.33074410609174   -6.85795e-01   3.02790e-03 DIIS
   @RHF iter   2:  -914.43238744634323   -1.01643e-01   1.09450e-03 DIIS
   @RHF iter   3:  -914.44433176778784   -1.19443e-02   3.05417e-04 DIIS
   @RHF iter   4:  -914.44589528930555   -1.56352e-03   6.44939e-05 DIIS
   @RHF iter   5:  -914.44595244150480   -5.71522e-05   1.62073e-05 DIIS
   @RHF iter   6:  -914.44595684420256   -4.40270e-06   3.95473e-06 DIIS
   @RHF iter   7:  -914.44595723790860   -3.93706e-07   1.24480e-06 DIIS
   @RHF iter   8:  -914.44595728596084   -4.80522e-08   4.73343e-07 DIIS
   @RHF iter   9:  -914.44595729327477   -7.31393e-09   1.68765e-07 DIIS
   @RHF iter  10:  -914.44595729447974   -1.20497e-09   5.80781e-08 DIIS
   @RHF iter  11:  -914.44595729463595   -1.56206e-10   1.67499e-08 DIIS
   @RHF iter  12:  -914.44595729464868   -1.27329e-11   4.71838e-09 DIIS
   @RHF iter  13:  -914.44595729465016   -1.47793e-12   1.45470e-09 DIIS
   @RHF iter  14:  -914.44595729464822    1.93268e-12   4.64691e-10 DIIS
   @RHF iter  15:  -914.44595729464891   -6.82121e-13   1.39140e-10 DIIS
   @RHF iter  16:  -914.44595729465084   -1.93268e-12   4.76353e-11 DIIS
  Energy and wave function converged.

  ==> Post-Iterations <==

    Orbital Energies [Eh]
    ---------------------

    Doubly Occupied:

       1A    -91.929038     2A    -91.917611     3A    -11.251557
       4A    -11.248446     5A    -11.246312     6A     -8.934089
       7A     -8.923227     8A     -6.615476     9A     -6.614501
      10A     -6.611486    11A     -6.604961    12A     -6.603438
      13A     -6.601360    14A     -1.055040    15A     -1.031423
      16A     -0.942055    17A     -0.854434    18A     -0.797958
      19A     -0.598452    20A     -0.596419    21A     -0.588579
      22A     -0.575968    23A     -0.565275    24A     -0.550721
      25A     -0.530255    26A     -0.486877    27A     -0.464324
      28A     -0.408832    29A     -0.345726    30A     -0.290950

    Virtual:

      31A      0.161423    32A      0.175586    33A      0.194095
      34A      0.211434    35A      0.236441    36A      0.247049
      37A      0.256029    38A      0.258815    39A      0.264615
      40A      0.274618    41A      0.278170    42A      0.287001
      43A      0.315184    44A      0.494997    45A      0.529254
      46A      0.547506    47A      0.574840    48A      0.583597
      49A      0.588069    50A      0.615356    51A      0.617061
      52A      0.665465    53A      0.703038    54A      0.743128
      55A      0.751273    56A      0.752744    57A      0.789151
      58A      0.799807    59A      0.829547    60A      0.838265
      61A      0.847228    62A      0.860154    63A      0.868930
      64A      0.875864    65A      0.883211    66A      0.887608
      67A      0.891609    68A      0.894689    69A      0.907806
      70A      0.914049    71A      0.924365    72A      0.934226
      73A      0.951583    74A      0.963126    75A      0.981620
      76A      1.177883    77A      1.196455    78A      1.220556
      79A      1.261334    80A      1.278029    81A      1.302671
      82A      1.331566    83A      1.342348    84A      1.352922
      85A      1.376724    86A      1.414221    87A      1.480675
      88A      1.487432    89A      1.551075    90A      1.673941
      91A      1.674850    92A      1.689180    93A      1.725965
      94A      1.739489    95A      1.884235    96A      1.886177
      97A      1.900243    98A      1.905067    99A      1.917985
     100A      1.927735   101A      1.936119   102A      1.943198
     103A      1.980670   104A      1.991304   105A      1.997732
     106A      2.013317   107A      2.027430   108A      2.038262
     109A      2.063863   110A      2.235498   111A      2.241369
     112A      2.262407   113A      2.388707   114A      2.407098
     115A      2.418981   116A      2.433347   117A      2.440026
     118A      2.442272   119A      2.458324   120A      2.733165
     121A      2.740295   122A      2.759727   123A      2.774723
     124A      2.784172   125A      2.796005   126A      2.796911
     127A      2.804996   128A      2.840111

    Final Occupation by Irrep:
              A
    DOCC [    30 ]

  @RHF Final Energy:  -914.44595729465084

   => Energetics <=

    Nuclear Repulsion Energy =            293.8844712297723163
    One-Electron Energy =               -1845.0912830801914879
    Two-Electron Energy =                 636.7608545557683328
    Total Energy =                       -914.4459572946508388

Computation Completed

Properties will be evaluated at   0.000000,   0.000000,   0.000000 [a0]

Properties computed using the SCF density matrix

  Nuclear Dipole Moment: [e a0]
     X:     2.0361      Y:     0.2200      Z:     1.7135

  Electronic Dipole Moment: [e a0]
     X:    -1.8543      Y:    -0.0948      Z:    -1.2285

  Dipole Moment: [e a0]
     X:     0.1818      Y:     0.1252      Z:     0.4850     Total:     0.5329

  Dipole Moment: [D]
     X:     0.4621      Y:     0.3183      Z:     1.2327     Total:     1.3544

*** tstop() called on ds3 at Mon Apr 27 17:30:45 2020
Module time:
	user time   =      25.90 seconds =       0.43 minutes
	system time =       6.03 seconds =       0.10 minutes
	total time  =         31 seconds =       0.52 minutes
Total time:
	user time   =      25.90 seconds =       0.43 minutes
	system time =       6.03 seconds =       0.10 minutes
	total time  =         31 seconds =       0.52 minutes
                                     G D M A

                                 by Anthony Stone

                           version 2.2.06, 22 June 2011

               Distributed Multipoles from Gaussian wavefunctions

Starting at 17:30:45 on 27 Apr 2020

Using SCF density matrix from file ./SSI/SSI-081MET-106CYS-1-dimer.test.16538.fchk

                         Distributed Multipole Analysis

Standard DMA

Positions and radii in angstrom
Multipole moments in atomic units, ea_0^k for rank k

C          x =  1.687335  y = -0.077126  z = -1.828066 angstrom
           Maximum rank =  0   Radius =  0.650 angstrom
                   Q00  =  -0.354317

C          x =  1.240335  y = -1.897126  z =  0.170934 angstrom
           Maximum rank =  0   Radius =  0.650 angstrom
                   Q00  =  -0.354906

S          x =  0.311335  y = -0.847126  z = -0.951066 angstrom
           Maximum rank =  0   Radius =  0.650 angstrom
                   Q00  =   0.136732

H          x =  2.425335  y =  0.241874  z = -1.091066 angstrom
           Maximum rank =  0   Radius =  0.325 angstrom
                   Q00  =   0.078259

H          x =  1.316335  y =  0.825874  z = -2.312066 angstrom
           Maximum rank =  0   Radius =  0.325 angstrom
                   Q00  =   0.113238

H          x =  1.932335  y = -1.291126  z =  0.756934 angstrom
           Maximum rank =  0   Radius =  0.325 angstrom
                   Q00  =   0.074286

H          x =  0.550335  y = -2.402126  z =  0.846934 angstrom
           Maximum rank =  0   Radius =  0.325 angstrom
                   Q00  =   0.117616

H          x =  1.797335  y = -2.646126  z = -0.392066 angstrom
           Maximum rank =  0   Radius =  0.325 angstrom
                   Q00  =   0.091718

H          x =  2.196285  y = -0.700998  z = -2.577569 angstrom
           Maximum rank =  0   Radius =  0.325 angstrom
                   Q00  =   0.088147

C          x = -2.278665  y =  1.579874  z =  1.338934 angstrom
           Maximum rank =  0   Radius =  0.650 angstrom
                   Q00  =  -0.331537

S          x = -0.623665  y =  0.987874  z =  1.012934 angstrom
           Maximum rank =  0   Radius =  0.650 angstrom
                   Q00  =  -0.042840

H          x = -0.173665  y =  1.035874  z =  2.274934 angstrom
           Maximum rank =  0   Radius =  0.325 angstrom
                   Q00  =   0.092009

H          x = -2.187665  y =  2.569874  z =  1.792934 angstrom
           Maximum rank =  0   Radius =  0.325 angstrom
                   Q00  =   0.084457

H          x = -2.752665  y =  0.927874  z =  2.074934 angstrom
           Maximum rank =  0   Radius =  0.325 angstrom
                   Q00  =   0.089146

H          x = -2.923275  y =  1.669703  z =  0.452140 angstrom
           Maximum rank =  0   Radius =  0.325 angstrom
                   Q00  =   0.117991

Total multipoles referred to origin at
           x =   0.000000,  y =    0.000000,  z =    0.000000 angstrom
                   Q00  =  -0.000000

Finished at 17:30:45 on 27 Apr 2020

  DMA results are available in the Python driver through the
	  variable('DMA DISTRIBUTED MULTIPOLES')
  and
	  variable('DMA TOTAL MULTIPOLES')
  commands.

    Psi4 stopped on: Monday, 27 April 2020 05:30PM
    Psi4 wall time for execution: 0:00:31.83

*** Psi4 exiting successfully. Buy a developer a beer!
