                               Psi4 1.3.2 release

  ==> Input File <==

--------------------------------------------------------------------------
import numpy as np
set {scf_type pk
basis cc-pvdz
d_convergence 10
gdma_switch   0
gdma_limit    0
gdma_origin   [ 0.0,  0.0,  0.0 ]
}
molecule test {
    units Angstrom
    0 1
    --
    0 1
    C                2.325221880255666     1.049160953452516    -0.217007695650803
    C                3.712221880255666     1.669160953452516    -0.303007695650803
    H                2.317221880255666     0.216160953452516     0.483992304349197
    H                1.620221880255666     1.802160953452516     0.133992304349198
    H                1.992221880255666     0.704160953452516    -1.194007695650803
    H                3.650221880255666     2.531160953452516    -0.968007695650802
    H                4.444044880255666     0.967919753452516    -0.730437695650803
    H                4.039198880255666     2.023266953452516     0.685776804349198
    C                0.048221880255666    -2.617839046547485     0.481992304349197
    C               -1.055778119744334     0.992160953452516     0.940992304349198
    C               -1.758778119744334     1.210160953452516    -0.223007695650803
    C               -0.474778119744334    -0.252839046547484     1.154992304349198
    C               -0.557778119744334    -1.275839046547484     0.219992304349198
    C               -1.893778119744334     0.175160953452516    -1.125007695650803
    C               -1.309778119744334    -1.057839046547484    -0.912007695650803
    H               -0.961778119744334     1.773160953452516     1.681992304349197
    H               -2.239778119744334     2.160160953452516    -0.408007695650803
    H                0.044221880255666    -0.428839046547484     2.080992304349197
    H               -2.503778119744335     0.296160953452516    -2.001007695650802
    H               -0.698778119744334    -3.356839046547484     0.293992304349197
    H                0.357221880255666    -2.685839046547485     1.525992304349197
    H               -1.469778119744334    -1.848839046547484    -1.628007695650802
    H                0.899441880255666    -2.861454046547485    -0.170752695650803

}
e, wfn = energy('scf', return_wfn=True)
gdma(wfn)
dmavals = variable('DMA DISTRIBUTED MULTIPOLES')
charges = np.array(dmavals)
print(charges)
np.save('SSI-024VAL-054PHE-1-dimer.npy', np.array(charges))--------------------------------------------------------------------------

*** tstart() called on ds3
*** at Tue Apr 28 03:52:44 2020

   => Loading Basis Set <=

    Name: CC-PVDZ
    Role: ORBITAL
    Keyword: BASIS
    atoms 1-2, 9-15  entry C          line   138 file /theoryfs2/ds/metcalf/miniconda2/envs/tf2gpu/share/psi4/basis/cc-pvdz.gbs
    atoms 3-8, 16-23 entry H          line    22 file /theoryfs2/ds/metcalf/miniconda2/envs/tf2gpu/share/psi4/basis/cc-pvdz.gbs

         ---------------------------------------------------------
                                   SCF
               by Justin Turney, Rob Parrish, Andy Simmonett
                          and Daniel G. A. Smith
                              RHF Reference
                        1 Threads,    500 MiB Core
         ---------------------------------------------------------

  ==> Geometry <==

    Molecular point group: c1
    Full point group: C1

    Geometry (in Angstrom), charge = 0, multiplicity = 1:

       Center              X                  Y                   Z               Mass
    ------------   -----------------  -----------------  -----------------  -----------------
         C            2.325221880256     1.049160953453    -0.217007695651    12.000000000000
         C            3.712221880256     1.669160953453    -0.303007695651    12.000000000000
         H            2.317221880256     0.216160953453     0.483992304349     1.007825032230
         H            1.620221880256     1.802160953453     0.133992304349     1.007825032230
         H            1.992221880256     0.704160953453    -1.194007695651     1.007825032230
         H            3.650221880256     2.531160953453    -0.968007695651     1.007825032230
         H            4.444044880256     0.967919753453    -0.730437695651     1.007825032230
         H            4.039198880256     2.023266953453     0.685776804349     1.007825032230
         C            0.048221880256    -2.617839046547     0.481992304349    12.000000000000
         C           -1.055778119744     0.992160953453     0.940992304349    12.000000000000
         C           -1.758778119744     1.210160953453    -0.223007695651    12.000000000000
         C           -0.474778119744    -0.252839046547     1.154992304349    12.000000000000
         C           -0.557778119744    -1.275839046547     0.219992304349    12.000000000000
         C           -1.893778119744     0.175160953453    -1.125007695651    12.000000000000
         C           -1.309778119744    -1.057839046547    -0.912007695651    12.000000000000
         H           -0.961778119744     1.773160953453     1.681992304349     1.007825032230
         H           -2.239778119744     2.160160953453    -0.408007695651     1.007825032230
         H            0.044221880256    -0.428839046547     2.080992304349     1.007825032230
         H           -2.503778119744     0.296160953453    -2.001007695651     1.007825032230
         H           -0.698778119744    -3.356839046547     0.293992304349     1.007825032230
         H            0.357221880256    -2.685839046547     1.525992304349     1.007825032230
         H           -1.469778119744    -1.848839046547    -1.628007695651     1.007825032230
         H            0.899441880256    -2.861454046547    -0.170752695651     1.007825032230

  Running in c1 symmetry.

  Rotational constants: A =      0.06152  B =      0.03047  C =      0.02488 [cm^-1]
  Rotational constants: A =   1844.46506  B =    913.47532  C =    745.89098 [MHz]
  Nuclear repulsion =  417.346511316905264

  Charge       = 0
  Multiplicity = 1
  Electrons    = 68
  Nalpha       = 34
  Nbeta        = 34

  ==> Algorithm <==

  SCF Algorithm Type is PK.
  DIIS enabled.
  MOM disabled.
  Fractional occupation disabled.
  Guess Type is SAD.
  Energy threshold   = 1.00e-06
  Density threshold  = 1.00e-10
  Integral threshold = 0.00e+00

  ==> Primary Basis <==

  Basis Set: CC-PVDZ
    Blend: CC-PVDZ
    Number of shells: 96
    Number of basis function: 196
    Number of Cartesian functions: 205
    Spherical Harmonics?: true
    Max angular momentum: 2

  ==> Pre-Iterations <==

   -------------------------------------------------------
    Irrep   Nso     Nmo     Nalpha   Nbeta   Ndocc  Nsocc
   -------------------------------------------------------
     A        196     196       0       0       0       0
   -------------------------------------------------------
    Total     196     196      34      34      34       0
   -------------------------------------------------------

  ==> Integral Setup <==

  Using integral reordering PK algorithm.
  Sizing the integral batches needed.
  Building batch lookup table.
   Calculation information:
      Number of atoms:                  23
      Number of AO shells:              96
      Number of primitives:            268
      Number of atomic orbitals:       205
      Number of basis functions:       196

      Integral cutoff                 1.00e-12
      Number of threads:                 1

	Batch   1 pq = [       0,    9405] index = [             0,44231715] size =     44231715
	Batch   2 pq = [    9405,   13301] index = [      44231715,88464951] size =     44233236
	Batch   3 pq = [   13301,   16290] index = [      88464951,132690195] size =     44225244
	Batch   4 pq = [   16290,   18810] index = [     132690195,176917455] size =     44227260
	Batch   5 pq = [   18810,   19306] index = [     176917455,186370471] size =      9453016
  Task number: 17
  Buffer size: 11059200
  Buffer per thread: 2
  We computed 10123437 shell quartets total.
  Whereas there are 10841496 unique shell quartets.

  ==> DiskJK: Disk-Based J/K Matrices <==

    J tasked:                  Yes
    K tasked:                  Yes
    wK tasked:                  No
    Memory [MiB]:              375
    Schwarz Cutoff:          1E-12

    OpenMP threads:              1

  Minimum eigenvalue in the overlap matrix is 2.9190036888E-04.
  Using Symmetric Orthogonalization.

  SCF Guess: Superposition of Atomic Densities via on-the-fly atomic UHF.

  ==> Iterations <==

                        Total Energy        Delta E     RMS |[F,P]|

   @RHF iter SAD:  -348.04250048005440   -3.48043e+02   0.00000e+00
   @RHF iter   1:  -348.75816261067416   -7.15662e-01   2.94394e-03 DIIS
   @RHF iter   2:  -348.95517626142231   -1.97014e-01   1.22727e-03 DIIS
   @RHF iter   3:  -348.98648900945506   -3.13127e-02   2.60776e-04 DIIS
   @RHF iter   4:  -348.98897941242296   -2.49040e-03   5.65393e-05 DIIS
   @RHF iter   5:  -348.98906165879453   -8.22464e-05   1.87950e-05 DIIS
   @RHF iter   6:  -348.98907032954565   -8.67075e-06   5.12900e-06 DIIS
   @RHF iter   7:  -348.98907108235392   -7.52808e-07   1.27380e-06 DIIS
   @RHF iter   8:  -348.98907113954129   -5.71874e-08   3.29701e-07 DIIS
   @RHF iter   9:  -348.98907114739495   -7.85366e-09   1.44990e-07 DIIS
   @RHF iter  10:  -348.98907114920570   -1.81075e-09   6.48795e-08 DIIS
   @RHF iter  11:  -348.98907114979068   -5.84976e-10   2.33020e-08 DIIS
   @RHF iter  12:  -348.98907114985946   -6.87805e-11   9.46762e-09 DIIS
   @RHF iter  13:  -348.98907114986486   -5.40012e-12   3.76467e-09 DIIS
   @RHF iter  14:  -348.98907114986508   -2.27374e-13   9.58782e-10 DIIS
   @RHF iter  15:  -348.98907114986667   -1.59162e-12   4.09205e-10 DIIS
   @RHF iter  16:  -348.98907114986650    1.70530e-13   1.60148e-10 DIIS
   @RHF iter  17:  -348.98907114986559    9.09495e-13   6.58049e-11 DIIS
  Energy and wave function converged.

  ==> Post-Iterations <==

    Orbital Energies [Eh]
    ---------------------

    Doubly Occupied:

       1A    -11.235816     2A    -11.232010     3A    -11.229585
       4A    -11.227272     5A    -11.226382     6A    -11.225945
       7A    -11.225300     8A    -11.211922     9A    -11.205279
      10A     -1.158742    11A     -1.049445    12A     -1.013731
      13A     -1.010514    14A     -0.934995    15A     -0.828609
      16A     -0.825871    17A     -0.797726    18A     -0.693710
      19A     -0.635117    20A     -0.628224    21A     -0.591262
      22A     -0.589379    23A     -0.581387    24A     -0.575858
      25A     -0.566162    26A     -0.539203    27A     -0.501536
      28A     -0.485501    29A     -0.484380    30A     -0.480794
      31A     -0.476943    32A     -0.474754    33A     -0.330982
      34A     -0.323473

    Virtual:

      35A      0.136701    36A      0.145657    37A      0.175230
      38A      0.198601    39A      0.201487    40A      0.216258
      41A      0.240342    42A      0.249079    43A      0.252842
      44A      0.265242    45A      0.268544    46A      0.277108
      47A      0.281622    48A      0.292490    49A      0.300940
      50A      0.319020    51A      0.373779    52A      0.380559
      53A      0.401928    54A      0.455691    55A      0.465959
      56A      0.479975    57A      0.507650    58A      0.567976
      59A      0.572414    60A      0.600335    61A      0.603768
      62A      0.611206    63A      0.629587    64A      0.667754
      65A      0.675222    66A      0.690673    67A      0.704020
      68A      0.711698    69A      0.736784    70A      0.749902
      71A      0.757328    72A      0.758371    73A      0.766189
      74A      0.778571    75A      0.791310    76A      0.815734
      77A      0.837687    78A      0.857683    79A      0.860059
      80A      0.878327    81A      0.884504    82A      0.898567
      83A      0.899043    84A      0.901269    85A      0.907247
      86A      0.920245    87A      0.925021    88A      0.932265
      89A      0.934567    90A      0.946116    91A      0.968315
      92A      0.975526    93A      0.998090    94A      1.007746
      95A      1.037907    96A      1.051938    97A      1.125202
      98A      1.131741    99A      1.145197   100A      1.151434
     101A      1.158069   102A      1.171503   103A      1.196112
     104A      1.207198   105A      1.239364   106A      1.261379
     107A      1.267861   108A      1.307632   109A      1.310354
     110A      1.317270   111A      1.329403   112A      1.346698
     113A      1.414681   114A      1.476227   115A      1.488395
     116A      1.525666   117A      1.527963   118A      1.558729
     119A      1.594912   120A      1.607003   121A      1.673701
     122A      1.688120   123A      1.694017   124A      1.707503
     125A      1.739587   126A      1.757321   127A      1.767677
     128A      1.798912   129A      1.825563   130A      1.866082
     131A      1.872376   132A      1.880033   133A      1.900612
     134A      1.909723   135A      1.914871   136A      1.919772
     137A      1.929360   138A      1.937027   139A      1.950341
     140A      1.957260   141A      1.962394   142A      1.966049
     143A      1.969891   144A      1.979571   145A      1.985354
     146A      2.002319   147A      2.023732   148A      2.030016
     149A      2.056103   150A      2.071856   151A      2.093134
     152A      2.106864   153A      2.117848   154A      2.127416
     155A      2.159496   156A      2.167177   157A      2.184971
     158A      2.188701   159A      2.216488   160A      2.254803
     161A      2.279220   162A      2.296981   163A      2.311102
     164A      2.325698   165A      2.330220   166A      2.360269
     167A      2.369733   168A      2.455184   169A      2.464859
     170A      2.481190   171A      2.495232   172A      2.548136
     173A      2.551857   174A      2.566136   175A      2.582571
     176A      2.640624   177A      2.746200   178A      2.765329
     179A      2.770439   180A      2.782267   181A      2.803038
     182A      2.804025   183A      2.833371   184A      2.861281
     185A      2.870097   186A      2.881464   187A      2.897115
     188A      2.961859   189A      2.980975   190A      3.010479
     191A      3.032228   192A      3.060033   193A      3.186068
     194A      3.231919   195A      3.326479   196A      4.005130

    Final Occupation by Irrep:
              A
    DOCC [    34 ]

  @RHF Final Energy:  -348.98907114986559

   => Energetics <=

    Nuclear Repulsion Energy =            417.3465113169052643
    One-Electron Energy =               -1297.4755461142910917
    Two-Electron Energy =                 531.1399636475202897
    Total Energy =                       -348.9890711498655946

Computation Completed

Properties will be evaluated at   0.000000,   0.000000,   0.000000 [a0]

Properties computed using the SCF density matrix

  Nuclear Dipole Moment: [e a0]
     X:    10.7716      Y:     1.2117      Z:    -0.2001

  Electronic Dipole Moment: [e a0]
     X:   -10.8442      Y:    -1.3632      Z:     0.2224

  Dipole Moment: [e a0]
     X:    -0.0725      Y:    -0.1515      Z:     0.0222     Total:     0.1694

  Dipole Moment: [D]
     X:    -0.1843      Y:    -0.3851      Z:     0.0565     Total:     0.4307

*** tstop() called on ds3 at Tue Apr 28 03:54:22 2020
Module time:
	user time   =      70.54 seconds =       1.18 minutes
	system time =      30.39 seconds =       0.51 minutes
	total time  =         98 seconds =       1.63 minutes
Total time:
	user time   =      70.54 seconds =       1.18 minutes
	system time =      30.39 seconds =       0.51 minutes
	total time  =         98 seconds =       1.63 minutes
                                     G D M A

                                 by Anthony Stone

                           version 2.2.06, 22 June 2011

               Distributed Multipoles from Gaussian wavefunctions

Starting at 3:54:22 on 28 Apr 2020

Using SCF density matrix from file ./SSI/SSI-024VAL-054PHE-1-dimer.test.26518.fchk

                         Distributed Multipole Analysis

Standard DMA

Positions and radii in angstrom
Multipole moments in atomic units, ea_0^k for rank k

C          x =  2.325222  y =  1.049161  z = -0.217008 angstrom
           Maximum rank =  0   Radius =  0.650 angstrom
                   Q00  =  -0.230077

C          x =  3.712222  y =  1.669161  z = -0.303008 angstrom
           Maximum rank =  0   Radius =  0.650 angstrom
                   Q00  =  -0.227544

H          x =  2.317222  y =  0.216161  z =  0.483992 angstrom
           Maximum rank =  0   Radius =  0.325 angstrom
                   Q00  =   0.071553

H          x =  1.620222  y =  1.802161  z =  0.133992 angstrom
           Maximum rank =  0   Radius =  0.325 angstrom
                   Q00  =   0.078556

H          x =  1.992222  y =  0.704161  z = -1.194008 angstrom
           Maximum rank =  0   Radius =  0.325 angstrom
                   Q00  =   0.082209

H          x =  3.650222  y =  2.531161  z = -0.968008 angstrom
           Maximum rank =  0   Radius =  0.325 angstrom
                   Q00  =   0.074025

H          x =  4.444045  y =  0.967920  z = -0.730438 angstrom
           Maximum rank =  0   Radius =  0.325 angstrom
                   Q00  =   0.076015

H          x =  4.039199  y =  2.023267  z =  0.685777 angstrom
           Maximum rank =  0   Radius =  0.325 angstrom
                   Q00  =   0.075470

C          x =  0.048222  y = -2.617839  z =  0.481992 angstrom
           Maximum rank =  0   Radius =  0.650 angstrom
                   Q00  =  -0.205830

C          x = -1.055778  y =  0.992161  z =  0.940992 angstrom
           Maximum rank =  0   Radius =  0.650 angstrom
                   Q00  =  -0.083536

C          x = -1.758778  y =  1.210161  z = -0.223008 angstrom
           Maximum rank =  0   Radius =  0.650 angstrom
                   Q00  =  -0.087603

C          x = -0.474778  y = -0.252839  z =  1.154992 angstrom
           Maximum rank =  0   Radius =  0.650 angstrom
                   Q00  =  -0.055923

C          x = -0.557778  y = -1.275839  z =  0.219992 angstrom
           Maximum rank =  0   Radius =  0.650 angstrom
                   Q00  =  -0.093430

C          x = -1.893778  y =  0.175161  z = -1.125008 angstrom
           Maximum rank =  0   Radius =  0.650 angstrom
                   Q00  =   0.032048

C          x = -1.309778  y = -1.057839  z = -0.912008 angstrom
           Maximum rank =  0   Radius =  0.650 angstrom
                   Q00  =  -0.095280

H          x = -0.961778  y =  1.773161  z =  1.681992 angstrom
           Maximum rank =  0   Radius =  0.325 angstrom
                   Q00  =   0.063603

H          x = -2.239778  y =  2.160161  z = -0.408008 angstrom
           Maximum rank =  0   Radius =  0.325 angstrom
                   Q00  =   0.059202

H          x =  0.044222  y = -0.428839  z =  2.080992 angstrom
           Maximum rank =  0   Radius =  0.325 angstrom
                   Q00  =   0.053344

H          x = -2.503778  y =  0.296161  z = -2.001008 angstrom
           Maximum rank =  0   Radius =  0.325 angstrom
                   Q00  =   0.058481

H          x = -0.698778  y = -3.356839  z =  0.293992 angstrom
           Maximum rank =  0   Radius =  0.325 angstrom
                   Q00  =   0.102682

H          x =  0.357222  y = -2.685839  z =  1.525992 angstrom
           Maximum rank =  0   Radius =  0.325 angstrom
                   Q00  =   0.097418

H          x = -1.469778  y = -1.848839  z = -1.628008 angstrom
           Maximum rank =  0   Radius =  0.325 angstrom
                   Q00  =   0.052697

H          x =  0.899442  y = -2.861454  z = -0.170753 angstrom
           Maximum rank =  0   Radius =  0.325 angstrom
                   Q00  =   0.101922

Total multipoles referred to origin at
           x =   0.000000,  y =    0.000000,  z =    0.000000 angstrom
                   Q00  =  -0.000000

Finished at 3:54:22 on 28 Apr 2020

  DMA results are available in the Python driver through the
	  variable('DMA DISTRIBUTED MULTIPOLES')
  and
	  variable('DMA TOTAL MULTIPOLES')
  commands.

    Psi4 stopped on: Tuesday, 28 April 2020 03:54AM
    Psi4 wall time for execution: 0:01:37.88

*** Psi4 exiting successfully. Buy a developer a beer!
