                               Psi4 1.3.2 release

  ==> Input File <==

--------------------------------------------------------------------------
import numpy as np
set {scf_type pk
basis cc-pvdz
d_convergence 10
gdma_switch   0
gdma_limit    0
gdma_origin   [ 0.0,  0.0,  0.0 ]
}
molecule test {
    units Angstrom
    1 1
    --
    1 1
    C               -0.995783223193089     1.098267851833367     0.063570079668456
    C               -2.250783223193089     1.486267851833367     0.830570079668456
    N                0.240216776806911     1.393267851833366     0.848570079668456
    H               -1.050783223193089     0.030267851833367    -0.170429920331544
    H               -0.971783223193089     1.638267851833366    -0.886429920331544
    H               -2.323783223193089     0.868267851833367     1.729570079668456
    H               -3.124783223193089     1.280267851833367     0.208570079668456
    H                0.273216776806911     0.864267851833367     1.719570079668456
    H                1.063216776806911     1.150267851833366     0.299570079668456
    H                0.318216776806911     2.390267851833367     1.041570079668456
    H               -2.245743223193089     2.550205851833367     1.109870079668456
    C                1.520216776806911    -1.734732148166634    -0.228429920331544
    C                1.385216776806911    -2.345732148166633    -1.618429920331544
    H                0.549216776806911    -1.413732148166633     0.146570079668456
    H                1.916216776806911    -2.491732148166634     0.449570079668456
    H                2.238216776806911    -0.914732148166634    -0.228429920331544
    H                2.378216776806911    -2.589732148166633    -1.991429920331544
    H                0.908806776806911    -1.636119148166634    -2.310874920331544
    H                0.795706776806911    -3.272819148166633    -1.563725920331544

}
e, wfn = energy('scf', return_wfn=True)
gdma(wfn)
dmavals = variable('DMA DISTRIBUTED MULTIPOLES')
charges = np.array(dmavals)
print(charges)
np.save('SSI-077LYS-178VAL-1-dimer.npy', np.array(charges))--------------------------------------------------------------------------

*** tstart() called on ds3
*** at Tue Apr 28 03:48:33 2020

   => Loading Basis Set <=

    Name: CC-PVDZ
    Role: ORBITAL
    Keyword: BASIS
    atoms 1-2, 12-13  entry C          line   138 file /theoryfs2/ds/metcalf/miniconda2/envs/tf2gpu/share/psi4/basis/cc-pvdz.gbs
    atoms 3           entry N          line   168 file /theoryfs2/ds/metcalf/miniconda2/envs/tf2gpu/share/psi4/basis/cc-pvdz.gbs
    atoms 4-11, 14-19 entry H          line    22 file /theoryfs2/ds/metcalf/miniconda2/envs/tf2gpu/share/psi4/basis/cc-pvdz.gbs

         ---------------------------------------------------------
                                   SCF
               by Justin Turney, Rob Parrish, Andy Simmonett
                          and Daniel G. A. Smith
                              RHF Reference
                        1 Threads,    500 MiB Core
         ---------------------------------------------------------

  ==> Geometry <==

    Molecular point group: c1
    Full point group: C1

    Geometry (in Angstrom), charge = 1, multiplicity = 1:

       Center              X                  Y                   Z               Mass
    ------------   -----------------  -----------------  -----------------  -----------------
         C           -0.995783223193     1.098267851833     0.063570079668    12.000000000000
         C           -2.250783223193     1.486267851833     0.830570079668    12.000000000000
         N            0.240216776807     1.393267851833     0.848570079668    14.003074004430
         H           -1.050783223193     0.030267851833    -0.170429920332     1.007825032230
         H           -0.971783223193     1.638267851833    -0.886429920332     1.007825032230
         H           -2.323783223193     0.868267851833     1.729570079668     1.007825032230
         H           -3.124783223193     1.280267851833     0.208570079668     1.007825032230
         H            0.273216776807     0.864267851833     1.719570079668     1.007825032230
         H            1.063216776807     1.150267851833     0.299570079668     1.007825032230
         H            0.318216776807     2.390267851833     1.041570079668     1.007825032230
         H           -2.245743223193     2.550205851833     1.109870079668     1.007825032230
         C            1.520216776807    -1.734732148167    -0.228429920332    12.000000000000
         C            1.385216776807    -2.345732148167    -1.618429920332    12.000000000000
         H            0.549216776807    -1.413732148167     0.146570079668     1.007825032230
         H            1.916216776807    -2.491732148167     0.449570079668     1.007825032230
         H            2.238216776807    -0.914732148167    -0.228429920332     1.007825032230
         H            2.378216776807    -2.589732148167    -1.991429920332     1.007825032230
         H            0.908806776807    -1.636119148167    -2.310874920332     1.007825032230
         H            0.795706776807    -3.272819148167    -1.563725920332     1.007825032230

  Running in c1 symmetry.

  Rotational constants: A =      0.25232  B =      0.04165  C =      0.03840 [cm^-1]
  Rotational constants: A =   7564.22551  B =   1248.55963  C =   1151.19652 [MHz]
  Nuclear repulsion =  190.427987777586850

  Charge       = 1
  Multiplicity = 1
  Electrons    = 44
  Nalpha       = 22
  Nbeta        = 22

  ==> Algorithm <==

  SCF Algorithm Type is PK.
  DIIS enabled.
  MOM disabled.
  Fractional occupation disabled.
  Guess Type is SAD.
  Energy threshold   = 1.00e-06
  Density threshold  = 1.00e-10
  Integral threshold = 0.00e+00

  ==> Primary Basis <==

  Basis Set: CC-PVDZ
    Blend: CC-PVDZ
    Number of shells: 72
    Number of basis function: 140
    Number of Cartesian functions: 145
    Spherical Harmonics?: true
    Max angular momentum: 2

  ==> Pre-Iterations <==

   -------------------------------------------------------
    Irrep   Nso     Nmo     Nalpha   Nbeta   Ndocc  Nsocc
   -------------------------------------------------------
     A        140     140       0       0       0       0
   -------------------------------------------------------
    Total     140     140      22      22      22       0
   -------------------------------------------------------

  ==> Integral Setup <==

  Using integral reordering PK algorithm.
  Sizing the integral batches needed.
  Building batch lookup table.
   Calculation information:
      Number of atoms:                  19
      Number of AO shells:              72
      Number of primitives:            180
      Number of atomic orbitals:       145
      Number of basis functions:       140

      Integral cutoff                 1.00e-12
      Number of threads:                 1

	Batch   1 pq = [       0,    9405] index = [             0,44231715] size =     44231715
	Batch   2 pq = [    9405,    9870] index = [      44231715,48713385] size =      4481670
  Task number: 5
  Buffer size: 11059200
  Buffer per thread: 2
  We computed 2898437 shell quartets total.
  Whereas there are 3454506 unique shell quartets.

  ==> DiskJK: Disk-Based J/K Matrices <==

    J tasked:                  Yes
    K tasked:                  Yes
    wK tasked:                  No
    Memory [MiB]:              375
    Schwarz Cutoff:          1E-12

    OpenMP threads:              1

  Minimum eigenvalue in the overlap matrix is 5.5292012063E-03.
  Using Symmetric Orthogonalization.

  SCF Guess: Superposition of Atomic Densities via on-the-fly atomic UHF.

  ==> Iterations <==

                        Total Energy        Delta E     RMS |[F,P]|

   @RHF iter SAD:  -213.19222032704346   -2.13192e+02   0.00000e+00
   @RHF iter   1:  -213.69279579387856   -5.00575e-01   3.56422e-03 DIIS
   @RHF iter   2:  -213.84326869346052   -1.50473e-01   1.35020e-03 DIIS
   @RHF iter   3:  -213.86336731533839   -2.00986e-02   3.43094e-04 DIIS
   @RHF iter   4:  -213.86550342574617   -2.13611e-03   4.70894e-05 DIIS
   @RHF iter   5:  -213.86554825393583   -4.48282e-05   1.35749e-05 DIIS
   @RHF iter   6:  -213.86555120274534   -2.94881e-06   3.82284e-06 DIIS
   @RHF iter   7:  -213.86555142486085   -2.22116e-07   9.34206e-07 DIIS
   @RHF iter   8:  -213.86555144456059   -1.96997e-08   2.77796e-07 DIIS
   @RHF iter   9:  -213.86555144591085   -1.35026e-09   7.13661e-08 DIIS
   @RHF iter  10:  -213.86555144600058   -8.97273e-11   1.20536e-08 DIIS
   @RHF iter  11:  -213.86555144600425   -3.66640e-12   2.40977e-09 DIIS
   @RHF iter  12:  -213.86555144600419    5.68434e-14   5.13012e-10 DIIS
   @RHF iter  13:  -213.86555144600393    2.55795e-13   1.58618e-10 DIIS
   @RHF iter  14:  -213.86555144600402   -8.52651e-14   4.55270e-11 DIIS
  Energy and wave function converged.

  ==> Post-Iterations <==

    Orbital Energies [Eh]
    ---------------------

    Doubly Occupied:

       1A    -15.904383     2A    -11.481711     3A    -11.406295
       4A    -11.354268     5A    -11.335440     6A     -1.520567
       7A     -1.221212     8A     -1.147741     9A     -1.055260
      10A     -0.982721    11A     -0.967502    12A     -0.957789
      13A     -0.861565    14A     -0.799399    15A     -0.732844
      16A     -0.723679    17A     -0.720854    18A     -0.703018
      19A     -0.686869    20A     -0.628648    21A     -0.613440
      22A     -0.607928

    Virtual:

      23A     -0.045908    24A      0.013145    25A      0.018142
      26A      0.027922    27A      0.067403    28A      0.081670
      29A      0.108097    30A      0.114196    31A      0.124685
      32A      0.126374    33A      0.146859    34A      0.149011
      35A      0.169341    36A      0.176640    37A      0.207405
      38A      0.222093    39A      0.272730    40A      0.374453
      41A      0.404593    42A      0.417367    43A      0.424073
      44A      0.450076    45A      0.474370    46A      0.491609
      47A      0.514184    48A      0.559799    49A      0.591148
      50A      0.600752    51A      0.632655    52A      0.643893
      53A      0.676940    54A      0.686404    55A      0.711857
      56A      0.714737    57A      0.724842    58A      0.731708
      59A      0.766316    60A      0.771373    61A      0.779294
      62A      0.785199    63A      0.787101    64A      0.795399
      65A      0.815104    66A      0.833464    67A      0.858434
      68A      0.880364    69A      0.924839    70A      0.941237
      71A      1.004592    72A      1.014977    73A      1.040066
      74A      1.126984    75A      1.202021    76A      1.259068
      77A      1.286694    78A      1.347978    79A      1.354263
      80A      1.385244    81A      1.434912    82A      1.466026
      83A      1.481538    84A      1.507461    85A      1.553595
      86A      1.573152    87A      1.577071    88A      1.661601
      89A      1.684221    90A      1.714713    91A      1.723285
      92A      1.743272    93A      1.751883    94A      1.756870
      95A      1.769906    96A      1.775338    97A      1.789063
      98A      1.808099    99A      1.814985   100A      1.824259
     101A      1.835676   102A      1.839753   103A      1.867791
     104A      1.870485   105A      1.902072   106A      1.922907
     107A      1.970685   108A      1.976194   109A      1.991674
     110A      2.003914   111A      2.040583   112A      2.122965
     113A      2.161567   114A      2.171873   115A      2.181530
     116A      2.195134   117A      2.283023   118A      2.308886
     119A      2.332039   120A      2.340150   121A      2.368778
     122A      2.418759   123A      2.446800   124A      2.450004
     125A      2.513846   126A      2.538519   127A      2.587864
     128A      2.625785   129A      2.641256   130A      2.660353
     131A      2.672522   132A      2.720455   133A      2.734933
     134A      2.743424   135A      2.798382   136A      2.823983
     137A      2.841038   138A      2.858674   139A      3.091933
     140A      3.134426

    Final Occupation by Irrep:
              A
    DOCC [    22 ]

  @RHF Final Energy:  -213.86555144600402

   => Energetics <=

    Nuclear Repulsion Energy =            190.4279877775868499
    One-Electron Energy =                -655.7608094291877023
    Two-Electron Energy =                 251.4672702055968330
    Total Energy =                       -213.8655514460040195

Computation Completed

Properties will be evaluated at   0.000000,   0.000000,   0.000000 [a0]

Properties computed using the SCF density matrix

  Nuclear Dipole Moment: [e a0]
     X:     0.6782      Y:    -1.4541      Z:    -0.4210

  Electronic Dipole Moment: [e a0]
     X:    -0.7357      Y:     3.6790      Z:     1.6409

  Dipole Moment: [e a0]
     X:    -0.0576      Y:     2.2249      Z:     1.2199     Total:     2.5380

  Dipole Moment: [D]
     X:    -0.1463      Y:     5.6551      Z:     3.1006     Total:     6.4510

*** tstop() called on ds3 at Tue Apr 28 03:48:54 2020
Module time:
	user time   =      15.47 seconds =       0.26 minutes
	system time =       6.06 seconds =       0.10 minutes
	total time  =         21 seconds =       0.35 minutes
Total time:
	user time   =      15.47 seconds =       0.26 minutes
	system time =       6.06 seconds =       0.10 minutes
	total time  =         21 seconds =       0.35 minutes
                                     G D M A

                                 by Anthony Stone

                           version 2.2.06, 22 June 2011

               Distributed Multipoles from Gaussian wavefunctions

Starting at 3:48:55 on 28 Apr 2020

Using SCF density matrix from file ./SSI/SSI-077LYS-178VAL-1-dimer.test.25024.fchk

                         Distributed Multipole Analysis

Standard DMA

Positions and radii in angstrom
Multipole moments in atomic units, ea_0^k for rank k

C          x = -0.995783  y =  1.098268  z =  0.063570 angstrom
           Maximum rank =  0   Radius =  0.650 angstrom
                   Q00  =  -0.036774

C          x = -2.250783  y =  1.486268  z =  0.830570 angstrom
           Maximum rank =  0   Radius =  0.650 angstrom
                   Q00  =  -0.224725

N          x =  0.240217  y =  1.393268  z =  0.848570 angstrom
           Maximum rank =  0   Radius =  0.650 angstrom
                   Q00  =  -0.156954

H          x = -1.050783  y =  0.030268  z = -0.170430 angstrom
           Maximum rank =  0   Radius =  0.325 angstrom
                   Q00  =   0.136681

H          x = -0.971783  y =  1.638268  z = -0.886430 angstrom
           Maximum rank =  0   Radius =  0.325 angstrom
                   Q00  =   0.131045

H          x = -2.323783  y =  0.868268  z =  1.729570 angstrom
           Maximum rank =  0   Radius =  0.325 angstrom
                   Q00  =   0.105713

H          x = -3.124783  y =  1.280268  z =  0.208570 angstrom
           Maximum rank =  0   Radius =  0.325 angstrom
                   Q00  =   0.153716

H          x =  0.273217  y =  0.864268  z =  1.719570 angstrom
           Maximum rank =  0   Radius =  0.325 angstrom
                   Q00  =   0.267993

H          x =  1.063217  y =  1.150268  z =  0.299570 angstrom
           Maximum rank =  0   Radius =  0.325 angstrom
                   Q00  =   0.262943

H          x =  0.318217  y =  2.390268  z =  1.041570 angstrom
           Maximum rank =  0   Radius =  0.325 angstrom
                   Q00  =   0.257147

H          x = -2.245743  y =  2.550206  z =  1.109870 angstrom
           Maximum rank =  0   Radius =  0.325 angstrom
                   Q00  =   0.105995

C          x =  1.520217  y = -1.734732  z = -0.228430 angstrom
           Maximum rank =  0   Radius =  0.650 angstrom
                   Q00  =  -0.282501

C          x =  1.385217  y = -2.345732  z = -1.618430 angstrom
           Maximum rank =  0   Radius =  0.650 angstrom
                   Q00  =  -0.212241

H          x =  0.549217  y = -1.413732  z =  0.146570 angstrom
           Maximum rank =  0   Radius =  0.325 angstrom
                   Q00  =   0.030847

H          x =  1.916217  y = -2.491732  z =  0.449570 angstrom
           Maximum rank =  0   Radius =  0.325 angstrom
                   Q00  =   0.118825

H          x =  2.238217  y = -0.914732  z = -0.228430 angstrom
           Maximum rank =  0   Radius =  0.325 angstrom
                   Q00  =   0.061137

H          x =  2.378217  y = -2.589732  z = -1.991430 angstrom
           Maximum rank =  0   Radius =  0.325 angstrom
                   Q00  =   0.108113

H          x =  0.908807  y = -1.636119  z = -2.310875 angstrom
           Maximum rank =  0   Radius =  0.325 angstrom
                   Q00  =   0.070866

H          x =  0.795707  y = -3.272819  z = -1.563726 angstrom
           Maximum rank =  0   Radius =  0.325 angstrom
                   Q00  =   0.102175

Total multipoles referred to origin at
           x =   0.000000,  y =    0.000000,  z =    0.000000 angstrom
                   Q00  =   1.000000

Finished at 3:48:55 on 28 Apr 2020

  DMA results are available in the Python driver through the
	  variable('DMA DISTRIBUTED MULTIPOLES')
  and
	  variable('DMA TOTAL MULTIPOLES')
  commands.

    Psi4 stopped on: Tuesday, 28 April 2020 03:48AM
    Psi4 wall time for execution: 0:00:21.23

*** Psi4 exiting successfully. Buy a developer a beer!
