                               Psi4 1.3.2 release

  ==> Input File <==

--------------------------------------------------------------------------
import numpy as np
set {scf_type pk
basis cc-pvdz
d_convergence 10
gdma_switch   0
gdma_limit    0
gdma_origin   [ 0.0,  0.0,  0.0 ]
}
molecule test {
    units Angstrom
    -1 1
    --
    -1 1
    C                0.516146034042511     0.685062946921795     1.388476671575972
    C               -0.289853965957489    -0.324937053078205     2.210476671575972
    C                1.183146034042511     0.044062946921795     0.182476671575972
    O                1.201146034042511    -1.201937053078205     0.097476671575972
    O                1.677146034042511     0.796062946921795    -0.690523328424028
    H               -0.159853965957489     1.462062946921795     1.028476671575972
    H                1.271146034042511     1.177062946921795     2.000476671575973
    H               -0.846853965957489    -0.952937053078205     1.513476671575972
    H               -0.993663965957489     0.196682946921795     2.875731671575972
    H                0.364936034042511    -0.963137053078205     2.821995671575972
    C               -2.215853965957489    -0.204937053078205    -2.086523328424028
    O               -1.653853965957489     0.240062946921795    -0.856523328424028
    H               -2.375853965957489     0.294062946921795    -0.216523328424028
    H               -3.058853965957489     0.434062946921795    -2.354523328424028
    H               -1.452713965957489    -0.152427053078205    -2.877003328424028
    H               -2.579153965957489    -1.236347053078205    -1.967343328424028

}
e, wfn = energy('scf', return_wfn=True)
gdma(wfn)
dmavals = variable('DMA DISTRIBUTED MULTIPOLES')
charges = np.array(dmavals)
print(charges)
np.save('SSI-124ASP-131THR-1-dimer.npy', np.array(charges))--------------------------------------------------------------------------

*** tstart() called on ds3
*** at Mon Apr 27 14:04:05 2020

   => Loading Basis Set <=

    Name: CC-PVDZ
    Role: ORBITAL
    Keyword: BASIS
    atoms 1-3, 11     entry C          line   138 file /theoryfs2/ds/metcalf/miniconda2/envs/tf2gpu/share/psi4/basis/cc-pvdz.gbs
    atoms 4-5, 12     entry O          line   198 file /theoryfs2/ds/metcalf/miniconda2/envs/tf2gpu/share/psi4/basis/cc-pvdz.gbs
    atoms 6-10, 13-16 entry H          line    22 file /theoryfs2/ds/metcalf/miniconda2/envs/tf2gpu/share/psi4/basis/cc-pvdz.gbs

         ---------------------------------------------------------
                                   SCF
               by Justin Turney, Rob Parrish, Andy Simmonett
                          and Daniel G. A. Smith
                              RHF Reference
                        1 Threads,    500 MiB Core
         ---------------------------------------------------------

  ==> Geometry <==

    Molecular point group: c1
    Full point group: C1

    Geometry (in Angstrom), charge = -1, multiplicity = 1:

       Center              X                  Y                   Z               Mass
    ------------   -----------------  -----------------  -----------------  -----------------
         C            0.516146034043     0.685062946922     1.388476671576    12.000000000000
         C           -0.289853965957    -0.324937053078     2.210476671576    12.000000000000
         C            1.183146034043     0.044062946922     0.182476671576    12.000000000000
         O            1.201146034043    -1.201937053078     0.097476671576    15.994914619570
         O            1.677146034043     0.796062946922    -0.690523328424    15.994914619570
         H           -0.159853965957     1.462062946922     1.028476671576     1.007825032230
         H            1.271146034043     1.177062946922     2.000476671576     1.007825032230
         H           -0.846853965957    -0.952937053078     1.513476671576     1.007825032230
         H           -0.993663965957     0.196682946922     2.875731671576     1.007825032230
         H            0.364936034043    -0.963137053078     2.821995671576     1.007825032230
         C           -2.215853965957    -0.204937053078    -2.086523328424    12.000000000000
         O           -1.653853965957     0.240062946922    -0.856523328424    15.994914619570
         H           -2.375853965957     0.294062946922    -0.216523328424     1.007825032230
         H           -3.058853965957     0.434062946922    -2.354523328424     1.007825032230
         H           -1.452713965957    -0.152427053078    -2.877003328424     1.007825032230
         H           -2.579153965957    -1.236347053078    -1.967343328424     1.007825032230

  Running in c1 symmetry.

  Rotational constants: A =      0.09687  B =      0.04990  C =      0.04058 [cm^-1]
  Rotational constants: A =   2904.06067  B =   1495.99829  C =   1216.51780 [MHz]
  Nuclear repulsion =  307.228121926752806

  Charge       = -1
  Multiplicity = 1
  Electrons    = 58
  Nalpha       = 29
  Nbeta        = 29

  ==> Algorithm <==

  SCF Algorithm Type is PK.
  DIIS enabled.
  MOM disabled.
  Fractional occupation disabled.
  Guess Type is SAD.
  Energy threshold   = 1.00e-06
  Density threshold  = 1.00e-10
  Integral threshold = 0.00e+00

  ==> Primary Basis <==

  Basis Set: CC-PVDZ
    Blend: CC-PVDZ
    Number of shells: 69
    Number of basis function: 143
    Number of Cartesian functions: 150
    Spherical Harmonics?: true
    Max angular momentum: 2

  ==> Pre-Iterations <==

   -------------------------------------------------------
    Irrep   Nso     Nmo     Nalpha   Nbeta   Ndocc  Nsocc
   -------------------------------------------------------
     A        143     143       0       0       0       0
   -------------------------------------------------------
    Total     143     143      29      29      29       0
   -------------------------------------------------------

  ==> Integral Setup <==

  Using integral reordering PK algorithm.
  Sizing the integral batches needed.
  Building batch lookup table.
   Calculation information:
      Number of atoms:                  16
      Number of AO shells:              69
      Number of primitives:            199
      Number of atomic orbitals:       150
      Number of basis functions:       143

      Integral cutoff                 1.00e-12
      Number of threads:                 1

	Batch   1 pq = [       0,    9405] index = [             0,44231715] size =     44231715
	Batch   2 pq = [    9405,   10296] index = [      44231715,53008956] size =      8777241
  Task number: 5
  Buffer size: 11059200
  Buffer per thread: 2
  We computed 2649233 shell quartets total.
  Whereas there are 2917320 unique shell quartets.

  ==> DiskJK: Disk-Based J/K Matrices <==

    J tasked:                  Yes
    K tasked:                  Yes
    wK tasked:                  No
    Memory [MiB]:              375
    Schwarz Cutoff:          1E-12

    OpenMP threads:              1

  Minimum eigenvalue in the overlap matrix is 3.4961016779E-03.
  Using Symmetric Orthogonalization.

  SCF Guess: Superposition of Atomic Densities via on-the-fly atomic UHF.

  ==> Iterations <==

                        Total Energy        Delta E     RMS |[F,P]|

   @RHF iter SAD:  -379.58656738527509   -3.79587e+02   0.00000e+00
   @RHF iter   1:  -381.02970940947591   -1.44314e+00   5.34394e-03 DIIS
   @RHF iter   2:  -381.24520364344482   -2.15494e-01   3.01250e-03 DIIS
   @RHF iter   3:  -381.31162146359378   -6.64178e-02   4.28767e-04 DIIS
   @RHF iter   4:  -381.31424773187314   -2.62627e-03   1.59961e-04 DIIS
   @RHF iter   5:  -381.31460007848068   -3.52347e-04   3.13358e-05 DIIS
   @RHF iter   6:  -381.31461557573977   -1.54973e-05   9.89313e-06 DIIS
   @RHF iter   7:  -381.31461690330985   -1.32757e-06   3.31052e-06 DIIS
   @RHF iter   8:  -381.31461705911164   -1.55802e-07   8.06112e-07 DIIS
   @RHF iter   9:  -381.31461707235042   -1.32388e-08   3.48608e-07 DIIS
   @RHF iter  10:  -381.31461707437876   -2.02834e-09   1.15138e-07 DIIS
   @RHF iter  11:  -381.31461707467628   -2.97518e-10   3.90831e-08 DIIS
   @RHF iter  12:  -381.31461707471829   -4.20073e-11   1.49488e-08 DIIS
   @RHF iter  13:  -381.31461707473090   -1.26192e-11   4.46973e-09 DIIS
   @RHF iter  14:  -381.31461707472789    3.01270e-12   1.36833e-09 DIIS
   @RHF iter  15:  -381.31461707472954   -1.64846e-12   4.19148e-10 DIIS
   @RHF iter  16:  -381.31461707472960   -5.68434e-14   1.38174e-10 DIIS
   @RHF iter  17:  -381.31461707472425    5.34328e-12   4.28459e-11 DIIS
  Energy and wave function converged.

  ==> Post-Iterations <==

    Orbital Energies [Eh]
    ---------------------

    Doubly Occupied:

       1A    -20.426697     2A    -20.241877     3A    -20.234258
       4A    -11.163325     5A    -11.094498     6A    -11.058977
       7A    -11.037081     8A     -1.224777     9A     -1.129061
      10A     -1.015124    11A     -0.854354    12A     -0.803233
      13A     -0.687302    14A     -0.558444    15A     -0.498560
      16A     -0.489161    17A     -0.470404    18A     -0.438853
      19A     -0.416047    20A     -0.374953    21A     -0.371723
      22A     -0.344577    23A     -0.336884    24A     -0.319956
      25A     -0.310493    26A     -0.279879    27A     -0.163847
      28A     -0.150916    29A     -0.140705

    Virtual:

      30A      0.289507    31A      0.325103    32A      0.360106
      33A      0.366774    34A      0.382951    35A      0.390181
      36A      0.401991    37A      0.431303    38A      0.454358
      39A      0.476166    40A      0.518657    41A      0.563857
      42A      0.624082    43A      0.706831    44A      0.729190
      45A      0.751935    46A      0.756714    47A      0.776789
      48A      0.805307    49A      0.856616    50A      0.918304
      51A      0.933996    52A      0.950108    53A      0.969650
      54A      0.984523    55A      1.002377    56A      1.020410
      57A      1.030034    58A      1.034223    59A      1.050462
      60A      1.065548    61A      1.069556    62A      1.079718
      63A      1.098479    64A      1.106383    65A      1.163634
      66A      1.223531    67A      1.260155    68A      1.274179
      69A      1.300319    70A      1.320051    71A      1.329489
      72A      1.409483    73A      1.445528    74A      1.483930
      75A      1.500504    76A      1.532171    77A      1.545652
      78A      1.614208    79A      1.632044    80A      1.666700
      81A      1.675786    82A      1.714718    83A      1.744287
      84A      1.775158    85A      1.780835    86A      1.803851
      87A      1.843976    88A      1.855294    89A      1.897131
      90A      1.964036    91A      1.977311    92A      2.012307
      93A      2.016563    94A      2.049542    95A      2.065749
      96A      2.074431    97A      2.086206    98A      2.114740
      99A      2.141625   100A      2.147421   101A      2.179580
     102A      2.205351   103A      2.242618   104A      2.252961
     105A      2.283672   106A      2.320665   107A      2.362708
     108A      2.404548   109A      2.437941   110A      2.476930
     111A      2.485694   112A      2.502412   113A      2.534787
     114A      2.556723   115A      2.634548   116A      2.642789
     117A      2.673466   118A      2.742629   119A      2.797001
     120A      2.821011   121A      2.863684   122A      2.868889
     123A      2.877242   124A      2.927268   125A      3.000814
     126A      3.020014   127A      3.084263   128A      3.136684
     129A      3.264469   130A      3.310281   131A      3.327745
     132A      3.384074   133A      3.430250   134A      3.502751
     135A      3.587053   136A      3.665294   137A      3.709954
     138A      3.806477   139A      3.850175   140A      4.079277
     141A      4.098511   142A      4.227883   143A      4.243726

    Final Occupation by Irrep:
              A
    DOCC [    29 ]

  @RHF Final Energy:  -381.31461707472425

   => Energetics <=

    Nuclear Repulsion Energy =            307.2281219267528058
    One-Electron Energy =               -1143.8135450295715145
    Two-Electron Energy =                 455.2708060280944551
    Total Energy =                       -381.3146170747242536

Computation Completed

Properties will be evaluated at   0.000000,   0.000000,   0.000000 [a0]

Properties computed using the SCF density matrix

  Nuclear Dipole Moment: [e a0]
     X:    -9.2103      Y:     0.2421      Z:     2.6412

  Electronic Dipole Moment: [e a0]
     X:     5.9663      Y:     0.0948      Z:    -2.2943

  Dipole Moment: [e a0]
     X:    -3.2440      Y:     0.3369      Z:     0.3468     Total:     3.2798

  Dipole Moment: [D]
     X:    -8.2454      Y:     0.8564      Z:     0.8816     Total:     8.3365

*** tstop() called on ds3 at Mon Apr 27 14:04:44 2020
Module time:
	user time   =      20.81 seconds =       0.35 minutes
	system time =       7.36 seconds =       0.12 minutes
	total time  =         39 seconds =       0.65 minutes
Total time:
	user time   =      20.81 seconds =       0.35 minutes
	system time =       7.36 seconds =       0.12 minutes
	total time  =         39 seconds =       0.65 minutes
                                     G D M A

                                 by Anthony Stone

                           version 2.2.06, 22 June 2011

               Distributed Multipoles from Gaussian wavefunctions

Starting at 14:4:44 on 27 Apr 2020

Using SCF density matrix from file ./SSI/SSI-124ASP-131THR-1-dimer.test.8689.fchk

                         Distributed Multipole Analysis

Standard DMA

Positions and radii in angstrom
Multipole moments in atomic units, ea_0^k for rank k

C          x =  0.516146  y =  0.685063  z =  1.388477 angstrom
           Maximum rank =  0   Radius =  0.650 angstrom
                   Q00  =  -0.159208

C          x = -0.289854  y = -0.324937  z =  2.210477 angstrom
           Maximum rank =  0   Radius =  0.650 angstrom
                   Q00  =  -0.216192

C          x =  1.183146  y =  0.044063  z =  0.182477 angstrom
           Maximum rank =  0   Radius =  0.650 angstrom
                   Q00  =   1.054875

O          x =  1.201146  y = -1.201937  z =  0.097477 angstrom
           Maximum rank =  0   Radius =  0.650 angstrom
                   Q00  =  -0.973817

O          x =  1.677146  y =  0.796063  z = -0.690523 angstrom
           Maximum rank =  0   Radius =  0.650 angstrom
                   Q00  =  -0.953016

H          x = -0.159854  y =  1.462063  z =  1.028477 angstrom
           Maximum rank =  0   Radius =  0.325 angstrom
                   Q00  =   0.043567

H          x =  1.271146  y =  1.177063  z =  2.000477 angstrom
           Maximum rank =  0   Radius =  0.325 angstrom
                   Q00  =   0.039869

H          x = -0.846854  y = -0.952937  z =  1.513477 angstrom
           Maximum rank =  0   Radius =  0.325 angstrom
                   Q00  =   0.091045

H          x = -0.993664  y =  0.196683  z =  2.875732 angstrom
           Maximum rank =  0   Radius =  0.325 angstrom
                   Q00  =  -0.002827

H          x =  0.364936  y = -0.963137  z =  2.821996 angstrom
           Maximum rank =  0   Radius =  0.325 angstrom
                   Q00  =   0.067209

C          x = -2.215854  y = -0.204937  z = -2.086523 angstrom
           Maximum rank =  0   Radius =  0.650 angstrom
                   Q00  =  -0.016638

O          x = -1.653854  y =  0.240063  z = -0.856523 angstrom
           Maximum rank =  0   Radius =  0.650 angstrom
                   Q00  =  -0.532323

H          x = -2.375854  y =  0.294063  z = -0.216523 angstrom
           Maximum rank =  0   Radius =  0.325 angstrom
                   Q00  =   0.349157

H          x = -3.058854  y =  0.434063  z = -2.354523 angstrom
           Maximum rank =  0   Radius =  0.325 angstrom
                   Q00  =   0.028053

H          x = -1.452714  y = -0.152427  z = -2.877003 angstrom
           Maximum rank =  0   Radius =  0.325 angstrom
                   Q00  =   0.127505

H          x = -2.579154  y = -1.236347  z = -1.967343 angstrom
           Maximum rank =  0   Radius =  0.325 angstrom
                   Q00  =   0.052742

Total multipoles referred to origin at
           x =   0.000000,  y =    0.000000,  z =    0.000000 angstrom
                   Q00  =  -1.000000

Finished at 14:4:44 on 27 Apr 2020

  DMA results are available in the Python driver through the
	  variable('DMA DISTRIBUTED MULTIPOLES')
  and
	  variable('DMA TOTAL MULTIPOLES')
  commands.

    Psi4 stopped on: Monday, 27 April 2020 02:04PM
    Psi4 wall time for execution: 0:00:39.13

*** Psi4 exiting successfully. Buy a developer a beer!
