                               Psi4 1.3.2 release

  ==> Input File <==

--------------------------------------------------------------------------
import numpy as np
set {scf_type pk
basis cc-pvdz
d_convergence 10
gdma_switch   0
gdma_limit    0
gdma_origin   [ 0.0,  0.0,  0.0 ]
}
molecule test {
    units Angstrom
    0 1
    --
    0 1
    C                0.612292413915849    -1.658520628130004    -0.605583532667949
    C                1.124292413915849    -3.080520628130004    -0.845583532667949
    H                0.433292413915849    -1.153520628130004    -1.554583532667949
    H               -0.317707586084151    -1.691520628130004    -0.041583532667949
    H                1.346292413915849    -1.112520628130004    -0.013583532667949
    H                1.366292413915849    -3.548520628130004     0.103416467332051
    H                1.989822413915849    -3.049890628130004    -1.523758532667949
    H                0.313602413915849    -3.643940628130005    -1.330693532667949
    C               -0.335707586084151     1.839479371869996     0.629416467332051
    C               -1.394707586084151     2.899479371869996     0.822416467332051
    H                0.654292413915849     2.289479371869996     0.593416467332051
    H               -0.362707586084151     1.144479371869996     1.466416467332051
    H               -0.511707586084151     1.287479371869996    -0.294583532667949
    H               -1.244707586084151     3.389479371869996     1.782416467332051
    H               -1.334887586084151     3.624569371869996    -0.002609532667949
    H               -2.405337586084151     2.465409371869996     0.807801467332051

}
e, wfn = energy('scf', return_wfn=True)
gdma(wfn)
dmavals = variable('DMA DISTRIBUTED MULTIPOLES')
charges = np.array(dmavals)
print(charges)
np.save('SSI-201LEU-284LEU-1-dimer.npy', np.array(charges))--------------------------------------------------------------------------

*** tstart() called on ds3
*** at Tue Apr 28 20:38:04 2020

   => Loading Basis Set <=

    Name: CC-PVDZ
    Role: ORBITAL
    Keyword: BASIS
    atoms 1-2, 9-10  entry C          line   138 file /theoryfs2/ds/metcalf/miniconda2/envs/tf2gpu/share/psi4/basis/cc-pvdz.gbs
    atoms 3-8, 11-16 entry H          line    22 file /theoryfs2/ds/metcalf/miniconda2/envs/tf2gpu/share/psi4/basis/cc-pvdz.gbs

         ---------------------------------------------------------
                                   SCF
               by Justin Turney, Rob Parrish, Andy Simmonett
                          and Daniel G. A. Smith
                              RHF Reference
                        1 Threads,    500 MiB Core
         ---------------------------------------------------------

  ==> Geometry <==

    Molecular point group: c1
    Full point group: C1

    Geometry (in Angstrom), charge = 0, multiplicity = 1:

       Center              X                  Y                   Z               Mass
    ------------   -----------------  -----------------  -----------------  -----------------
         C            0.612292413916    -1.658520628130    -0.605583532668    12.000000000000
         C            1.124292413916    -3.080520628130    -0.845583532668    12.000000000000
         H            0.433292413916    -1.153520628130    -1.554583532668     1.007825032230
         H           -0.317707586084    -1.691520628130    -0.041583532668     1.007825032230
         H            1.346292413916    -1.112520628130    -0.013583532668     1.007825032230
         H            1.366292413916    -3.548520628130     0.103416467332     1.007825032230
         H            1.989822413916    -3.049890628130    -1.523758532668     1.007825032230
         H            0.313602413916    -3.643940628130    -1.330693532668     1.007825032230
         C           -0.335707586084     1.839479371870     0.629416467332    12.000000000000
         C           -1.394707586084     2.899479371870     0.822416467332    12.000000000000
         H            0.654292413916     2.289479371870     0.593416467332     1.007825032230
         H           -0.362707586084     1.144479371870     1.466416467332     1.007825032230
         H           -0.511707586084     1.287479371870    -0.294583532668     1.007825032230
         H           -1.244707586084     3.389479371870     1.782416467332     1.007825032230
         H           -1.334887586084     3.624569371870    -0.002609532668     1.007825032230
         H           -2.405337586084     2.465409371870     0.807801467332     1.007825032230

  Running in c1 symmetry.

  Rotational constants: A =      1.02567  B =      0.03664  C =      0.03640 [cm^-1]
  Rotational constants: A =  30748.73296  B =   1098.35571  C =   1091.10939 [MHz]
  Nuclear repulsion =  118.804190278711630

  Charge       = 0
  Multiplicity = 1
  Electrons    = 36
  Nalpha       = 18
  Nbeta        = 18

  ==> Algorithm <==

  SCF Algorithm Type is PK.
  DIIS enabled.
  MOM disabled.
  Fractional occupation disabled.
  Guess Type is SAD.
  Energy threshold   = 1.00e-06
  Density threshold  = 1.00e-10
  Integral threshold = 0.00e+00

  ==> Primary Basis <==

  Basis Set: CC-PVDZ
    Blend: CC-PVDZ
    Number of shells: 60
    Number of basis function: 116
    Number of Cartesian functions: 120
    Spherical Harmonics?: true
    Max angular momentum: 2

  ==> Pre-Iterations <==

   -------------------------------------------------------
    Irrep   Nso     Nmo     Nalpha   Nbeta   Ndocc  Nsocc
   -------------------------------------------------------
     A        116     116       0       0       0       0
   -------------------------------------------------------
    Total     116     116      18      18      18       0
   -------------------------------------------------------

  ==> Integral Setup <==

  Using integral reordering PK algorithm.
  Sizing the integral batches needed.
  Building batch lookup table.
   Calculation information:
      Number of atoms:                  16
      Number of AO shells:              60
      Number of primitives:            148
      Number of atomic orbitals:       120
      Number of basis functions:       116

      Integral cutoff                 1.00e-12
      Number of threads:                 1

	Batch   1 pq = [       0,    6786] index = [             0,23028291] size =     23028291
  Task number: 3
  Buffer size: 11059200
  Buffer per thread: 2
  We computed 1290392 shell quartets total.
  Whereas there are 1675365 unique shell quartets.

  ==> DiskJK: Disk-Based J/K Matrices <==

    J tasked:                  Yes
    K tasked:                  Yes
    wK tasked:                  No
    Memory [MiB]:              375
    Schwarz Cutoff:          1E-12

    OpenMP threads:              1

  Minimum eigenvalue in the overlap matrix is 6.0393701337E-03.
  Using Symmetric Orthogonalization.

  SCF Guess: Superposition of Atomic Densities via on-the-fly atomic UHF.

  ==> Iterations <==

                        Total Energy        Delta E     RMS |[F,P]|

   @RHF iter SAD:  -157.36951260902927   -1.57370e+02   0.00000e+00
   @RHF iter   1:  -158.30568192189236   -9.36169e-01   4.25085e-03 DIIS
   @RHF iter   2:  -158.44066441541014   -1.34982e-01   1.82106e-03 DIIS
   @RHF iter   3:  -158.46465368303282   -2.39893e-02   3.51373e-04 DIIS
   @RHF iter   4:  -158.46650095183341   -1.84727e-03   3.92566e-05 DIIS
   @RHF iter   5:  -158.46652513302271   -2.41812e-05   6.99611e-06 DIIS
   @RHF iter   6:  -158.46652583036271   -6.97340e-07   1.37812e-06 DIIS
   @RHF iter   7:  -158.46652584805707   -1.76944e-08   3.38502e-07 DIIS
   @RHF iter   8:  -158.46652584923390   -1.17683e-09   4.73185e-08 DIIS
   @RHF iter   9:  -158.46652584927330   -3.93925e-11   1.11795e-08 DIIS
   @RHF iter  10:  -158.46652584927554   -2.24532e-12   3.41797e-09 DIIS
   @RHF iter  11:  -158.46652584927588   -3.41061e-13   7.32440e-10 DIIS
   @RHF iter  12:  -158.46652584927574    1.42109e-13   1.25099e-10 DIIS
   @RHF iter  13:  -158.46652584927617   -4.26326e-13   2.36838e-11 DIIS
  Energy and wave function converged.

  ==> Post-Iterations <==

    Orbital Energies [Eh]
    ---------------------

    Doubly Occupied:

       1A    -11.218351     2A    -11.216952     3A    -11.215513
       4A    -11.213845     5A     -1.021802     6A     -1.018157
       7A     -0.837134     8A     -0.832426     9A     -0.602707
      10A     -0.601169    11A     -0.596468    12A     -0.595478
      13A     -0.505988    14A     -0.496742    15A     -0.490060
      16A     -0.484549    17A     -0.481356    18A     -0.479116

    Virtual:

      19A      0.176861    20A      0.192718    21A      0.219644
      22A      0.235174    23A      0.244432    24A      0.260571
      25A      0.264560    26A      0.278224    27A      0.283867
      28A      0.286036    29A      0.293318    30A      0.314026
      31A      0.387598    32A      0.419193    33A      0.565950
      34A      0.594696    35A      0.602031    36A      0.604780
      37A      0.606575    38A      0.653894    39A      0.670493
      40A      0.684003    41A      0.700785    42A      0.728315
      43A      0.841515    44A      0.883019    45A      0.890832
      46A      0.891443    47A      0.895834    48A      0.898373
      49A      0.903053    50A      0.906459    51A      0.913883
      52A      0.917644    53A      0.932198    54A      0.942716
      55A      0.952503    56A      1.004060    57A      1.122248
      58A      1.123998    59A      1.129409    60A      1.138482
      61A      1.224962    62A      1.247967    63A      1.472195
      64A      1.478905    65A      1.486078    66A      1.488321
      67A      1.572337    68A      1.585172    69A      1.675586
      70A      1.682225    71A      1.692288    72A      1.696833
      73A      1.845279    74A      1.856693    75A      1.860020
      76A      1.875826    77A      1.902330    78A      1.928268
      79A      1.938754    80A      1.942381    81A      1.947106
      82A      1.949053    83A      1.954636    84A      1.957990
      85A      1.962508    86A      1.969062    87A      1.982266
      88A      2.056531    89A      2.097481    90A      2.101416
      91A      2.113771    92A      2.132478    93A      2.289385
      94A      2.304943    95A      2.318883    96A      2.346809
      97A      2.449931    98A      2.454978    99A      2.470541
     100A      2.474147   101A      2.561958   102A      2.568878
     103A      2.576535   104A      2.578850   105A      2.758312
     106A      2.766038   107A      2.786363   108A      2.798745
     109A      2.824912   110A      2.852139   111A      2.856606
     112A      2.875330   113A      2.943546   114A      2.953577
     115A      2.958639   116A      2.962840

    Final Occupation by Irrep:
              A
    DOCC [    18 ]

  @RHF Final Energy:  -158.46652584927617

   => Energetics <=

    Nuclear Repulsion Energy =            118.8041902787116300
    One-Electron Energy =                -446.7258043425690062
    Two-Electron Energy =                 169.4550882145811954
    Total Energy =                       -158.4665258492761666

Computation Completed

Properties will be evaluated at   0.000000,   0.000000,   0.000000 [a0]

Properties computed using the SCF density matrix

  Nuclear Dipole Moment: [e a0]
     X:    -0.0689      Y:     0.0009      Z:    -0.0074

  Electronic Dipole Moment: [e a0]
     X:     0.0697      Y:    -0.0062      Z:     0.0146

  Dipole Moment: [e a0]
     X:     0.0008      Y:    -0.0053      Z:     0.0072     Total:     0.0090

  Dipole Moment: [D]
     X:     0.0020      Y:    -0.0135      Z:     0.0183     Total:     0.0228

*** tstop() called on ds3 at Tue Apr 28 20:38:14 2020
Module time:
	user time   =       7.57 seconds =       0.13 minutes
	system time =       3.33 seconds =       0.06 minutes
	total time  =         10 seconds =       0.17 minutes
Total time:
	user time   =       7.57 seconds =       0.13 minutes
	system time =       3.33 seconds =       0.06 minutes
	total time  =         10 seconds =       0.17 minutes
                                     G D M A

                                 by Anthony Stone

                           version 2.2.06, 22 June 2011

               Distributed Multipoles from Gaussian wavefunctions

Starting at 20:38:14 on 28 Apr 2020

Using SCF density matrix from file ./SSI/SSI-201LEU-284LEU-1-dimer.test.28900.fchk

                         Distributed Multipole Analysis

Standard DMA

Positions and radii in angstrom
Multipole moments in atomic units, ea_0^k for rank k

C          x =  0.612292  y = -1.658521  z = -0.605584 angstrom
           Maximum rank =  0   Radius =  0.650 angstrom
                   Q00  =  -0.246507

C          x =  1.124292  y = -3.080521  z = -0.845584 angstrom
           Maximum rank =  0   Radius =  0.650 angstrom
                   Q00  =  -0.224598

H          x =  0.433292  y = -1.153521  z = -1.554584 angstrom
           Maximum rank =  0   Radius =  0.325 angstrom
                   Q00  =   0.079125

H          x = -0.317708  y = -1.691521  z = -0.041584 angstrom
           Maximum rank =  0   Radius =  0.325 angstrom
                   Q00  =   0.077428

H          x =  1.346292  y = -1.112521  z = -0.013584 angstrom
           Maximum rank =  0   Radius =  0.325 angstrom
                   Q00  =   0.077918

H          x =  1.366292  y = -3.548521  z =  0.103416 angstrom
           Maximum rank =  0   Radius =  0.325 angstrom
                   Q00  =   0.083369

H          x =  1.989822  y = -3.049891  z = -1.523759 angstrom
           Maximum rank =  0   Radius =  0.325 angstrom
                   Q00  =   0.079602

H          x =  0.313602  y = -3.643941  z = -1.330694 angstrom
           Maximum rank =  0   Radius =  0.325 angstrom
                   Q00  =   0.074528

C          x = -0.335708  y =  1.839479  z =  0.629416 angstrom
           Maximum rank =  0   Radius =  0.650 angstrom
                   Q00  =  -0.231762

C          x = -1.394708  y =  2.899479  z =  0.822416 angstrom
           Maximum rank =  0   Radius =  0.650 angstrom
                   Q00  =  -0.233001

H          x =  0.654292  y =  2.289479  z =  0.593416 angstrom
           Maximum rank =  0   Radius =  0.325 angstrom
                   Q00  =   0.077972

H          x = -0.362708  y =  1.144479  z =  1.466416 angstrom
           Maximum rank =  0   Radius =  0.325 angstrom
                   Q00  =   0.075347

H          x = -0.511708  y =  1.287479  z = -0.294584 angstrom
           Maximum rank =  0   Radius =  0.325 angstrom
                   Q00  =   0.080035

H          x = -1.244708  y =  3.389479  z =  1.782416 angstrom
           Maximum rank =  0   Radius =  0.325 angstrom
                   Q00  =   0.078656

H          x = -1.334888  y =  3.624569  z = -0.002610 angstrom
           Maximum rank =  0   Radius =  0.325 angstrom
                   Q00  =   0.075282

H          x = -2.405338  y =  2.465409  z =  0.807801 angstrom
           Maximum rank =  0   Radius =  0.325 angstrom
                   Q00  =   0.076606

Total multipoles referred to origin at
           x =   0.000000,  y =    0.000000,  z =    0.000000 angstrom
                   Q00  =  -0.000000

Finished at 20:38:14 on 28 Apr 2020

  DMA results are available in the Python driver through the
	  variable('DMA DISTRIBUTED MULTIPOLES')
  and
	  variable('DMA TOTAL MULTIPOLES')
  commands.

    Psi4 stopped on: Tuesday, 28 April 2020 08:38PM
    Psi4 wall time for execution: 0:00:10.60

*** Psi4 exiting successfully. Buy a developer a beer!
