                               Psi4 1.3.2 release

  ==> Input File <==

--------------------------------------------------------------------------
import numpy as np
set {scf_type pk
basis cc-pvdz
d_convergence 10
gdma_switch   0
gdma_limit    0
gdma_origin   [ 0.0,  0.0,  0.0 ]
}
molecule test {
    units Angstrom
    0 1
    --
    0 1
    C                2.571826275392492    -0.876459227667864     1.545682530017297
    N                2.385826275392491    -0.083459227667864     0.302682530017297
    H                1.379826275392491     0.020540772332136     0.127682530017297
    H                2.767826275392491     0.847540772332136     0.401682530017297
    H                2.814826275392492    -0.523459227667864    -0.500317469982703
    H                2.006826275392491    -0.411459227667864     2.359682530017297
    H                3.628826275392492    -0.872459227667864     1.829682530017297
    H                2.244856275392491    -1.922196227667864     1.448102530017297
    C               -2.683173724607509     0.392540772332136     0.011682530017297
    C               -1.271173724607509     0.249540772332136    -0.519317469982703
    O               -0.358173724607509     0.178540772332136     0.326682530017297
    O               -1.055173724607509     0.169540772332136    -1.757317469982703
    H               -2.800173724607509     1.382540772332136     0.458682530017297
    H               -2.852173724607508    -0.362459227667864     0.783682530017297
    H               -3.447853724607509     0.267410772332136    -0.769097469982703

}
e, wfn = energy('scf', return_wfn=True)
gdma(wfn)
dmavals = variable('DMA DISTRIBUTED MULTIPOLES')
charges = np.array(dmavals)
print(charges)
np.save('SSI-153LYS-203GLU-1-dimer.npy', np.array(charges))--------------------------------------------------------------------------

*** tstart() called on ds3
*** at Mon Apr 27 16:47:18 2020

   => Loading Basis Set <=

    Name: CC-PVDZ
    Role: ORBITAL
    Keyword: BASIS
    atoms 1, 9-10    entry C          line   138 file /theoryfs2/ds/metcalf/miniconda2/envs/tf2gpu/share/psi4/basis/cc-pvdz.gbs
    atoms 2          entry N          line   168 file /theoryfs2/ds/metcalf/miniconda2/envs/tf2gpu/share/psi4/basis/cc-pvdz.gbs
    atoms 3-8, 13-15 entry H          line    22 file /theoryfs2/ds/metcalf/miniconda2/envs/tf2gpu/share/psi4/basis/cc-pvdz.gbs
    atoms 11-12      entry O          line   198 file /theoryfs2/ds/metcalf/miniconda2/envs/tf2gpu/share/psi4/basis/cc-pvdz.gbs

         ---------------------------------------------------------
                                   SCF
               by Justin Turney, Rob Parrish, Andy Simmonett
                          and Daniel G. A. Smith
                              RHF Reference
                        1 Threads,    500 MiB Core
         ---------------------------------------------------------

  ==> Geometry <==

    Molecular point group: c1
    Full point group: C1

    Geometry (in Angstrom), charge = 0, multiplicity = 1:

       Center              X                  Y                   Z               Mass
    ------------   -----------------  -----------------  -----------------  -----------------
         C            2.571826275392    -0.876459227668     1.545682530017    12.000000000000
         N            2.385826275392    -0.083459227668     0.302682530017    14.003074004430
         H            1.379826275392     0.020540772332     0.127682530017     1.007825032230
         H            2.767826275392     0.847540772332     0.401682530017     1.007825032230
         H            2.814826275392    -0.523459227668    -0.500317469983     1.007825032230
         H            2.006826275392    -0.411459227668     2.359682530017     1.007825032230
         H            3.628826275392    -0.872459227668     1.829682530017     1.007825032230
         H            2.244856275392    -1.922196227668     1.448102530017     1.007825032230
         C           -2.683173724608     0.392540772332     0.011682530017    12.000000000000
         C           -1.271173724608     0.249540772332    -0.519317469983    12.000000000000
         O           -0.358173724608     0.178540772332     0.326682530017    15.994914619570
         O           -1.055173724608     0.169540772332    -1.757317469983    15.994914619570
         H           -2.800173724608     1.382540772332     0.458682530017     1.007825032230
         H           -2.852173724608    -0.362459227668     0.783682530017     1.007825032230
         H           -3.447853724608     0.267410772332    -0.769097469983     1.007825032230

  Running in c1 symmetry.

  Rotational constants: A =      0.24993  B =      0.04092  C =      0.03648 [cm^-1]
  Rotational constants: A =   7492.78328  B =   1226.61726  C =   1093.73329 [MHz]
  Nuclear repulsion =  237.107792188673272

  Charge       = 0
  Multiplicity = 1
  Electrons    = 50
  Nalpha       = 25
  Nbeta        = 25

  ==> Algorithm <==

  SCF Algorithm Type is PK.
  DIIS enabled.
  MOM disabled.
  Fractional occupation disabled.
  Guess Type is SAD.
  Energy threshold   = 1.00e-06
  Density threshold  = 1.00e-10
  Integral threshold = 0.00e+00

  ==> Primary Basis <==

  Basis Set: CC-PVDZ
    Blend: CC-PVDZ
    Number of shells: 63
    Number of basis function: 129
    Number of Cartesian functions: 135
    Spherical Harmonics?: true
    Max angular momentum: 2

  ==> Pre-Iterations <==

   -------------------------------------------------------
    Irrep   Nso     Nmo     Nalpha   Nbeta   Ndocc  Nsocc
   -------------------------------------------------------
     A        129     129       0       0       0       0
   -------------------------------------------------------
    Total     129     129      25      25      25       0
   -------------------------------------------------------

  ==> Integral Setup <==

  Using integral reordering PK algorithm.
  Sizing the integral batches needed.
  Building batch lookup table.
   Calculation information:
      Number of atoms:                  15
      Number of AO shells:              63
      Number of primitives:            177
      Number of atomic orbitals:       135
      Number of basis functions:       129

      Integral cutoff                 1.00e-12
      Number of threads:                 1

	Batch   1 pq = [       0,    8385] index = [             0,35158305] size =     35158305
  Task number: 4
  Buffer size: 11059200
  Buffer per thread: 2
  We computed 1639375 shell quartets total.
  Whereas there are 2033136 unique shell quartets.

  ==> DiskJK: Disk-Based J/K Matrices <==

    J tasked:                  Yes
    K tasked:                  Yes
    wK tasked:                  No
    Memory [MiB]:              375
    Schwarz Cutoff:          1E-12

    OpenMP threads:              1

  Minimum eigenvalue in the overlap matrix is 5.1047702167E-03.
  Using Symmetric Orthogonalization.

  SCF Guess: Superposition of Atomic Densities via on-the-fly atomic UHF.

  ==> Iterations <==

                        Total Energy        Delta E     RMS |[F,P]|

   @RHF iter SAD:  -321.73829012278270   -3.21738e+02   0.00000e+00
   @RHF iter   1:  -322.79090869893673   -1.05262e+00   5.19524e-03 DIIS
   @RHF iter   2:  -322.95942484313440   -1.68516e-01   2.88590e-03 DIIS
   @RHF iter   3:  -323.00835760721975   -4.89328e-02   4.84392e-04 DIIS
   @RHF iter   4:  -323.01091797411465   -2.56037e-03   1.75312e-04 DIIS
   @RHF iter   5:  -323.01123955605738   -3.21582e-04   3.95643e-05 DIIS
   @RHF iter   6:  -323.01125803038263   -1.84743e-05   2.01076e-05 DIIS
   @RHF iter   7:  -323.01126210305659   -4.07267e-06   4.52881e-06 DIIS
   @RHF iter   8:  -323.01126272658701   -6.23530e-07   1.97705e-06 DIIS
   @RHF iter   9:  -323.01126284062298   -1.14036e-07   5.11252e-07 DIIS
   @RHF iter  10:  -323.01126284737899   -6.75601e-09   1.58173e-07 DIIS
   @RHF iter  11:  -323.01126284775347   -3.74484e-10   4.13697e-08 DIIS
   @RHF iter  12:  -323.01126284778422   -3.07523e-11   1.04922e-08 DIIS
   @RHF iter  13:  -323.01126284778638   -2.16005e-12   3.33365e-09 DIIS
   @RHF iter  14:  -323.01126284778587    5.11591e-13   1.17456e-09 DIIS
   @RHF iter  15:  -323.01126284778621   -3.41061e-13   3.40912e-10 DIIS
   @RHF iter  16:  -323.01126284778587    3.41061e-13   1.61204e-10 DIIS
   @RHF iter  17:  -323.01126284778570    1.70530e-13   4.54629e-11 DIIS
  Energy and wave function converged.

  ==> Post-Iterations <==

    Orbital Energies [Eh]
    ---------------------

    Doubly Occupied:

       1A    -20.430756     2A    -20.403126     3A    -15.726093
       4A    -11.344910     5A    -11.264694     6A    -11.169562
       7A     -1.352645     8A     -1.307369     9A     -1.187407
      10A     -1.013671    11A     -0.920878    12A     -0.815350
      13A     -0.805106    14A     -0.705858    15A     -0.646995
      16A     -0.619242    17A     -0.613854    18A     -0.554565
      19A     -0.540434    20A     -0.539092    21A     -0.475745
      22A     -0.449583    23A     -0.346454    24A     -0.318639
      25A     -0.318045

    Virtual:

      26A      0.102177    27A      0.159304    28A      0.164384
      29A      0.202684    30A      0.222084    31A      0.248510
      32A      0.277963    33A      0.283781    34A      0.312972
      35A      0.351004    36A      0.364845    37A      0.455471
      38A      0.514971    39A      0.530133    40A      0.550749
      41A      0.579918    42A      0.611867    43A      0.664848
      44A      0.675682    45A      0.710988    46A      0.749601
      47A      0.787325    48A      0.796725    49A      0.800965
      50A      0.809751    51A      0.835173    52A      0.856502
      53A      0.892493    54A      0.911490    55A      0.921962
      56A      0.925467    57A      0.947462    58A      0.961842
      59A      0.998304    60A      1.034796    61A      1.076595
      62A      1.085018    63A      1.090688    64A      1.209295
      65A      1.218859    66A      1.245964    67A      1.310890
      68A      1.363278    69A      1.412020    70A      1.431537
      71A      1.452620    72A      1.471165    73A      1.493235
      74A      1.503503    75A      1.589209    76A      1.604955
      77A      1.625461    78A      1.681152    79A      1.725515
      80A      1.732101    81A      1.781558    82A      1.821642
      83A      1.846946    84A      1.858556    85A      1.877422
      86A      1.892022    87A      1.934116    88A      1.958291
      89A      1.978686    90A      1.991870    91A      2.076513
      92A      2.095553    93A      2.098180    94A      2.107910
      95A      2.126456    96A      2.143513    97A      2.182907
      98A      2.220982    99A      2.282160   100A      2.300249
     101A      2.315313   102A      2.404276   103A      2.417981
     104A      2.446980   105A      2.530745   106A      2.582167
     107A      2.601382   108A      2.621147   109A      2.642535
     110A      2.672481   111A      2.696250   112A      2.797883
     113A      2.841919   114A      2.867140   115A      2.879039
     116A      2.906793   117A      2.943268   118A      3.083126
     119A      3.124841   120A      3.141050   121A      3.190069
     122A      3.243827   123A      3.350884   124A      3.479636
     125A      3.663449   126A      3.668159   127A      3.912402
     128A      3.939621   129A      4.062128

    Final Occupation by Irrep:
              A
    DOCC [    25 ]

  @RHF Final Energy:  -323.01126284778570

   => Energetics <=

    Nuclear Repulsion Energy =            237.1077921886732724
    One-Electron Energy =                -912.4979598276041770
    Two-Electron Energy =                 352.3789047911452599
    Total Energy =                       -323.0112628477857015

Computation Completed

Properties will be evaluated at   0.000000,   0.000000,   0.000000 [a0]

Properties computed using the SCF density matrix

  Nuclear Dipole Moment: [e a0]
     X:     5.3700      Y:    -1.4737      Z:     5.7481

  Electronic Dipole Moment: [e a0]
     X:    -1.0210      Y:     0.9910      Z:    -3.7212

  Dipole Moment: [e a0]
     X:     4.3490      Y:    -0.4827      Z:     2.0269     Total:     4.8223

  Dipole Moment: [D]
     X:    11.0540      Y:    -1.2268      Z:     5.1519     Total:    12.2572

*** tstop() called on ds3 at Mon Apr 27 16:47:45 2020
Module time:
	user time   =      19.35 seconds =       0.32 minutes
	system time =       7.87 seconds =       0.13 minutes
	total time  =         27 seconds =       0.45 minutes
Total time:
	user time   =      19.35 seconds =       0.32 minutes
	system time =       7.87 seconds =       0.13 minutes
	total time  =         27 seconds =       0.45 minutes
                                     G D M A

                                 by Anthony Stone

                           version 2.2.06, 22 June 2011

               Distributed Multipoles from Gaussian wavefunctions

Starting at 16:47:45 on 27 Apr 2020

Using SCF density matrix from file ./SSI/SSI-153LYS-203GLU-1-dimer.test.28080.fchk

                         Distributed Multipole Analysis

Standard DMA

Positions and radii in angstrom
Multipole moments in atomic units, ea_0^k for rank k

C          x =  2.571826  y = -0.876459  z =  1.545683 angstrom
           Maximum rank =  0   Radius =  0.650 angstrom
                   Q00  =  -0.131651

N          x =  2.385826  y = -0.083459  z =  0.302683 angstrom
           Maximum rank =  0   Radius =  0.650 angstrom
                   Q00  =  -0.115708

H          x =  1.379826  y =  0.020541  z =  0.127683 angstrom
           Maximum rank =  0   Radius =  0.325 angstrom
                   Q00  =   0.337621

H          x =  2.767826  y =  0.847541  z =  0.401683 angstrom
           Maximum rank =  0   Radius =  0.325 angstrom
                   Q00  =   0.226331

H          x =  2.814826  y = -0.523459  z = -0.500317 angstrom
           Maximum rank =  0   Radius =  0.325 angstrom
                   Q00  =   0.229187

H          x =  2.006826  y = -0.411459  z =  2.359683 angstrom
           Maximum rank =  0   Radius =  0.325 angstrom
                   Q00  =   0.157756

H          x =  3.628826  y = -0.872459  z =  1.829683 angstrom
           Maximum rank =  0   Radius =  0.325 angstrom
                   Q00  =   0.113049

H          x =  2.244856  y = -1.922196  z =  1.448103 angstrom
           Maximum rank =  0   Radius =  0.325 angstrom
                   Q00  =   0.154839

C          x = -2.683174  y =  0.392541  z =  0.011683 angstrom
           Maximum rank =  0   Radius =  0.650 angstrom
                   Q00  =  -0.265102

C          x = -1.271174  y =  0.249541  z = -0.519317 angstrom
           Maximum rank =  0   Radius =  0.650 angstrom
                   Q00  =   0.916582

O          x = -0.358174  y =  0.178541  z =  0.326683 angstrom
           Maximum rank =  0   Radius =  0.650 angstrom
                   Q00  =  -0.992510

O          x = -1.055174  y =  0.169541  z = -1.757317 angstrom
           Maximum rank =  0   Radius =  0.650 angstrom
                   Q00  =  -0.892726

H          x = -2.800174  y =  1.382541  z =  0.458683 angstrom
           Maximum rank =  0   Radius =  0.325 angstrom
                   Q00  =   0.094466

H          x = -2.852174  y = -0.362459  z =  0.783683 angstrom
           Maximum rank =  0   Radius =  0.325 angstrom
                   Q00  =   0.083802

H          x = -3.447854  y =  0.267411  z = -0.769097 angstrom
           Maximum rank =  0   Radius =  0.325 angstrom
                   Q00  =   0.084064

Total multipoles referred to origin at
           x =   0.000000,  y =    0.000000,  z =    0.000000 angstrom
                   Q00  =  -0.000000

Finished at 16:47:45 on 27 Apr 2020

  DMA results are available in the Python driver through the
	  variable('DMA DISTRIBUTED MULTIPOLES')
  and
	  variable('DMA TOTAL MULTIPOLES')
  commands.

    Psi4 stopped on: Monday, 27 April 2020 04:47PM
    Psi4 wall time for execution: 0:00:26.97

*** Psi4 exiting successfully. Buy a developer a beer!
