                               Psi4 1.3.2 release

  ==> Input File <==

--------------------------------------------------------------------------
import numpy as np
set {scf_type pk
basis cc-pvdz
d_convergence 10
gdma_switch   0
gdma_limit    0
gdma_origin   [ 0.0,  0.0,  0.0 ]
}
molecule test {
    units Angstrom
    0 1
    --
    0 1
    C               -1.337850065191750    -1.041655330653079    -0.036709679497518
    C               -2.059850065191750    -2.049655330653079    -0.922709679497518
    C                0.136149934808250    -1.291655330653079     0.044290320502482
    C                1.142149934808250    -0.826655330653079    -0.741709679497518
    C                2.033149934808250    -2.033655330653079     0.869290320502482
    N                0.715149934808250    -2.053655330653079     1.039290320502482
    N                2.317149934808250    -1.293655330653079    -0.196709679497518
    H               -1.504850065191750    -0.042655330653079    -0.421709679497518
    H               -1.745850065191750    -1.081655330653079     0.974290320502482
    H               -1.908850065191750    -3.054655330653079    -0.523709679497518
    H                1.020149934808250    -0.152655330653079    -1.582709679497518
    H                2.757149934808250    -2.469655330653079     1.551290320502482
    H                3.216149934808250    -0.862655330653079    -0.298709679497518
    H               -1.700950065191750    -1.962558330653079    -1.958859679497518
    H               -3.141340065191751    -1.850760330653079    -0.951229679497518
    C               -0.840850065191750     2.703344669346921    -0.088709679497518
    C               -1.704850065191750     3.724344669346921    -0.896709679497518
    C               -0.066850065191750     3.423344669346921     1.034290320502482
    H               -1.505850065191750     1.980344669346921     0.379290320502482
    H               -0.133850065191750     2.192344669346921    -0.742709679497518
    H               -1.024850065191750     4.402344669346921    -1.414709679497518
    H               -2.274850065191750     4.334344669346922    -0.196709679497518
    H                0.633149934808250     4.132344669346922     0.590290320502482
    H               -0.768850065191750     3.961344669346921     1.675290320502482
    H               -2.389320065191750     3.258764669346921    -1.621099679497518
    H                0.475129934808250     2.674004669346921     1.629900320502482

}
e, wfn = energy('scf', return_wfn=True)
gdma(wfn)
dmavals = variable('DMA DISTRIBUTED MULTIPOLES')
charges = np.array(dmavals)
print(charges)
np.save('SSI-132HIE-135LYS-1-dimer.npy', np.array(charges))--------------------------------------------------------------------------

*** tstart() called on ds3
*** at Mon Apr 27 01:50:22 2020

   => Loading Basis Set <=

    Name: CC-PVDZ
    Role: ORBITAL
    Keyword: BASIS
    atoms 1-5, 16-18  entry C          line   138 file /theoryfs2/ds/metcalf/miniconda2/envs/tf2gpu/share/psi4/basis/cc-pvdz.gbs
    atoms 6-7         entry N          line   168 file /theoryfs2/ds/metcalf/miniconda2/envs/tf2gpu/share/psi4/basis/cc-pvdz.gbs
    atoms 8-15, 19-26 entry H          line    22 file /theoryfs2/ds/metcalf/miniconda2/envs/tf2gpu/share/psi4/basis/cc-pvdz.gbs

         ---------------------------------------------------------
                                   SCF
               by Justin Turney, Rob Parrish, Andy Simmonett
                          and Daniel G. A. Smith
                              RHF Reference
                        1 Threads,    500 MiB Core
         ---------------------------------------------------------

  ==> Geometry <==

    Molecular point group: c1
    Full point group: C1

    Geometry (in Angstrom), charge = 0, multiplicity = 1:

       Center              X                  Y                   Z               Mass
    ------------   -----------------  -----------------  -----------------  -----------------
         C           -1.337850065192    -1.041655330653    -0.036709679498    12.000000000000
         C           -2.059850065192    -2.049655330653    -0.922709679498    12.000000000000
         C            0.136149934808    -1.291655330653     0.044290320502    12.000000000000
         C            1.142149934808    -0.826655330653    -0.741709679498    12.000000000000
         C            2.033149934808    -2.033655330653     0.869290320502    12.000000000000
         N            0.715149934808    -2.053655330653     1.039290320502    14.003074004430
         N            2.317149934808    -1.293655330653    -0.196709679498    14.003074004430
         H           -1.504850065192    -0.042655330653    -0.421709679498     1.007825032230
         H           -1.745850065192    -1.081655330653     0.974290320502     1.007825032230
         H           -1.908850065192    -3.054655330653    -0.523709679498     1.007825032230
         H            1.020149934808    -0.152655330653    -1.582709679498     1.007825032230
         H            2.757149934808    -2.469655330653     1.551290320502     1.007825032230
         H            3.216149934808    -0.862655330653    -0.298709679498     1.007825032230
         H           -1.700950065192    -1.962558330653    -1.958859679498     1.007825032230
         H           -3.141340065192    -1.850760330653    -0.951229679498     1.007825032230
         C           -0.840850065192     2.703344669347    -0.088709679498    12.000000000000
         C           -1.704850065192     3.724344669347    -0.896709679498    12.000000000000
         C           -0.066850065192     3.423344669347     1.034290320502    12.000000000000
         H           -1.505850065192     1.980344669347     0.379290320502     1.007825032230
         H           -0.133850065192     2.192344669347    -0.742709679498     1.007825032230
         H           -1.024850065192     4.402344669347    -1.414709679498     1.007825032230
         H           -2.274850065192     4.334344669347    -0.196709679498     1.007825032230
         H            0.633149934808     4.132344669347     0.590290320502     1.007825032230
         H           -0.768850065192     3.961344669347     1.675290320502     1.007825032230
         H           -2.389320065192     3.258764669347    -1.621099679498     1.007825032230
         H            0.475129934808     2.674004669347     1.629900320502     1.007825032230

  Running in c1 symmetry.

  Rotational constants: A =      0.05001  B =      0.01923  C =      0.01556 [cm^-1]
  Rotational constants: A =   1499.16531  B =    576.58570  C =    466.50143 [MHz]
  Nuclear repulsion =  510.263587703040457

  Charge       = 0
  Multiplicity = 1
  Electrons    = 78
  Nalpha       = 39
  Nbeta        = 39

  ==> Algorithm <==

  SCF Algorithm Type is PK.
  DIIS enabled.
  MOM disabled.
  Fractional occupation disabled.
  Guess Type is SAD.
  Energy threshold   = 1.00e-06
  Density threshold  = 1.00e-10
  Integral threshold = 0.00e+00

  ==> Primary Basis <==

  Basis Set: CC-PVDZ
    Blend: CC-PVDZ
    Number of shells: 108
    Number of basis function: 220
    Number of Cartesian functions: 230
    Spherical Harmonics?: true
    Max angular momentum: 2

  ==> Pre-Iterations <==

   -------------------------------------------------------
    Irrep   Nso     Nmo     Nalpha   Nbeta   Ndocc  Nsocc
   -------------------------------------------------------
     A        220     220       0       0       0       0
   -------------------------------------------------------
    Total     220     220      39      39      39       0
   -------------------------------------------------------

  ==> Integral Setup <==

  Using integral reordering PK algorithm.
  Sizing the integral batches needed.
  Building batch lookup table.
   Calculation information:
      Number of atoms:                  26
      Number of AO shells:             108
      Number of primitives:            300
      Number of atomic orbitals:       230
      Number of basis functions:       220

      Integral cutoff                 1.00e-12
      Number of threads:                 1

	Batch   1 pq = [       0,    9405] index = [             0,44231715] size =     44231715
	Batch   2 pq = [    9405,   13301] index = [      44231715,88464951] size =     44233236
	Batch   3 pq = [   13301,   16290] index = [      88464951,132690195] size =     44225244
	Batch   4 pq = [   16290,   18810] index = [     132690195,176917455] size =     44227260
	Batch   5 pq = [   18810,   21030] index = [     176917455,221140965] size =     44223510
	Batch   6 pq = [   21030,   23037] index = [     221140965,265363203] size =     44222238
	Batch   7 pq = [   23037,   24310] index = [     265363203,295500205] size =     30137002
  Task number: 27
  Buffer size: 11059200
  Buffer per thread: 2
  We computed 14489770 shell quartets total.
  Whereas there are 17325441 unique shell quartets.

  ==> DiskJK: Disk-Based J/K Matrices <==

    J tasked:                  Yes
    K tasked:                  Yes
    wK tasked:                  No
    Memory [MiB]:              375
    Schwarz Cutoff:          1E-12

    OpenMP threads:              1

  Minimum eigenvalue in the overlap matrix is 1.1595756273E-03.
  Using Symmetric Orthogonalization.

  SCF Guess: Superposition of Atomic Densities via on-the-fly atomic UHF.

  ==> Iterations <==

                        Total Energy        Delta E     RMS |[F,P]|

   @RHF iter SAD:  -420.18399451426649   -4.20184e+02   0.00000e+00
   @RHF iter   1:  -420.89806455093282   -7.14070e-01   2.92581e-03 DIIS
   @RHF iter   2:  -421.11750134418901   -2.19437e-01   1.46651e-03 DIIS
   @RHF iter   3:  -421.16776896926257   -5.02676e-02   3.77434e-04 DIIS
   @RHF iter   4:  -421.17215444814394   -4.38548e-03   1.63969e-04 DIIS
   @RHF iter   5:  -421.17287746120093   -7.23013e-04   2.26454e-05 DIIS
   @RHF iter   6:  -421.17290319158013   -2.57304e-05   9.36531e-06 DIIS
   @RHF iter   7:  -421.17290685704177   -3.66546e-06   3.28724e-06 DIIS
   @RHF iter   8:  -421.17290759273578   -7.35694e-07   1.34594e-06 DIIS
   @RHF iter   9:  -421.17290775655249   -1.63817e-07   4.79309e-07 DIIS
   @RHF iter  10:  -421.17290777461852   -1.80660e-08   1.54622e-07 DIIS
   @RHF iter  11:  -421.17290777687020   -2.25168e-09   6.45848e-08 DIIS
   @RHF iter  12:  -421.17290777717744   -3.07239e-10   2.68701e-08 DIIS
   @RHF iter  13:  -421.17290777722963   -5.21823e-11   8.53126e-09 DIIS
   @RHF iter  14:  -421.17290777723889   -9.26548e-12   3.10130e-09 DIIS
   @RHF iter  15:  -421.17290777723827    6.25278e-13   1.13412e-09 DIIS
   @RHF iter  16:  -421.17290777723798    2.84217e-13   4.31143e-10 DIIS
   @RHF iter  17:  -421.17290777723946   -1.47793e-12   1.55653e-10 DIIS
   @RHF iter  18:  -421.17290777724202   -2.55795e-12   4.36039e-11 DIIS
  Energy and wave function converged.

  ==> Post-Iterations <==

    Orbital Energies [Eh]
    ---------------------

    Doubly Occupied:

       1A    -15.617601     2A    -15.530083     3A    -11.292894
       4A    -11.250465     5A    -11.239206     6A    -11.222767
       7A    -11.220644     8A    -11.218846     9A    -11.217336
      10A    -11.214273    11A     -1.342839    12A     -1.155510
      13A     -1.052190    14A     -1.047057    15A     -0.984729
      16A     -0.920144    17A     -0.859262    18A     -0.815784
      19A     -0.799407    20A     -0.758119    21A     -0.736293
      22A     -0.628983    23A     -0.625052    24A     -0.604224
      25A     -0.598866    26A     -0.592846    27A     -0.574555
      28A     -0.564713    29A     -0.545126    30A     -0.529398
      31A     -0.514804    32A     -0.488091    33A     -0.482310
      34A     -0.476347    35A     -0.466473    36A     -0.461638
      37A     -0.411097    38A     -0.379813    39A     -0.309759

    Virtual:

      40A      0.167268    41A      0.173446    42A      0.188105
      43A      0.196155    44A      0.213522    45A      0.224862
      46A      0.227081    47A      0.232367    48A      0.240333
      49A      0.250657    50A      0.260242    51A      0.276030
      52A      0.287507    53A      0.291685    54A      0.294858
      55A      0.309098    56A      0.313224    57A      0.328823
      58A      0.372816    59A      0.384055    60A      0.393972
      61A      0.405710    62A      0.431083    63A      0.437030
      64A      0.480348    65A      0.494867    66A      0.573675
      67A      0.590894    68A      0.600915    69A      0.604075
      70A      0.612065    71A      0.618667    72A      0.627297
      73A      0.653634    74A      0.667574    75A      0.689489
      76A      0.698534    77A      0.728770    78A      0.766049
      79A      0.772428    80A      0.778792    81A      0.801238
      82A      0.806996    83A      0.813954    84A      0.832845
      85A      0.840166    86A      0.859850    87A      0.886352
      88A      0.892459    89A      0.895680    90A      0.897506
      91A      0.900605    92A      0.906548    93A      0.907343
      94A      0.914059    95A      0.915839    96A      0.926658
      97A      0.930308    98A      0.937588    99A      0.957544
     100A      0.969482   101A      0.973214   102A      0.974880
     103A      0.981775   104A      1.000170   105A      1.013198
     106A      1.050294   107A      1.071512   108A      1.093408
     109A      1.100151   110A      1.122216   111A      1.131007
     112A      1.147062   113A      1.172442   114A      1.183709
     115A      1.209544   116A      1.221574   117A      1.258573
     118A      1.288217   119A      1.313463   120A      1.330183
     121A      1.371561   122A      1.382773   123A      1.409432
     124A      1.442679   125A      1.466636   126A      1.470677
     127A      1.490730   128A      1.499060   129A      1.551923
     130A      1.563234   131A      1.577595   132A      1.613522
     133A      1.624170   134A      1.660206   135A      1.678485
     136A      1.688788   137A      1.691615   138A      1.705121
     139A      1.742095   140A      1.765249   141A      1.773065
     142A      1.821439   143A      1.837484   144A      1.853332
     145A      1.865161   146A      1.877705   147A      1.888036
     148A      1.897184   149A      1.912383   150A      1.918053
     151A      1.931289   152A      1.939373   153A      1.944378
     154A      1.945045   155A      1.964146   156A      1.968865
     157A      1.976074   158A      1.980013   159A      1.983183
     160A      1.988569   161A      1.996791   162A      2.004294
     163A      2.015373   164A      2.026830   165A      2.044846
     166A      2.049026   167A      2.060011   168A      2.070847
     169A      2.104736   170A      2.123726   171A      2.144571
     172A      2.155536   173A      2.181281   174A      2.211019
     175A      2.261918   176A      2.281136   177A      2.291933
     178A      2.313428   179A      2.313910   180A      2.316406
     181A      2.331140   182A      2.343540   183A      2.381725
     184A      2.464718   185A      2.481604   186A      2.496016
     187A      2.505342   188A      2.525563   189A      2.529289
     190A      2.556907   191A      2.567063   192A      2.593388
     193A      2.598889   194A      2.611568   195A      2.626310
     196A      2.680922   197A      2.718354   198A      2.747621
     199A      2.761887   200A      2.766626   201A      2.772064
     202A      2.785762   203A      2.800250   204A      2.811523
     205A      2.842078   206A      2.894417   207A      2.899448
     208A      2.909219   209A      2.927524   210A      2.940985
     211A      2.950209   212A      2.963874   213A      2.996079
     214A      3.019429   215A      3.074982   216A      3.088456
     217A      3.168130   218A      3.259781   219A      3.456729
     220A      3.742150

    Final Occupation by Irrep:
              A
    DOCC [    39 ]

  @RHF Final Energy:  -421.17290777724202

   => Energetics <=

    Nuclear Repulsion Energy =            510.2635877030404572
    One-Electron Energy =               -1581.3739066039802310
    Two-Electron Energy =                 649.9374111236977569
    Total Energy =                       -421.1729077772420169

Computation Completed

Properties will be evaluated at   0.000000,   0.000000,   0.000000 [a0]

Properties computed using the SCF density matrix

  Nuclear Dipole Moment: [e a0]
     X:    -9.3813      Y:    14.5017      Z:    -2.7322

  Electronic Dipole Moment: [e a0]
     X:    10.3860      Y:   -13.8913      Z:     2.2267

  Dipole Moment: [e a0]
     X:     1.0046      Y:     0.6104      Z:    -0.5055     Total:     1.2796

  Dipole Moment: [D]
     X:     2.5535      Y:     1.5515      Z:    -1.2848     Total:     3.2524

*** tstop() called on ds3 at Mon Apr 27 01:52:33 2020
Module time:
	user time   =      91.81 seconds =       1.53 minutes
	system time =      43.82 seconds =       0.73 minutes
	total time  =        131 seconds =       2.18 minutes
Total time:
	user time   =      91.81 seconds =       1.53 minutes
	system time =      43.82 seconds =       0.73 minutes
	total time  =        131 seconds =       2.18 minutes
                                     G D M A

                                 by Anthony Stone

                           version 2.2.06, 22 June 2011

               Distributed Multipoles from Gaussian wavefunctions

Starting at 1:52:33 on 27 Apr 2020

Using SCF density matrix from file ./SSI/SSI-132HIE-135LYS-1-dimer.test.14972.fchk

                         Distributed Multipole Analysis

Standard DMA

Positions and radii in angstrom
Multipole moments in atomic units, ea_0^k for rank k

C          x = -1.337850  y = -1.041655  z = -0.036710 angstrom
           Maximum rank =  0   Radius =  0.650 angstrom
                   Q00  =  -0.016018

C          x = -2.059850  y = -2.049655  z = -0.922710 angstrom
           Maximum rank =  0   Radius =  0.650 angstrom
                   Q00  =  -0.243055

C          x =  0.136150  y = -1.291655  z =  0.044290 angstrom
           Maximum rank =  0   Radius =  0.650 angstrom
                   Q00  =   0.212318

C          x =  1.142150  y = -0.826655  z = -0.741710 angstrom
           Maximum rank =  0   Radius =  0.650 angstrom
                   Q00  =  -0.004698

C          x =  2.033150  y = -2.033655  z =  0.869290 angstrom
           Maximum rank =  0   Radius =  0.650 angstrom
                   Q00  =   0.463422

N          x =  0.715150  y = -2.053655  z =  1.039290 angstrom
           Maximum rank =  0   Radius =  0.650 angstrom
                   Q00  =  -0.776163

N          x =  2.317150  y = -1.293655  z = -0.196710 angstrom
           Maximum rank =  0   Radius =  0.650 angstrom
                   Q00  =  -0.472157

H          x = -1.504850  y = -0.042655  z = -0.421710 angstrom
           Maximum rank =  0   Radius =  0.325 angstrom
                   Q00  =   0.061681

H          x = -1.745850  y = -1.081655  z =  0.974290 angstrom
           Maximum rank =  0   Radius =  0.325 angstrom
                   Q00  =   0.090388

H          x = -1.908850  y = -3.054655  z = -0.523710 angstrom
           Maximum rank =  0   Radius =  0.325 angstrom
                   Q00  =   0.092322

H          x =  1.020150  y = -0.152655  z = -1.582710 angstrom
           Maximum rank =  0   Radius =  0.325 angstrom
                   Q00  =   0.103167

H          x =  2.757150  y = -2.469655  z =  1.551290 angstrom
           Maximum rank =  0   Radius =  0.325 angstrom
                   Q00  =   0.124269

H          x =  3.216150  y = -0.862655  z = -0.298710 angstrom
           Maximum rank =  0   Radius =  0.325 angstrom
                   Q00  =   0.209415

H          x = -1.700950  y = -1.962558  z = -1.958860 angstrom
           Maximum rank =  0   Radius =  0.325 angstrom
                   Q00  =   0.074393

H          x = -3.141340  y = -1.850760  z = -0.951230 angstrom
           Maximum rank =  0   Radius =  0.325 angstrom
                   Q00  =   0.076808

C          x = -0.840850  y =  2.703345  z = -0.088710 angstrom
           Maximum rank =  0   Radius =  0.650 angstrom
                   Q00  =  -0.084464

C          x = -1.704850  y =  3.724345  z = -0.896710 angstrom
           Maximum rank =  0   Radius =  0.650 angstrom
                   Q00  =  -0.243793

C          x = -0.066850  y =  3.423345  z =  1.034290 angstrom
           Maximum rank =  0   Radius =  0.650 angstrom
                   Q00  =  -0.251367

H          x = -1.505850  y =  1.980345  z =  0.379290 angstrom
           Maximum rank =  0   Radius =  0.325 angstrom
                   Q00  =   0.053107

H          x = -0.133850  y =  2.192345  z = -0.742710 angstrom
           Maximum rank =  0   Radius =  0.325 angstrom
                   Q00  =   0.048221

H          x = -1.024850  y =  4.402345  z = -1.414710 angstrom
           Maximum rank =  0   Radius =  0.325 angstrom
                   Q00  =   0.074745

H          x = -2.274850  y =  4.334345  z = -0.196710 angstrom
           Maximum rank =  0   Radius =  0.325 angstrom
                   Q00  =   0.079032

H          x =  0.633150  y =  4.132345  z =  0.590290 angstrom
           Maximum rank =  0   Radius =  0.325 angstrom
                   Q00  =   0.074150

H          x = -0.768850  y =  3.961345  z =  1.675290 angstrom
           Maximum rank =  0   Radius =  0.325 angstrom
                   Q00  =   0.079964

H          x = -2.389320  y =  3.258765  z = -1.621100 angstrom
           Maximum rank =  0   Radius =  0.325 angstrom
                   Q00  =   0.087108

H          x =  0.475130  y =  2.674005  z =  1.629900 angstrom
           Maximum rank =  0   Radius =  0.325 angstrom
                   Q00  =   0.087206

Total multipoles referred to origin at
           x =   0.000000,  y =    0.000000,  z =    0.000000 angstrom
                   Q00  =  -0.000000

Finished at 1:52:33 on 27 Apr 2020

  DMA results are available in the Python driver through the
	  variable('DMA DISTRIBUTED MULTIPOLES')
  and
	  variable('DMA TOTAL MULTIPOLES')
  commands.

    Psi4 stopped on: Monday, 27 April 2020 01:52AM
    Psi4 wall time for execution: 0:02:10.70

*** Psi4 exiting successfully. Buy a developer a beer!
