                               Psi4 1.3.2 release

  ==> Input File <==

--------------------------------------------------------------------------
import numpy as np
set {scf_type pk
basis cc-pvdz
d_convergence 10
gdma_switch   0
gdma_limit    0
gdma_origin   [ 0.0,  0.0,  0.0 ]
}
molecule test {
    units Angstrom
    -1 1
    --
    -1 1
    C               -0.903511730413165    -3.428977524998693     2.030422367208836
    C                0.192488269586835    -0.430977524998693    -0.075577632791165
    C               -0.409511730413165    -1.196977524998693     0.925422367208835
    C                0.955488269586835    -1.049977524998693    -1.062577632791165
    C               -0.261511730413165    -2.584977524998693     0.944422367208835
    C                1.113488269586835    -2.426977524998693    -1.046577632791165
    C                0.506488269586835    -3.185977524998693    -0.051577632791165
    O                1.558488269586835    -0.326977524998693    -2.053577632791165
    H                0.084488269586835     0.640022475001307    -0.073577632791165
    H               -0.988511730413165    -0.706977524998693     1.698422367208835
    H                1.398488269586835     0.618022475001307    -1.951577632791165
    H                1.705488269586835    -2.904977524998693    -1.814577632791165
    H               -0.625511730413165    -3.019977524998693     3.003422367208835
    H               -0.497511730413165    -4.439977524998693     1.974422367208835
    H                0.630488269586835    -4.261977524998693    -0.058577632791165
    H               -2.000458730413165    -3.487957524998693     1.973597367208835
    C                0.625488269586835     3.901022475001307     0.051422367208835
    C               -0.737511730413165     3.265022475001307     0.144422367208835
    O               -1.390511730413165     3.398022475001307     1.202422367208835
    O               -1.144511730413165     2.626022475001307    -0.848577632791165
    H                1.000488269586835     3.845022475001307    -0.972577632791165
    H                1.318488269586835     3.348022475001307     0.686422367208835
    H                0.596408269586835     4.954602475001307     0.366260367208835

}
e, wfn = energy('scf', return_wfn=True)
gdma(wfn)
dmavals = variable('DMA DISTRIBUTED MULTIPOLES')
charges = np.array(dmavals)
print(charges)
np.save('SSI-011TYR-051GLU-1-dimer.npy', np.array(charges))--------------------------------------------------------------------------

*** tstart() called on ds3
*** at Mon Apr 27 20:32:11 2020

   => Loading Basis Set <=

    Name: CC-PVDZ
    Role: ORBITAL
    Keyword: BASIS
    atoms 1-7, 17-18  entry C          line   138 file /theoryfs2/ds/metcalf/miniconda2/envs/tf2gpu/share/psi4/basis/cc-pvdz.gbs
    atoms 8, 19-20    entry O          line   198 file /theoryfs2/ds/metcalf/miniconda2/envs/tf2gpu/share/psi4/basis/cc-pvdz.gbs
    atoms 9-16, 21-23 entry H          line    22 file /theoryfs2/ds/metcalf/miniconda2/envs/tf2gpu/share/psi4/basis/cc-pvdz.gbs

         ---------------------------------------------------------
                                   SCF
               by Justin Turney, Rob Parrish, Andy Simmonett
                          and Daniel G. A. Smith
                              RHF Reference
                        1 Threads,    500 MiB Core
         ---------------------------------------------------------

  ==> Geometry <==

    Molecular point group: c1
    Full point group: C1

    Geometry (in Angstrom), charge = -1, multiplicity = 1:

       Center              X                  Y                   Z               Mass
    ------------   -----------------  -----------------  -----------------  -----------------
         C           -0.903511730413    -3.428977524999     2.030422367209    12.000000000000
         C            0.192488269587    -0.430977524999    -0.075577632791    12.000000000000
         C           -0.409511730413    -1.196977524999     0.925422367209    12.000000000000
         C            0.955488269587    -1.049977524999    -1.062577632791    12.000000000000
         C           -0.261511730413    -2.584977524999     0.944422367209    12.000000000000
         C            1.113488269587    -2.426977524999    -1.046577632791    12.000000000000
         C            0.506488269587    -3.185977524999    -0.051577632791    12.000000000000
         O            1.558488269587    -0.326977524999    -2.053577632791    15.994914619570
         H            0.084488269587     0.640022475001    -0.073577632791     1.007825032230
         H           -0.988511730413    -0.706977524999     1.698422367209     1.007825032230
         H            1.398488269587     0.618022475001    -1.951577632791     1.007825032230
         H            1.705488269587    -2.904977524999    -1.814577632791     1.007825032230
         H           -0.625511730413    -3.019977524999     3.003422367209     1.007825032230
         H           -0.497511730413    -4.439977524999     1.974422367209     1.007825032230
         H            0.630488269587    -4.261977524999    -0.058577632791     1.007825032230
         H           -2.000458730413    -3.487957524999     1.973597367209     1.007825032230
         C            0.625488269587     3.901022475001     0.051422367209    12.000000000000
         C           -0.737511730413     3.265022475001     0.144422367209    12.000000000000
         O           -1.390511730413     3.398022475001     1.202422367209    15.994914619570
         O           -1.144511730413     2.626022475001    -0.848577632791    15.994914619570
         H            1.000488269587     3.845022475001    -0.972577632791     1.007825032230
         H            1.318488269587     3.348022475001     0.686422367209     1.007825032230
         H            0.596408269587     4.954602475001     0.366260367209     1.007825032230

  Running in c1 symmetry.

  Rotational constants: A =      0.04571  B =      0.01370  C =      0.01108 [cm^-1]
  Rotational constants: A =   1370.23304  B =    410.77173  C =    332.18528 [MHz]
  Nuclear repulsion =  633.710550951705955

  Charge       = -1
  Multiplicity = 1
  Electrons    = 90
  Nalpha       = 45
  Nbeta        = 45

  ==> Algorithm <==

  SCF Algorithm Type is PK.
  DIIS enabled.
  MOM disabled.
  Fractional occupation disabled.
  Guess Type is SAD.
  Energy threshold   = 1.00e-06
  Density threshold  = 1.00e-10
  Integral threshold = 0.00e+00

  ==> Primary Basis <==

  Basis Set: CC-PVDZ
    Blend: CC-PVDZ
    Number of shells: 105
    Number of basis function: 223
    Number of Cartesian functions: 235
    Spherical Harmonics?: true
    Max angular momentum: 2

  ==> Pre-Iterations <==

   -------------------------------------------------------
    Irrep   Nso     Nmo     Nalpha   Nbeta   Ndocc  Nsocc
   -------------------------------------------------------
     A        223     223       0       0       0       0
   -------------------------------------------------------
    Total     223     223      45      45      45       0
   -------------------------------------------------------

  ==> Integral Setup <==

  Using integral reordering PK algorithm.
  Sizing the integral batches needed.
  Building batch lookup table.
   Calculation information:
      Number of atoms:                  23
      Number of AO shells:             105
      Number of primitives:            319
      Number of atomic orbitals:       235
      Number of basis functions:       223

      Integral cutoff                 1.00e-12
      Number of threads:                 1

	Batch   1 pq = [       0,    9405] index = [             0,44231715] size =     44231715
	Batch   2 pq = [    9405,   13301] index = [      44231715,88464951] size =     44233236
	Batch   3 pq = [   13301,   16290] index = [      88464951,132690195] size =     44225244
	Batch   4 pq = [   16290,   18810] index = [     132690195,176917455] size =     44227260
	Batch   5 pq = [   18810,   21030] index = [     176917455,221140965] size =     44223510
	Batch   6 pq = [   21030,   23037] index = [     221140965,265363203] size =     44222238
	Batch   7 pq = [   23037,   24976] index = [     265363203,311912776] size =     46549573
  Task number: 29
  Buffer size: 11059200
  Buffer per thread: 2
  We computed 12591072 shell quartets total.
  Whereas there are 15487395 unique shell quartets.

  ==> DiskJK: Disk-Based J/K Matrices <==

    J tasked:                  Yes
    K tasked:                  Yes
    wK tasked:                  No
    Memory [MiB]:              375
    Schwarz Cutoff:          1E-12

    OpenMP threads:              1

  Minimum eigenvalue in the overlap matrix is 3.1309182606E-04.
  Using Symmetric Orthogonalization.

  SCF Guess: Superposition of Atomic Densities via on-the-fly atomic UHF.

  ==> Iterations <==

                        Total Energy        Delta E     RMS |[F,P]|

   @RHF iter SAD:  -570.18756699179414   -5.70188e+02   0.00000e+00
   @RHF iter   1:  -571.52440705583228   -1.33684e+00   3.67779e-03 DIIS
   @RHF iter   2:  -571.80427725247705   -2.79870e-01   1.95247e-03 DIIS
   @RHF iter   3:  -571.87519902972633   -7.09218e-02   3.43077e-04 DIIS
   @RHF iter   4:  -571.87902452489220   -3.82550e-03   1.26502e-04 DIIS
   @RHF iter   5:  -571.87955248226592   -5.27957e-04   2.01178e-05 DIIS
   @RHF iter   6:  -571.87957157483322   -1.90926e-05   8.18050e-06 DIIS
   @RHF iter   7:  -571.87957414216180   -2.56733e-06   2.80778e-06 DIIS
   @RHF iter   8:  -571.87957456529352   -4.23132e-07   8.87273e-07 DIIS
   @RHF iter   9:  -571.87957462369889   -5.84054e-08   3.46981e-07 DIIS
   @RHF iter  10:  -571.87957463633006   -1.26312e-08   1.55811e-07 DIIS
   @RHF iter  11:  -571.87957463964347   -3.31340e-09   7.75452e-08 DIIS
   @RHF iter  12:  -571.87957464033730   -6.93831e-10   3.16809e-08 DIIS
   @RHF iter  13:  -571.87957464047736   -1.40062e-10   9.65573e-09 DIIS
   @RHF iter  14:  -571.87957464049259   -1.52340e-11   4.19377e-09 DIIS
   @RHF iter  15:  -571.87957464049498   -2.38742e-12   1.33583e-09 DIIS
   @RHF iter  16:  -571.87957464049032    4.66116e-12   6.36162e-10 DIIS
   @RHF iter  17:  -571.87957464049441   -4.09273e-12   3.10419e-10 DIIS
   @RHF iter  18:  -571.87957464049487   -4.54747e-13   1.16993e-10 DIIS
   @RHF iter  19:  -571.87957464048679    8.07177e-12   4.56960e-11 DIIS
  Energy and wave function converged.

  ==> Post-Iterations <==

    Orbital Energies [Eh]
    ---------------------

    Doubly Occupied:

       1A    -20.473568     2A    -20.274179     3A    -20.267266
       4A    -11.190118     5A    -11.142633     6A    -11.138112
       7A    -11.133965     8A    -11.129558     9A    -11.128205
      10A    -11.125578    11A    -11.114868    12A    -11.060298
      13A     -1.288069    14A     -1.161962    15A     -1.049034
      16A     -1.046132    17A     -0.936733    18A     -0.909395
      19A     -0.830203    20A     -0.810071    21A     -0.736849
      22A     -0.697282    23A     -0.622899    24A     -0.561082
      25A     -0.535942    26A     -0.513104    27A     -0.502749
      28A     -0.486483    29A     -0.477931    30A     -0.471100
      31A     -0.467032    32A     -0.431941    33A     -0.425777
      34A     -0.419444    35A     -0.415460    36A     -0.395201
      37A     -0.378470    38A     -0.364440    39A     -0.352529
      40A     -0.314622    41A     -0.230746    42A     -0.199044
      43A     -0.194764    44A     -0.183824    45A     -0.172547

    Virtual:

      46A      0.236568    47A      0.258886    48A      0.273685
      49A      0.299293    50A      0.300034    51A      0.332577
      52A      0.344483    53A      0.356047    54A      0.367272
      55A      0.376449    56A      0.385311    57A      0.413716
      58A      0.453715    59A      0.462991    60A      0.479272
      61A      0.492128    62A      0.536872    63A      0.556361
      64A      0.567254    65A      0.594493    66A      0.605418
      67A      0.608138    68A      0.700364    69A      0.710622
      70A      0.721248    71A      0.721990    72A      0.753628
      73A      0.760536    74A      0.793171    75A      0.796206
      76A      0.811217    77A      0.823940    78A      0.825746
      79A      0.839101    80A      0.844838    81A      0.851189
      82A      0.867944    83A      0.880178    84A      0.894618
      85A      0.907317    86A      0.924998    87A      0.948498
      88A      0.954358    89A      0.966191    90A      0.974414
      91A      0.978966    92A      0.989653    93A      0.990481
      94A      1.013661    95A      1.019161    96A      1.022638
      97A      1.033493    98A      1.038671    99A      1.040807
     100A      1.043183   101A      1.061809   102A      1.094448
     103A      1.130684   104A      1.148336   105A      1.154464
     106A      1.185841   107A      1.226768   108A      1.249787
     109A      1.256396   110A      1.263244   111A      1.298717
     112A      1.306786   113A      1.330263   114A      1.342877
     115A      1.353452   116A      1.359575   117A      1.373605
     118A      1.387608   119A      1.393957   120A      1.394714
     121A      1.416067   122A      1.440726   123A      1.467293
     124A      1.472945   125A      1.511649   126A      1.551054
     127A      1.559151   128A      1.577718   129A      1.599258
     130A      1.601973   131A      1.617180   132A      1.642705
     133A      1.643943   134A      1.664737   135A      1.689611
     136A      1.721731   137A      1.733232   138A      1.737484
     139A      1.774614   140A      1.783229   141A      1.833443
     142A      1.835396   143A      1.842418   144A      1.848944
     145A      1.880938   146A      1.909389   147A      1.917563
     148A      1.968012   149A      1.990165   150A      1.997684
     151A      2.001782   152A      2.021404   153A      2.024845
     154A      2.041521   155A      2.051353   156A      2.056589
     157A      2.069373   158A      2.085190   159A      2.099181
     160A      2.102404   161A      2.120233   162A      2.132395
     163A      2.154178   164A      2.161639   165A      2.173309
     166A      2.185109   167A      2.205183   168A      2.218070
     169A      2.251021   170A      2.268668   171A      2.290315
     172A      2.304147   173A      2.327137   174A      2.347388
     175A      2.358564   176A      2.381083   177A      2.408395
     178A      2.429371   179A      2.442842   180A      2.457526
     181A      2.492328   182A      2.500386   183A      2.565372
     184A      2.579486   185A      2.593142   186A      2.609506
     187A      2.621570   188A      2.647852   189A      2.661266
     190A      2.701006   191A      2.718838   192A      2.749483
     193A      2.771055   194A      2.840029   195A      2.857318
     196A      2.893262   197A      2.915902   198A      2.934960
     199A      2.947616   200A      2.954710   201A      2.987153
     202A      2.992536   203A      3.076548   204A      3.110845
     205A      3.194446   206A      3.212360   207A      3.231632
     208A      3.271197   209A      3.286938   210A      3.357700
     211A      3.359619   212A      3.402186   213A      3.454327
     214A      3.625041   215A      3.680854   216A      3.785791
     217A      3.791580   218A      3.829184   219A      4.055715
     220A      4.069231   221A      4.077527   222A      4.184121
     223A      4.310171

    Final Occupation by Irrep:
              A
    DOCC [    45 ]

  @RHF Final Energy:  -571.87957464048679

   => Energetics <=

    Nuclear Repulsion Energy =            633.7105509517059545
    One-Electron Energy =               -2051.6578348814405217
    Two-Electron Energy =                 846.0677092892477731
    Total Energy =                       -571.8795746404867941

Computation Completed

Properties will be evaluated at   0.000000,   0.000000,   0.000000 [a0]

Properties computed using the SCF density matrix

  Nuclear Dipole Moment: [e a0]
     X:     2.4537      Y:    -5.0501      Z:     4.5214

  Electronic Dipole Moment: [e a0]
     X:    -0.3693      Y:     0.7975      Z:    -4.4784

  Dipole Moment: [e a0]
     X:     2.0844      Y:    -4.2526      Z:     0.0430     Total:     4.7361

  Dipole Moment: [D]
     X:     5.2980      Y:   -10.8089      Z:     0.1092     Total:    12.0380

*** tstop() called on ds3 at Mon Apr 27 20:35:22 2020
Module time:
	user time   =     104.46 seconds =       1.74 minutes
	system time =      46.71 seconds =       0.78 minutes
	total time  =        191 seconds =       3.18 minutes
Total time:
	user time   =     104.46 seconds =       1.74 minutes
	system time =      46.71 seconds =       0.78 minutes
	total time  =        191 seconds =       3.18 minutes
                                     G D M A

                                 by Anthony Stone

                           version 2.2.06, 22 June 2011

               Distributed Multipoles from Gaussian wavefunctions

Starting at 20:35:22 on 27 Apr 2020

Using SCF density matrix from file ./SSI/SSI-011TYR-051GLU-1-dimer.test.15305.fchk

                         Distributed Multipole Analysis

Standard DMA

Positions and radii in angstrom
Multipole moments in atomic units, ea_0^k for rank k

C          x = -0.903512  y = -3.428978  z =  2.030422 angstrom
           Maximum rank =  0   Radius =  0.650 angstrom
                   Q00  =  -0.203386

C          x =  0.192488  y = -0.430978  z = -0.075578 angstrom
           Maximum rank =  0   Radius =  0.650 angstrom
                   Q00  =  -0.117601

C          x = -0.409512  y = -1.196978  z =  0.925422 angstrom
           Maximum rank =  0   Radius =  0.650 angstrom
                   Q00  =  -0.051072

C          x =  0.955488  y = -1.049978  z = -1.062578 angstrom
           Maximum rank =  0   Radius =  0.650 angstrom
                   Q00  =   0.310044

C          x = -0.261512  y = -2.584978  z =  0.944422 angstrom
           Maximum rank =  0   Radius =  0.650 angstrom
                   Q00  =  -0.156021

C          x =  1.113488  y = -2.426978  z = -1.046578 angstrom
           Maximum rank =  0   Radius =  0.650 angstrom
                   Q00  =  -0.122523

C          x =  0.506488  y = -3.185978  z = -0.051578 angstrom
           Maximum rank =  0   Radius =  0.650 angstrom
                   Q00  =   0.054362

O          x =  1.558488  y = -0.326978  z = -2.053578 angstrom
           Maximum rank =  0   Radius =  0.650 angstrom
                   Q00  =  -0.689279

H          x =  0.084488  y =  0.640022  z = -0.073578 angstrom
           Maximum rank =  0   Radius =  0.325 angstrom
                   Q00  =   0.106176

H          x = -0.988512  y = -0.706978  z =  1.698422 angstrom
           Maximum rank =  0   Radius =  0.325 angstrom
                   Q00  =   0.068116

H          x =  1.398488  y =  0.618022  z = -1.951578 angstrom
           Maximum rank =  0   Radius =  0.325 angstrom
                   Q00  =   0.427574

H          x =  1.705488  y = -2.904978  z = -1.814578 angstrom
           Maximum rank =  0   Radius =  0.325 angstrom
                   Q00  =   0.056794

H          x = -0.625512  y = -3.019978  z =  3.003422 angstrom
           Maximum rank =  0   Radius =  0.325 angstrom
                   Q00  =   0.090830

H          x = -0.497512  y = -4.439978  z =  1.974422 angstrom
           Maximum rank =  0   Radius =  0.325 angstrom
                   Q00  =   0.078425

H          x =  0.630488  y = -4.261978  z = -0.058578 angstrom
           Maximum rank =  0   Radius =  0.325 angstrom
                   Q00  =   0.037376

H          x = -2.000459  y = -3.487958  z =  1.973597 angstrom
           Maximum rank =  0   Radius =  0.325 angstrom
                   Q00  =   0.093096

C          x =  0.625488  y =  3.901022  z =  0.051422 angstrom
           Maximum rank =  0   Radius =  0.650 angstrom
                   Q00  =  -0.273180

C          x = -0.737512  y =  3.265022  z =  0.144422 angstrom
           Maximum rank =  0   Radius =  0.650 angstrom
                   Q00  =   0.974951

O          x = -1.390512  y =  3.398022  z =  1.202422 angstrom
           Maximum rank =  0   Radius =  0.650 angstrom
                   Q00  =  -0.932121

O          x = -1.144512  y =  2.626022  z = -0.848578 angstrom
           Maximum rank =  0   Radius =  0.650 angstrom
                   Q00  =  -0.933178

H          x =  1.000488  y =  3.845022  z = -0.972578 angstrom
           Maximum rank =  0   Radius =  0.325 angstrom
                   Q00  =   0.042816

H          x =  1.318488  y =  3.348022  z =  0.686422 angstrom
           Maximum rank =  0   Radius =  0.325 angstrom
                   Q00  =   0.067905

H          x =  0.596408  y =  4.954602  z =  0.366260 angstrom
           Maximum rank =  0   Radius =  0.325 angstrom
                   Q00  =   0.069897

Total multipoles referred to origin at
           x =   0.000000,  y =    0.000000,  z =    0.000000 angstrom
                   Q00  =  -1.000000

Finished at 20:35:22 on 27 Apr 2020

  DMA results are available in the Python driver through the
	  variable('DMA DISTRIBUTED MULTIPOLES')
  and
	  variable('DMA TOTAL MULTIPOLES')
  commands.

    Psi4 stopped on: Monday, 27 April 2020 08:35PM
    Psi4 wall time for execution: 0:03:11.70

*** Psi4 exiting successfully. Buy a developer a beer!
