                               Psi4 1.3.2 release

  ==> Input File <==

--------------------------------------------------------------------------
import numpy as np
set {scf_type pk
basis cc-pvdz
d_convergence 10
gdma_switch   0
gdma_limit    0
gdma_origin   [ 0.0,  0.0,  0.0 ]
}
molecule test {
    units Angstrom
    0 1
    --
    0 1
    C               -0.719562829303206    -0.964445682598865     1.908211658992550
    C               -0.265562829303206    -2.109445682598865     1.011211658992550
    H                0.122437170696794    -0.612445682598865     2.497211658992549
    H               -1.074562829303207    -0.132445682598865     1.310211658992550
    H               -1.527562829303206    -1.288445682598865     2.563211658992550
    H                0.664437170696794    -1.824445682598865     0.522211658992550
    H               -0.113622829303206    -3.013148682598865     1.619681658992550
    H               -1.011092829303206    -2.312051682598864     0.228185658992550
    C                0.489437170696794     1.220554317401136    -0.764788341007450
    C                0.493437170696793     1.846554317401135    -2.155788341007450
    H                1.221437170696794     0.415554317401135    -0.709788341007450
    H                0.741437170696794     1.979554317401135    -0.026788341007450
    H               -0.494562829303206     0.836554317401135    -0.528788341007450
    H               -0.278562829303206     2.612554317401135    -2.208788341007450
    H                0.319347170696794     1.074253317401135    -2.919492341007450
    H                1.457677170696794     2.345273317401135    -2.333335341007450

}
e, wfn = energy('scf', return_wfn=True)
gdma(wfn)
dmavals = variable('DMA DISTRIBUTED MULTIPOLES')
charges = np.array(dmavals)
print(charges)
np.save('SSI-025LEU-055VAL-1-dimer.npy', np.array(charges))--------------------------------------------------------------------------

*** tstart() called on ds3
*** at Sun Apr 26 23:42:35 2020

   => Loading Basis Set <=

    Name: CC-PVDZ
    Role: ORBITAL
    Keyword: BASIS
    atoms 1-2, 9-10  entry C          line   138 file /theoryfs2/ds/metcalf/miniconda2/envs/tf2gpu/share/psi4/basis/cc-pvdz.gbs
    atoms 3-8, 11-16 entry H          line    22 file /theoryfs2/ds/metcalf/miniconda2/envs/tf2gpu/share/psi4/basis/cc-pvdz.gbs

         ---------------------------------------------------------
                                   SCF
               by Justin Turney, Rob Parrish, Andy Simmonett
                          and Daniel G. A. Smith
                              RHF Reference
                        1 Threads,    500 MiB Core
         ---------------------------------------------------------

  ==> Geometry <==

    Molecular point group: c1
    Full point group: C1

    Geometry (in Angstrom), charge = 0, multiplicity = 1:

       Center              X                  Y                   Z               Mass
    ------------   -----------------  -----------------  -----------------  -----------------
         C           -0.719562829303    -0.964445682599     1.908211658993    12.000000000000
         C           -0.265562829303    -2.109445682599     1.011211658993    12.000000000000
         H            0.122437170697    -0.612445682599     2.497211658993     1.007825032230
         H           -1.074562829303    -0.132445682599     1.310211658993     1.007825032230
         H           -1.527562829303    -1.288445682599     2.563211658993     1.007825032230
         H            0.664437170697    -1.824445682599     0.522211658993     1.007825032230
         H           -0.113622829303    -3.013148682599     1.619681658993     1.007825032230
         H           -1.011092829303    -2.312051682599     0.228185658993     1.007825032230
         C            0.489437170697     1.220554317401    -0.764788341007    12.000000000000
         C            0.493437170697     1.846554317401    -2.155788341007    12.000000000000
         H            1.221437170697     0.415554317401    -0.709788341007     1.007825032230
         H            0.741437170697     1.979554317401    -0.026788341007     1.007825032230
         H           -0.494562829303     0.836554317401    -0.528788341007     1.007825032230
         H           -0.278562829303     2.612554317401    -2.208788341007     1.007825032230
         H            0.319347170697     1.074253317401    -2.919492341007     1.007825032230
         H            1.457677170697     2.345273317401    -2.333335341007     1.007825032230

  Running in c1 symmetry.

  Rotational constants: A =      0.48952  B =      0.05371  C =      0.05071 [cm^-1]
  Rotational constants: A =  14675.31510  B =   1610.16103  C =   1520.19276 [MHz]
  Nuclear repulsion =  124.320824027100926

  Charge       = 0
  Multiplicity = 1
  Electrons    = 36
  Nalpha       = 18
  Nbeta        = 18

  ==> Algorithm <==

  SCF Algorithm Type is PK.
  DIIS enabled.
  MOM disabled.
  Fractional occupation disabled.
  Guess Type is SAD.
  Energy threshold   = 1.00e-06
  Density threshold  = 1.00e-10
  Integral threshold = 0.00e+00

  ==> Primary Basis <==

  Basis Set: CC-PVDZ
    Blend: CC-PVDZ
    Number of shells: 60
    Number of basis function: 116
    Number of Cartesian functions: 120
    Spherical Harmonics?: true
    Max angular momentum: 2

  ==> Pre-Iterations <==

   -------------------------------------------------------
    Irrep   Nso     Nmo     Nalpha   Nbeta   Ndocc  Nsocc
   -------------------------------------------------------
     A        116     116       0       0       0       0
   -------------------------------------------------------
    Total     116     116      18      18      18       0
   -------------------------------------------------------

  ==> Integral Setup <==

  Using integral reordering PK algorithm.
  Sizing the integral batches needed.
  Building batch lookup table.
   Calculation information:
      Number of atoms:                  16
      Number of AO shells:              60
      Number of primitives:            148
      Number of atomic orbitals:       120
      Number of basis functions:       116

      Integral cutoff                 1.00e-12
      Number of threads:                 1

	Batch   1 pq = [       0,    6786] index = [             0,23028291] size =     23028291
  Task number: 3
  Buffer size: 11059200
  Buffer per thread: 2
  We computed 1481655 shell quartets total.
  Whereas there are 1675365 unique shell quartets.

  ==> DiskJK: Disk-Based J/K Matrices <==

    J tasked:                  Yes
    K tasked:                  Yes
    wK tasked:                  No
    Memory [MiB]:              375
    Schwarz Cutoff:          1E-12

    OpenMP threads:              1

  Minimum eigenvalue in the overlap matrix is 6.5921484785E-03.
  Using Symmetric Orthogonalization.

  SCF Guess: Superposition of Atomic Densities via on-the-fly atomic UHF.

  ==> Iterations <==

                        Total Energy        Delta E     RMS |[F,P]|

   @RHF iter SAD:  -157.38791547600269   -1.57388e+02   0.00000e+00
   @RHF iter   1:  -158.30506234376961   -9.17147e-01   4.23198e-03 DIIS
   @RHF iter   2:  -158.43962330970541   -1.34561e-01   1.79806e-03 DIIS
   @RHF iter   3:  -158.46308336107700   -2.34601e-02   3.50205e-04 DIIS
   @RHF iter   4:  -158.46490966912299   -1.82631e-03   3.83268e-05 DIIS
   @RHF iter   5:  -158.46493264727155   -2.29781e-05   6.41043e-06 DIIS
   @RHF iter   6:  -158.46493325376895   -6.06497e-07   1.08520e-06 DIIS
   @RHF iter   7:  -158.46493326545510   -1.16862e-08   3.08956e-07 DIIS
   @RHF iter   8:  -158.46493326630110   -8.46001e-10   4.00316e-08 DIIS
   @RHF iter   9:  -158.46493326632449   -2.33911e-11   8.07119e-09 DIIS
   @RHF iter  10:  -158.46493326632572   -1.22213e-12   2.07138e-09 DIIS
   @RHF iter  11:  -158.46493326632623   -5.11591e-13   6.38079e-10 DIIS
   @RHF iter  12:  -158.46493326632526    9.66338e-13   1.61478e-10 DIIS
   @RHF iter  13:  -158.46493326632572   -4.54747e-13   2.16138e-11 DIIS
  Energy and wave function converged.

  ==> Post-Iterations <==

    Orbital Energies [Eh]
    ---------------------

    Doubly Occupied:

       1A    -11.219152     2A    -11.217666     3A    -11.215833
       4A    -11.213419     5A     -1.021546     6A     -1.017523
       7A     -0.838576     8A     -0.835103     9A     -0.605167
      10A     -0.601855    11A     -0.597573    12A     -0.592252
      13A     -0.503102    14A     -0.498480    15A     -0.492077
      16A     -0.487865    17A     -0.482912    18A     -0.477335

    Virtual:

      19A      0.173757    20A      0.198359    21A      0.226489
      22A      0.231927    23A      0.243232    24A      0.258950
      25A      0.269966    26A      0.273774    27A      0.281665
      28A      0.287988    29A      0.343658    30A      0.355089
      31A      0.390172    32A      0.408148    33A      0.560582
      34A      0.591692    35A      0.592956    36A      0.605029
      37A      0.607142    38A      0.636562    39A      0.671102
      40A      0.685085    41A      0.732501    42A      0.769307
      43A      0.849811    44A      0.854103    45A      0.889486
      46A      0.891330    47A      0.893888    48A      0.897876
      49A      0.906315    50A      0.911064    51A      0.917660
      52A      0.935702    53A      0.953206    54A      0.961864
      55A      0.985593    56A      0.998753    57A      1.120640
      58A      1.125185    59A      1.137888    60A      1.143390
      61A      1.212619    62A      1.274913    63A      1.468960
      64A      1.477712    65A      1.482601    66A      1.501513
      67A      1.571663    68A      1.588951    69A      1.679570
      70A      1.684486    71A      1.697036    72A      1.701025
      73A      1.843392    74A      1.868358    75A      1.872604
      76A      1.886366    77A      1.895364    78A      1.927448
      79A      1.934324    80A      1.940414    81A      1.944717
      82A      1.949315    83A      1.954740    84A      1.960296
      85A      1.962697    86A      1.972799    87A      1.989740
      88A      2.038145    89A      2.106989    90A      2.109429
      91A      2.132510    92A      2.139238    93A      2.301276
      94A      2.305283    95A      2.310721    96A      2.337336
      97A      2.444385    98A      2.450017    99A      2.464540
     100A      2.470819   101A      2.563100   102A      2.571974
     103A      2.587242   104A      2.595163   105A      2.763148
     106A      2.770304   107A      2.795425   108A      2.803262
     109A      2.843430   110A      2.857308   111A      2.858454
     112A      2.865665   113A      2.944503   114A      2.960453
     115A      2.963699   116A      2.987385

    Final Occupation by Irrep:
              A
    DOCC [    18 ]

  @RHF Final Energy:  -158.46493326632572

   => Energetics <=

    Nuclear Repulsion Energy =            124.3208240271009259
    One-Electron Energy =                -457.7366419977411169
    Two-Electron Energy =                 174.9508847043144897
    Total Energy =                       -158.4649332663257155

Computation Completed

Properties will be evaluated at   0.000000,   0.000000,   0.000000 [a0]

Properties computed using the SCF density matrix

  Nuclear Dipole Moment: [e a0]
     X:     0.0251      Y:     0.0757      Z:     0.0129

  Electronic Dipole Moment: [e a0]
     X:    -0.0242      Y:    -0.0476      Z:    -0.0113

  Dipole Moment: [e a0]
     X:     0.0009      Y:     0.0281      Z:     0.0016     Total:     0.0282

  Dipole Moment: [D]
     X:     0.0024      Y:     0.0715      Z:     0.0040     Total:     0.0717

*** tstop() called on ds3 at Sun Apr 26 23:42:47 2020
Module time:
	user time   =       7.63 seconds =       0.13 minutes
	system time =       2.70 seconds =       0.05 minutes
	total time  =         12 seconds =       0.20 minutes
Total time:
	user time   =       7.63 seconds =       0.13 minutes
	system time =       2.70 seconds =       0.05 minutes
	total time  =         12 seconds =       0.20 minutes
                                     G D M A

                                 by Anthony Stone

                           version 2.2.06, 22 June 2011

               Distributed Multipoles from Gaussian wavefunctions

Starting at 23:42:47 on 26 Apr 2020

Using SCF density matrix from file ./SSI/SSI-025LEU-055VAL-1-dimer.test.2999.fchk

                         Distributed Multipole Analysis

Standard DMA

Positions and radii in angstrom
Multipole moments in atomic units, ea_0^k for rank k

C          x = -0.719563  y = -0.964446  z =  1.908212 angstrom
           Maximum rank =  0   Radius =  0.650 angstrom
                   Q00  =  -0.239461

C          x = -0.265563  y = -2.109446  z =  1.011212 angstrom
           Maximum rank =  0   Radius =  0.650 angstrom
                   Q00  =  -0.232591

H          x =  0.122437  y = -0.612446  z =  2.497212 angstrom
           Maximum rank =  0   Radius =  0.325 angstrom
                   Q00  =   0.077904

H          x = -1.074563  y = -0.132446  z =  1.310212 angstrom
           Maximum rank =  0   Radius =  0.325 angstrom
                   Q00  =   0.082488

H          x = -1.527563  y = -1.288446  z =  2.563212 angstrom
           Maximum rank =  0   Radius =  0.325 angstrom
                   Q00  =   0.077652

H          x =  0.664437  y = -1.824446  z =  0.522212 angstrom
           Maximum rank =  0   Radius =  0.325 angstrom
                   Q00  =   0.079030

H          x = -0.113623  y = -3.013149  z =  1.619682 angstrom
           Maximum rank =  0   Radius =  0.325 angstrom
                   Q00  =   0.078201

H          x = -1.011093  y = -2.312052  z =  0.228186 angstrom
           Maximum rank =  0   Radius =  0.325 angstrom
                   Q00  =   0.076378

C          x =  0.489437  y =  1.220554  z = -0.764788 angstrom
           Maximum rank =  0   Radius =  0.650 angstrom
                   Q00  =  -0.244365

C          x =  0.493437  y =  1.846554  z = -2.155788 angstrom
           Maximum rank =  0   Radius =  0.650 angstrom
                   Q00  =  -0.228417

H          x =  1.221437  y =  0.415554  z = -0.709788 angstrom
           Maximum rank =  0   Radius =  0.325 angstrom
                   Q00  =   0.080144

H          x =  0.741437  y =  1.979554  z = -0.026788 angstrom
           Maximum rank =  0   Radius =  0.325 angstrom
                   Q00  =   0.078175

H          x = -0.494563  y =  0.836554  z = -0.528788 angstrom
           Maximum rank =  0   Radius =  0.325 angstrom
                   Q00  =   0.078560

H          x = -0.278563  y =  2.612554  z = -2.208788 angstrom
           Maximum rank =  0   Radius =  0.325 angstrom
                   Q00  =   0.079364

H          x =  0.319347  y =  1.074253  z = -2.919492 angstrom
           Maximum rank =  0   Radius =  0.325 angstrom
                   Q00  =   0.079771

H          x =  1.457677  y =  2.345273  z = -2.333335 angstrom
           Maximum rank =  0   Radius =  0.325 angstrom
                   Q00  =   0.077168

Total multipoles referred to origin at
           x =   0.000000,  y =    0.000000,  z =    0.000000 angstrom
                   Q00  =  -0.000000

Finished at 23:42:47 on 26 Apr 2020

  DMA results are available in the Python driver through the
	  variable('DMA DISTRIBUTED MULTIPOLES')
  and
	  variable('DMA TOTAL MULTIPOLES')
  commands.

    Psi4 stopped on: Sunday, 26 April 2020 11:42PM
    Psi4 wall time for execution: 0:00:11.50

*** Psi4 exiting successfully. Buy a developer a beer!
