                               Psi4 1.3.2 release

  ==> Input File <==

--------------------------------------------------------------------------
import numpy as np
set {scf_type pk
basis cc-pvdz
d_convergence 10
gdma_switch   0
gdma_limit    0
gdma_origin   [ 0.0,  0.0,  0.0 ]
}
molecule test {
    units Angstrom
    0 1
    --
    0 1
    C                1.407299878045843     0.293770480147799     0.428221470256349
    C                1.924299878045844     0.984770480147799     1.703221470256349
    C                0.955299878045843     1.239770480147798    -0.688778529743651
    H                2.173299878045844    -0.374229519852201     0.031221470256349
    H                0.564299878045843    -0.336229519852201     0.705221470256349
    H                2.216299878045843     0.202770480147799     2.394221470256349
    H                1.783299878045844     1.865770480147799    -1.024778529743651
    H                0.611299878045844     0.648770480147798    -1.536778529743651
    H                0.133299878045844     1.869770480147799    -0.349778529743651
    H                2.801999878045843     1.613230480147799     1.491831470256349
    H                1.136919878045844     1.573510480147798     2.196591470256349
    C               -2.048700121954156    -1.286229519852201     0.051221470256349
    C               -2.141700121954157    -1.207229519852202    -1.465778529743651
    H               -1.244700121954156    -1.953229519852202     0.359221470256349
    H               -1.850700121954157    -0.291229519852201     0.450221470256349
    H               -2.991700121954156    -1.644229519852201     0.466221470256349
    H               -1.172700121954156    -0.912229519852201    -1.868778529743651
    H               -2.845700121954156    -0.412229519852201    -1.709778529743651
    H               -2.464220121954157    -2.146129519852201    -1.939528529743651

}
e, wfn = energy('scf', return_wfn=True)
gdma(wfn)
dmavals = variable('DMA DISTRIBUTED MULTIPOLES')
charges = np.array(dmavals)
print(charges)
np.save('SSI-112ILE-142ILE-1-dimer.npy', np.array(charges))--------------------------------------------------------------------------

*** tstart() called on ds3
*** at Tue Apr 28 03:26:06 2020

   => Loading Basis Set <=

    Name: CC-PVDZ
    Role: ORBITAL
    Keyword: BASIS
    atoms 1-3, 12-13  entry C          line   138 file /theoryfs2/ds/metcalf/miniconda2/envs/tf2gpu/share/psi4/basis/cc-pvdz.gbs
    atoms 4-11, 14-19 entry H          line    22 file /theoryfs2/ds/metcalf/miniconda2/envs/tf2gpu/share/psi4/basis/cc-pvdz.gbs

         ---------------------------------------------------------
                                   SCF
               by Justin Turney, Rob Parrish, Andy Simmonett
                          and Daniel G. A. Smith
                              RHF Reference
                        1 Threads,    500 MiB Core
         ---------------------------------------------------------

  ==> Geometry <==

    Molecular point group: c1
    Full point group: C1

    Geometry (in Angstrom), charge = 0, multiplicity = 1:

       Center              X                  Y                   Z               Mass
    ------------   -----------------  -----------------  -----------------  -----------------
         C            1.407299878046     0.293770480148     0.428221470256    12.000000000000
         C            1.924299878046     0.984770480148     1.703221470256    12.000000000000
         C            0.955299878046     1.239770480148    -0.688778529744    12.000000000000
         H            2.173299878046    -0.374229519852     0.031221470256     1.007825032230
         H            0.564299878046    -0.336229519852     0.705221470256     1.007825032230
         H            2.216299878046     0.202770480148     2.394221470256     1.007825032230
         H            1.783299878046     1.865770480148    -1.024778529744     1.007825032230
         H            0.611299878046     0.648770480148    -1.536778529744     1.007825032230
         H            0.133299878046     1.869770480148    -0.349778529744     1.007825032230
         H            2.801999878046     1.613230480148     1.491831470256     1.007825032230
         H            1.136919878046     1.573510480148     2.196591470256     1.007825032230
         C           -2.048700121954    -1.286229519852     0.051221470256    12.000000000000
         C           -2.141700121954    -1.207229519852    -1.465778529744    12.000000000000
         H           -1.244700121954    -1.953229519852     0.359221470256     1.007825032230
         H           -1.850700121954    -0.291229519852     0.450221470256     1.007825032230
         H           -2.991700121954    -1.644229519852     0.466221470256     1.007825032230
         H           -1.172700121954    -0.912229519852    -1.868778529744     1.007825032230
         H           -2.845700121954    -0.412229519852    -1.709778529744     1.007825032230
         H           -2.464220121954    -2.146129519852    -1.939528529744     1.007825032230

  Running in c1 symmetry.

  Rotational constants: A =      0.22933  B =      0.04598  C =      0.04072 [cm^-1]
  Rotational constants: A =   6875.20630  B =   1378.58000  C =   1220.90009 [MHz]
  Nuclear repulsion =  181.186002836460403

  Charge       = 0
  Multiplicity = 1
  Electrons    = 44
  Nalpha       = 22
  Nbeta        = 22

  ==> Algorithm <==

  SCF Algorithm Type is PK.
  DIIS enabled.
  MOM disabled.
  Fractional occupation disabled.
  Guess Type is SAD.
  Energy threshold   = 1.00e-06
  Density threshold  = 1.00e-10
  Integral threshold = 0.00e+00

  ==> Primary Basis <==

  Basis Set: CC-PVDZ
    Blend: CC-PVDZ
    Number of shells: 72
    Number of basis function: 140
    Number of Cartesian functions: 145
    Spherical Harmonics?: true
    Max angular momentum: 2

  ==> Pre-Iterations <==

   -------------------------------------------------------
    Irrep   Nso     Nmo     Nalpha   Nbeta   Ndocc  Nsocc
   -------------------------------------------------------
     A        140     140       0       0       0       0
   -------------------------------------------------------
    Total     140     140      22      22      22       0
   -------------------------------------------------------

  ==> Integral Setup <==

  Using integral reordering PK algorithm.
  Sizing the integral batches needed.
  Building batch lookup table.
   Calculation information:
      Number of atoms:                  19
      Number of AO shells:              72
      Number of primitives:            180
      Number of atomic orbitals:       145
      Number of basis functions:       140

      Integral cutoff                 1.00e-12
      Number of threads:                 1

	Batch   1 pq = [       0,    9405] index = [             0,44231715] size =     44231715
	Batch   2 pq = [    9405,    9870] index = [      44231715,48713385] size =      4481670
  Task number: 5
  Buffer size: 11059200
  Buffer per thread: 2
  We computed 3040705 shell quartets total.
  Whereas there are 3454506 unique shell quartets.

  ==> DiskJK: Disk-Based J/K Matrices <==

    J tasked:                  Yes
    K tasked:                  Yes
    wK tasked:                  No
    Memory [MiB]:              375
    Schwarz Cutoff:          1E-12

    OpenMP threads:              1

  Minimum eigenvalue in the overlap matrix is 5.6308752134E-03.
  Using Symmetric Orthogonalization.

  SCF Guess: Superposition of Atomic Densities via on-the-fly atomic UHF.

  ==> Iterations <==

                        Total Energy        Delta E     RMS |[F,P]|

   @RHF iter SAD:  -196.36249142251035   -1.96362e+02   0.00000e+00
   @RHF iter   1:  -197.31260623734715   -9.50115e-01   3.79534e-03 DIIS
   @RHF iter   2:  -197.47222964572950   -1.59623e-01   1.63162e-03 DIIS
   @RHF iter   3:  -197.50036537389948   -2.81357e-02   3.25028e-04 DIIS
   @RHF iter   4:  -197.50258008794285   -2.21471e-03   4.82737e-05 DIIS
   @RHF iter   5:  -197.50261822259765   -3.81347e-05   1.47970e-05 DIIS
   @RHF iter   6:  -197.50262153300326   -3.31041e-06   2.36170e-06 DIIS
   @RHF iter   7:  -197.50262163620999   -1.03207e-07   4.58076e-07 DIIS
   @RHF iter   8:  -197.50262164064446   -4.43447e-09   1.24243e-07 DIIS
   @RHF iter   9:  -197.50262164095776   -3.13293e-10   3.98511e-08 DIIS
   @RHF iter  10:  -197.50262164099507   -3.73177e-11   8.66082e-09 DIIS
   @RHF iter  11:  -197.50262164099664   -1.56319e-12   1.64060e-09 DIIS
   @RHF iter  12:  -197.50262164099814   -1.50635e-12   3.30863e-10 DIIS
   @RHF iter  13:  -197.50262164099775    3.97904e-13   7.45648e-11 DIIS
  Energy and wave function converged.

  ==> Post-Iterations <==

    Orbital Energies [Eh]
    ---------------------

    Doubly Occupied:

       1A    -11.219647     2A    -11.218026     3A    -11.217422
       4A    -11.217199     5A    -11.215107     6A     -1.049466
       7A     -1.020994     8A     -0.926662     9A     -0.838358
      10A     -0.796424    11A     -0.624687    12A     -0.602094
      13A     -0.599796    14A     -0.587943    15A     -0.550200
      16A     -0.534938    17A     -0.504448    18A     -0.488711
      19A     -0.485775    20A     -0.470453    21A     -0.468731
      22A     -0.463458

    Virtual:

      23A      0.167532    24A      0.201042    25A      0.216486
      26A      0.221409    27A      0.239001    28A      0.244791
      29A      0.260513    30A      0.273920    31A      0.274131
      32A      0.283662    33A      0.300758    34A      0.309927
      35A      0.323050    36A      0.363677    37A      0.377814
      38A      0.411899    39A      0.424908    40A      0.567757
      41A      0.576572    42A      0.591768    43A      0.607907
      44A      0.609945    45A      0.621796    46A      0.646210
      47A      0.666857    48A      0.702506    49A      0.774000
      50A      0.784671    51A      0.834144    52A      0.845195
      53A      0.849134    54A      0.862990    55A      0.884899
      56A      0.894417    57A      0.896555    58A      0.899511
      59A      0.901543    60A      0.905912    61A      0.916693
      62A      0.928738    63A      0.937765    64A      0.946488
      65A      0.975189    66A      0.991097    67A      1.005018
      68A      1.011094    69A      1.124561    70A      1.127648
      71A      1.131702    72A      1.166977    73A      1.243708
      74A      1.260986    75A      1.375978    76A      1.458540
      77A      1.463432    78A      1.475508    79A      1.496722
      80A      1.501057    81A      1.588002    82A      1.645174
      83A      1.668372    84A      1.686262    85A      1.689064
      86A      1.699577    87A      1.709272    88A      1.855228
      89A      1.856386    90A      1.870260    91A      1.878117
      92A      1.881337    93A      1.896623    94A      1.916482
      95A      1.928126    96A      1.931623    97A      1.951697
      98A      1.958471    99A      1.963054   100A      1.966603
     101A      1.974368   102A      1.980985   103A      1.986633
     104A      1.995366   105A      2.006445   106A      2.037378
     107A      2.053467   108A      2.103299   109A      2.125142
     110A      2.128617   111A      2.149737   112A      2.293377
     113A      2.305821   114A      2.310879   115A      2.321041
     116A      2.340012   117A      2.357680   118A      2.451766
     119A      2.468363   120A      2.485689   121A      2.534973
     122A      2.564374   123A      2.579488   124A      2.588043
     125A      2.615706   126A      2.623338   127A      2.760426
     128A      2.762877   129A      2.773521   130A      2.786224
     131A      2.796928   132A      2.843191   133A      2.860999
     134A      2.872804   135A      2.929878   136A      2.951747
     137A      2.975808   138A      2.977308   139A      2.991849
     140A      3.067946

    Final Occupation by Irrep:
              A
    DOCC [    22 ]

  @RHF Final Energy:  -197.50262164099775

   => Energetics <=

    Nuclear Repulsion Energy =            181.1860028364604034
    One-Electron Energy =                -623.1761682781910849
    Two-Electron Energy =                 244.4875438007329649
    Total Energy =                       -197.5026216409977451

Computation Completed

Properties will be evaluated at   0.000000,   0.000000,   0.000000 [a0]

Properties computed using the SCF density matrix

  Nuclear Dipole Moment: [e a0]
     X:    -1.0772      Y:    -0.2774      Z:    -0.3137

  Electronic Dipole Moment: [e a0]
     X:     1.0601      Y:     0.2351      Z:     0.3158

  Dipole Moment: [e a0]
     X:    -0.0170      Y:    -0.0423      Z:     0.0020     Total:     0.0456

  Dipole Moment: [D]
     X:    -0.0432      Y:    -0.1075      Z:     0.0052     Total:     0.1160

*** tstop() called on ds3 at Tue Apr 28 03:26:28 2020
Module time:
	user time   =      16.29 seconds =       0.27 minutes
	system time =       6.91 seconds =       0.12 minutes
	total time  =         22 seconds =       0.37 minutes
Total time:
	user time   =      16.29 seconds =       0.27 minutes
	system time =       6.91 seconds =       0.12 minutes
	total time  =         22 seconds =       0.37 minutes
                                     G D M A

                                 by Anthony Stone

                           version 2.2.06, 22 June 2011

               Distributed Multipoles from Gaussian wavefunctions

Starting at 3:26:28 on 28 Apr 2020

Using SCF density matrix from file ./SSI/SSI-112ILE-142ILE-1-dimer.test.9186.fchk

                         Distributed Multipole Analysis

Standard DMA

Positions and radii in angstrom
Multipole moments in atomic units, ea_0^k for rank k

C          x =  1.407300  y =  0.293770  z =  0.428221 angstrom
           Maximum rank =  0   Radius =  0.650 angstrom
                   Q00  =  -0.068785

C          x =  1.924300  y =  0.984770  z =  1.703221 angstrom
           Maximum rank =  0   Radius =  0.650 angstrom
                   Q00  =  -0.264067

C          x =  0.955300  y =  1.239770  z = -0.688779 angstrom
           Maximum rank =  0   Radius =  0.650 angstrom
                   Q00  =  -0.245976

H          x =  2.173300  y = -0.374230  z =  0.031221 angstrom
           Maximum rank =  0   Radius =  0.325 angstrom
                   Q00  =   0.047371

H          x =  0.564300  y = -0.336230  z =  0.705221 angstrom
           Maximum rank =  0   Radius =  0.325 angstrom
                   Q00  =   0.050515

H          x =  2.216300  y =  0.202770  z =  2.394221 angstrom
           Maximum rank =  0   Radius =  0.325 angstrom
                   Q00  =   0.084199

H          x =  1.783300  y =  1.865770  z = -1.024779 angstrom
           Maximum rank =  0   Radius =  0.325 angstrom
                   Q00  =   0.078444

H          x =  0.611300  y =  0.648770  z = -1.536779 angstrom
           Maximum rank =  0   Radius =  0.325 angstrom
                   Q00  =   0.084268

H          x =  0.133300  y =  1.869770  z = -0.349779 angstrom
           Maximum rank =  0   Radius =  0.325 angstrom
                   Q00  =   0.076577

H          x =  2.802000  y =  1.613230  z =  1.491831 angstrom
           Maximum rank =  0   Radius =  0.325 angstrom
                   Q00  =   0.078297

H          x =  1.136920  y =  1.573510  z =  2.196591 angstrom
           Maximum rank =  0   Radius =  0.325 angstrom
                   Q00  =   0.078497

C          x = -2.048700  y = -1.286230  z =  0.051221 angstrom
           Maximum rank =  0   Radius =  0.650 angstrom
                   Q00  =  -0.234690

C          x = -2.141700  y = -1.207230  z = -1.465779 angstrom
           Maximum rank =  0   Radius =  0.650 angstrom
                   Q00  =  -0.237413

H          x = -1.244700  y = -1.953230  z =  0.359221 angstrom
           Maximum rank =  0   Radius =  0.325 angstrom
                   Q00  =   0.078715

H          x = -1.850700  y = -0.291230  z =  0.450221 angstrom
           Maximum rank =  0   Radius =  0.325 angstrom
                   Q00  =   0.078185

H          x = -2.991700  y = -1.644230  z =  0.466221 angstrom
           Maximum rank =  0   Radius =  0.325 angstrom
                   Q00  =   0.078940

H          x = -1.172700  y = -0.912230  z = -1.868779 angstrom
           Maximum rank =  0   Radius =  0.325 angstrom
                   Q00  =   0.079668

H          x = -2.845700  y = -0.412230  z = -1.709779 angstrom
           Maximum rank =  0   Radius =  0.325 angstrom
                   Q00  =   0.076100

H          x = -2.464220  y = -2.146130  z = -1.939529 angstrom
           Maximum rank =  0   Radius =  0.325 angstrom
                   Q00  =   0.081154

Total multipoles referred to origin at
           x =   0.000000,  y =    0.000000,  z =    0.000000 angstrom
                   Q00  =  -0.000000

Finished at 3:26:28 on 28 Apr 2020

  DMA results are available in the Python driver through the
	  variable('DMA DISTRIBUTED MULTIPOLES')
  and
	  variable('DMA TOTAL MULTIPOLES')
  commands.

    Psi4 stopped on: Tuesday, 28 April 2020 03:26AM
    Psi4 wall time for execution: 0:00:22.40

*** Psi4 exiting successfully. Buy a developer a beer!
