                               Psi4 1.3.2 release

  ==> Input File <==

--------------------------------------------------------------------------
import numpy as np
set {scf_type pk
basis cc-pvdz
d_convergence 10
gdma_switch   0
gdma_limit    0
gdma_origin   [ 0.0,  0.0,  0.0 ]
}
molecule test {
    units Angstrom
    0 1
    --
    0 1
    C               -0.697987591347671     3.324611633818204     0.122847639412040
    C               -1.443987591347671     4.548611633818203    -0.394152360587960
    H                0.206012408652329     3.153611633818204    -0.455152360587960
    H               -0.416987591347671     3.492611633818204     1.160847639412040
    H               -1.343987591347671     2.449611633818204     0.054847639412040
    H               -0.781987591347671     5.409611633818203    -0.351152360587960
    H               -1.767007591347670     4.364439633818203    -1.429400360587960
    H               -2.320727591347671     4.753928633818203     0.237647639412040
    C                2.258012408652329     0.252611633818204     0.118847639412040
    C               -0.168987591347671    -0.290388366181796     0.547847639412040
    C                1.086012408652329    -0.693388366181796     0.086847639412040
    C               -1.260987591347670    -1.163388366181797     0.488847639412040
    C                1.238012408652329    -1.983388366181796    -0.428152360587960
    C               -1.100987591347671    -2.447388366181796    -0.031152360587960
    C                0.152012408652329    -2.858388366181796    -0.491152360587960
    H               -0.294987591347671     0.693611633818204     0.971847639412040
    H               -2.229987591347671    -0.855388366181796     0.849847639412040
    H                3.137012408652329    -0.326388366181796     0.398847639412040
    H                2.102012408652330     0.998611633818204     0.893847639412040
    H                2.201012408652329    -2.318388366181796    -0.771152360587960
    H               -1.944987591347671    -3.123388366181796    -0.077152360587960
    H                0.285012408652329    -3.851388366181796    -0.891152360587960
    H                2.441952408652329     0.762746733818204    -0.838194360587960

}
e, wfn = energy('scf', return_wfn=True)
gdma(wfn)
dmavals = variable('DMA DISTRIBUTED MULTIPOLES')
charges = np.array(dmavals)
print(charges)
np.save('SSI-082LEU-176PHE-1-dimer.npy', np.array(charges))--------------------------------------------------------------------------

*** tstart() called on ds3
*** at Mon Apr 27 22:36:08 2020

   => Loading Basis Set <=

    Name: CC-PVDZ
    Role: ORBITAL
    Keyword: BASIS
    atoms 1-2, 9-15  entry C          line   138 file /theoryfs2/ds/metcalf/miniconda2/envs/tf2gpu/share/psi4/basis/cc-pvdz.gbs
    atoms 3-8, 16-23 entry H          line    22 file /theoryfs2/ds/metcalf/miniconda2/envs/tf2gpu/share/psi4/basis/cc-pvdz.gbs

         ---------------------------------------------------------
                                   SCF
               by Justin Turney, Rob Parrish, Andy Simmonett
                          and Daniel G. A. Smith
                              RHF Reference
                        1 Threads,    500 MiB Core
         ---------------------------------------------------------

  ==> Geometry <==

    Molecular point group: c1
    Full point group: C1

    Geometry (in Angstrom), charge = 0, multiplicity = 1:

       Center              X                  Y                   Z               Mass
    ------------   -----------------  -----------------  -----------------  -----------------
         C           -0.697987591348     3.324611633818     0.122847639412    12.000000000000
         C           -1.443987591348     4.548611633818    -0.394152360588    12.000000000000
         H            0.206012408652     3.153611633818    -0.455152360588     1.007825032230
         H           -0.416987591348     3.492611633818     1.160847639412     1.007825032230
         H           -1.343987591348     2.449611633818     0.054847639412     1.007825032230
         H           -0.781987591348     5.409611633818    -0.351152360588     1.007825032230
         H           -1.767007591348     4.364439633818    -1.429400360588     1.007825032230
         H           -2.320727591348     4.753928633818     0.237647639412     1.007825032230
         C            2.258012408652     0.252611633818     0.118847639412    12.000000000000
         C           -0.168987591348    -0.290388366182     0.547847639412    12.000000000000
         C            1.086012408652    -0.693388366182     0.086847639412    12.000000000000
         C           -1.260987591348    -1.163388366182     0.488847639412    12.000000000000
         C            1.238012408652    -1.983388366182    -0.428152360588    12.000000000000
         C           -1.100987591348    -2.447388366182    -0.031152360588    12.000000000000
         C            0.152012408652    -2.858388366182    -0.491152360588    12.000000000000
         H           -0.294987591348     0.693611633818     0.971847639412     1.007825032230
         H           -2.229987591348    -0.855388366182     0.849847639412     1.007825032230
         H            3.137012408652    -0.326388366182     0.398847639412     1.007825032230
         H            2.102012408652     0.998611633818     0.893847639412     1.007825032230
         H            2.201012408652    -2.318388366182    -0.771152360588     1.007825032230
         H           -1.944987591348    -3.123388366182    -0.077152360588     1.007825032230
         H            0.285012408652    -3.851388366182    -0.891152360588     1.007825032230
         H            2.441952408652     0.762746733818    -0.838194360588     1.007825032230

  Running in c1 symmetry.

  Rotational constants: A =      0.08288  B =      0.02106  C =      0.01757 [cm^-1]
  Rotational constants: A =   2484.61808  B =    631.42798  C =    526.79626 [MHz]
  Nuclear repulsion =  400.429639973877670

  Charge       = 0
  Multiplicity = 1
  Electrons    = 68
  Nalpha       = 34
  Nbeta        = 34

  ==> Algorithm <==

  SCF Algorithm Type is PK.
  DIIS enabled.
  MOM disabled.
  Fractional occupation disabled.
  Guess Type is SAD.
  Energy threshold   = 1.00e-06
  Density threshold  = 1.00e-10
  Integral threshold = 0.00e+00

  ==> Primary Basis <==

  Basis Set: CC-PVDZ
    Blend: CC-PVDZ
    Number of shells: 96
    Number of basis function: 196
    Number of Cartesian functions: 205
    Spherical Harmonics?: true
    Max angular momentum: 2

  ==> Pre-Iterations <==

   -------------------------------------------------------
    Irrep   Nso     Nmo     Nalpha   Nbeta   Ndocc  Nsocc
   -------------------------------------------------------
     A        196     196       0       0       0       0
   -------------------------------------------------------
    Total     196     196      34      34      34       0
   -------------------------------------------------------

  ==> Integral Setup <==

  Using integral reordering PK algorithm.
  Sizing the integral batches needed.
  Building batch lookup table.
   Calculation information:
      Number of atoms:                  23
      Number of AO shells:              96
      Number of primitives:            268
      Number of atomic orbitals:       205
      Number of basis functions:       196

      Integral cutoff                 1.00e-12
      Number of threads:                 1

	Batch   1 pq = [       0,    9405] index = [             0,44231715] size =     44231715
	Batch   2 pq = [    9405,   13301] index = [      44231715,88464951] size =     44233236
	Batch   3 pq = [   13301,   16290] index = [      88464951,132690195] size =     44225244
	Batch   4 pq = [   16290,   18810] index = [     132690195,176917455] size =     44227260
	Batch   5 pq = [   18810,   19306] index = [     176917455,186370471] size =      9453016
  Task number: 17
  Buffer size: 11059200
  Buffer per thread: 2
  We computed 8765991 shell quartets total.
  Whereas there are 10841496 unique shell quartets.

  ==> DiskJK: Disk-Based J/K Matrices <==

    J tasked:                  Yes
    K tasked:                  Yes
    wK tasked:                  No
    Memory [MiB]:              375
    Schwarz Cutoff:          1E-12

    OpenMP threads:              1

  Minimum eigenvalue in the overlap matrix is 3.1055916570E-04.
  Using Symmetric Orthogonalization.

  SCF Guess: Superposition of Atomic Densities via on-the-fly atomic UHF.

  ==> Iterations <==

                        Total Energy        Delta E     RMS |[F,P]|

   @RHF iter SAD:  -347.85008440986820   -3.47850e+02   0.00000e+00
   @RHF iter   1:  -348.76797412316824   -9.17890e-01   2.88613e-03 DIIS
   @RHF iter   2:  -348.95997886264138   -1.92005e-01   1.19005e-03 DIIS
   @RHF iter   3:  -348.98971407642381   -2.97352e-02   2.58810e-04 DIIS
   @RHF iter   4:  -348.99220040877975   -2.48633e-03   5.30266e-05 DIIS
   @RHF iter   5:  -348.99227436443573   -7.39557e-05   1.81184e-05 DIIS
   @RHF iter   6:  -348.99228240454227   -8.04011e-06   4.87271e-06 DIIS
   @RHF iter   7:  -348.99228308548220   -6.80940e-07   1.26868e-06 DIIS
   @RHF iter   8:  -348.99228314185314   -5.63709e-08   3.40343e-07 DIIS
   @RHF iter   9:  -348.99228314992649   -8.07336e-09   1.59381e-07 DIIS
   @RHF iter  10:  -348.99228315195757   -2.03107e-09   7.57594e-08 DIIS
   @RHF iter  11:  -348.99228315269795   -7.40386e-10   2.81160e-08 DIIS
   @RHF iter  12:  -348.99228315278327   -8.53220e-11   1.21889e-08 DIIS
   @RHF iter  13:  -348.99228315279441   -1.11413e-11   4.33921e-09 DIIS
   @RHF iter  14:  -348.99228315279430    1.13687e-13   1.25212e-09 DIIS
   @RHF iter  15:  -348.99228315279385    4.54747e-13   4.79247e-10 DIIS
   @RHF iter  16:  -348.99228315279316    6.82121e-13   1.99850e-10 DIIS
   @RHF iter  17:  -348.99228315279299    1.70530e-13   7.81218e-11 DIIS
  Energy and wave function converged.

  ==> Post-Iterations <==

    Orbital Energies [Eh]
    ---------------------

    Doubly Occupied:

       1A    -11.239924     2A    -11.235253     3A    -11.235087
       4A    -11.231248     5A    -11.229623     6A    -11.229271
       7A    -11.228012     8A    -11.219499     9A    -11.217372
      10A     -1.148850    11A     -1.042225    12A     -1.021897
      13A     -1.008793    14A     -0.929751    15A     -0.838480
      16A     -0.823205    17A     -0.793407    18A     -0.689092
      19A     -0.630790    20A     -0.628588    21A     -0.603335
      22A     -0.599551    23A     -0.581152    24A     -0.576655
      25A     -0.560487    26A     -0.534276    27A     -0.502860
      28A     -0.489977    29A     -0.486457    30A     -0.484995
      31A     -0.481146    32A     -0.478038    33A     -0.329627
      34A     -0.320310

    Virtual:

      35A      0.135859    36A      0.140069    37A      0.175506
      38A      0.193427    39A      0.197255    40A      0.215815
      41A      0.234052    42A      0.239116    43A      0.252703
      44A      0.266308    45A      0.268051    46A      0.281685
      47A      0.283269    48A      0.296499    49A      0.302622
      50A      0.314099    51A      0.361304    52A      0.380690
      53A      0.411519    54A      0.454195    55A      0.463024
      56A      0.479804    57A      0.500359    58A      0.560318
      59A      0.593850    60A      0.598147    61A      0.602901
      62A      0.619166    63A      0.664396    64A      0.672032
      65A      0.683383    66A      0.689545    67A      0.700785
      68A      0.711248    69A      0.721945    70A      0.741059
      71A      0.743510    72A      0.745967    73A      0.753775
      74A      0.766331    75A      0.776954    76A      0.791402
      77A      0.836993    78A      0.845939    79A      0.863832
      80A      0.872021    81A      0.878220    82A      0.889512
      83A      0.892342    84A      0.894473    85A      0.898282
      86A      0.899414    87A      0.905476    88A      0.915731
      89A      0.940099    90A      0.947571    91A      0.961113
      92A      0.970804    93A      0.994419    94A      1.002162
      95A      1.040547    96A      1.056855    97A      1.119028
      98A      1.122637    99A      1.133643   100A      1.148633
     101A      1.151955   102A      1.156536   103A      1.190130
     104A      1.224510   105A      1.239842   106A      1.245919
     107A      1.253006   108A      1.271106   109A      1.301272
     110A      1.308399   111A      1.324957   112A      1.326736
     113A      1.415887   114A      1.475154   115A      1.476377
     116A      1.520096   117A      1.522229   118A      1.562088
     119A      1.585142   120A      1.611752   121A      1.677098
     122A      1.680901   123A      1.691436   124A      1.702251
     125A      1.733761   126A      1.745744   127A      1.757271
     128A      1.787057   129A      1.808335   130A      1.857138
     131A      1.863483   132A      1.867797   133A      1.883105
     134A      1.898455   135A      1.902723   136A      1.911956
     137A      1.922113   138A      1.928121   139A      1.939450
     140A      1.941695   141A      1.944916   142A      1.948957
     143A      1.955461   144A      1.961509   145A      1.977484
     146A      1.992801   147A      2.003869   148A      2.027836
     149A      2.051198   150A      2.068169   151A      2.076678
     152A      2.094871   153A      2.114683   154A      2.120256
     155A      2.145046   156A      2.156836   157A      2.160344
     158A      2.174013   159A      2.183592   160A      2.254922
     161A      2.281404   162A      2.291898   163A      2.299538
     164A      2.301798   165A      2.317579   166A      2.326721
     167A      2.359582   168A      2.461310   169A      2.464665
     170A      2.468571   171A      2.486330   172A      2.504536
     173A      2.535670   174A      2.561944   175A      2.580828
     176A      2.628926   177A      2.740148   178A      2.753372
     179A      2.763656   180A      2.774997   181A      2.786124
     182A      2.793869   183A      2.824071   184A      2.841908
     185A      2.853506   186A      2.859767   187A      2.877387
     188A      2.950243   189A      2.966977   190A      2.979897
     191A      3.003490   192A      3.027075   193A      3.150962
     194A      3.196718   195A      3.297449   196A      3.957763

    Final Occupation by Irrep:
              A
    DOCC [    34 ]

  @RHF Final Energy:  -348.99228315279299

   => Energetics <=

    Nuclear Repulsion Energy =            400.4296399738776699
    One-Electron Energy =               -1263.5453760055661405
    Two-Electron Energy =                 514.1234528788954776
    Total Energy =                       -348.9922831527929930

Computation Completed

Properties will be evaluated at   0.000000,   0.000000,   0.000000 [a0]

Properties computed using the SCF density matrix

  Nuclear Dipole Moment: [e a0]
     X:    -0.6821      Y:    14.6281      Z:    -0.2303

  Electronic Dipole Moment: [e a0]
     X:     0.7822      Y:   -14.5377      Z:     0.2289

  Dipole Moment: [e a0]
     X:     0.1001      Y:     0.0904      Z:    -0.0014     Total:     0.1349

  Dipole Moment: [D]
     X:     0.2544      Y:     0.2298      Z:    -0.0034     Total:     0.3428

*** tstop() called on ds3 at Mon Apr 27 22:37:57 2020
Module time:
	user time   =      63.74 seconds =       1.06 minutes
	system time =      29.08 seconds =       0.48 minutes
	total time  =        109 seconds =       1.82 minutes
Total time:
	user time   =      63.74 seconds =       1.06 minutes
	system time =      29.08 seconds =       0.48 minutes
	total time  =        109 seconds =       1.82 minutes
                                     G D M A

                                 by Anthony Stone

                           version 2.2.06, 22 June 2011

               Distributed Multipoles from Gaussian wavefunctions

Starting at 22:37:57 on 27 Apr 2020

Using SCF density matrix from file ./SSI/SSI-082LEU-176PHE-1-dimer.test.31420.fchk

                         Distributed Multipole Analysis

Standard DMA

Positions and radii in angstrom
Multipole moments in atomic units, ea_0^k for rank k

C          x = -0.697988  y =  3.324612  z =  0.122848 angstrom
           Maximum rank =  0   Radius =  0.650 angstrom
                   Q00  =  -0.243633

C          x = -1.443988  y =  4.548612  z = -0.394152 angstrom
           Maximum rank =  0   Radius =  0.650 angstrom
                   Q00  =  -0.228714

H          x =  0.206012  y =  3.153612  z = -0.455152 angstrom
           Maximum rank =  0   Radius =  0.325 angstrom
                   Q00  =   0.082723

H          x = -0.416988  y =  3.492612  z =  1.160848 angstrom
           Maximum rank =  0   Radius =  0.325 angstrom
                   Q00  =   0.074703

H          x = -1.343988  y =  2.449612  z =  0.054848 angstrom
           Maximum rank =  0   Radius =  0.325 angstrom
                   Q00  =   0.079864

H          x = -0.781988  y =  5.409612  z = -0.351152 angstrom
           Maximum rank =  0   Radius =  0.325 angstrom
                   Q00  =   0.080029

H          x = -1.767008  y =  4.364440  z = -1.429400 angstrom
           Maximum rank =  0   Radius =  0.325 angstrom
                   Q00  =   0.080276

H          x = -2.320728  y =  4.753929  z =  0.237648 angstrom
           Maximum rank =  0   Radius =  0.325 angstrom
                   Q00  =   0.078268

C          x =  2.258012  y =  0.252612  z =  0.118848 angstrom
           Maximum rank =  0   Radius =  0.650 angstrom
                   Q00  =  -0.204788

C          x = -0.168988  y = -0.290388  z =  0.547848 angstrom
           Maximum rank =  0   Radius =  0.650 angstrom
                   Q00  =  -0.054750

C          x =  1.086012  y = -0.693388  z =  0.086848 angstrom
           Maximum rank =  0   Radius =  0.650 angstrom
                   Q00  =  -0.098101

C          x = -1.260988  y = -1.163388  z =  0.488848 angstrom
           Maximum rank =  0   Radius =  0.650 angstrom
                   Q00  =  -0.079714

C          x =  1.238012  y = -1.983388  z = -0.428152 angstrom
           Maximum rank =  0   Radius =  0.650 angstrom
                   Q00  =  -0.019263

C          x = -1.100988  y = -2.447388  z = -0.031152 angstrom
           Maximum rank =  0   Radius =  0.650 angstrom
                   Q00  =  -0.088631

C          x =  0.152012  y = -2.858388  z = -0.491152 angstrom
           Maximum rank =  0   Radius =  0.650 angstrom
                   Q00  =  -0.069158

H          x = -0.294988  y =  0.693612  z =  0.971848 angstrom
           Maximum rank =  0   Radius =  0.325 angstrom
                   Q00  =   0.062660

H          x = -2.229988  y = -0.855388  z =  0.849848 angstrom
           Maximum rank =  0   Radius =  0.325 angstrom
                   Q00  =   0.063777

H          x =  3.137012  y = -0.326388  z =  0.398848 angstrom
           Maximum rank =  0   Radius =  0.325 angstrom
                   Q00  =   0.097035

H          x =  2.102012  y =  0.998612  z =  0.893848 angstrom
           Maximum rank =  0   Radius =  0.325 angstrom
                   Q00  =   0.099174

H          x =  2.201012  y = -2.318388  z = -0.771152 angstrom
           Maximum rank =  0   Radius =  0.325 angstrom
                   Q00  =   0.055519

H          x = -1.944988  y = -3.123388  z = -0.077152 angstrom
           Maximum rank =  0   Radius =  0.325 angstrom
                   Q00  =   0.061716

H          x =  0.285012  y = -3.851388  z = -0.891152 angstrom
           Maximum rank =  0   Radius =  0.325 angstrom
                   Q00  =   0.065343

H          x =  2.441952  y =  0.762747  z = -0.838194 angstrom
           Maximum rank =  0   Radius =  0.325 angstrom
                   Q00  =   0.105662

Total multipoles referred to origin at
           x =   0.000000,  y =    0.000000,  z =    0.000000 angstrom
                   Q00  =  -0.000000

Finished at 22:37:57 on 27 Apr 2020

  DMA results are available in the Python driver through the
	  variable('DMA DISTRIBUTED MULTIPOLES')
  and
	  variable('DMA TOTAL MULTIPOLES')
  commands.

    Psi4 stopped on: Monday, 27 April 2020 10:37PM
    Psi4 wall time for execution: 0:01:48.92

*** Psi4 exiting successfully. Buy a developer a beer!
