                               Psi4 1.3.2 release

  ==> Input File <==

--------------------------------------------------------------------------
import numpy as np
set {scf_type pk
basis cc-pvdz
d_convergence 10
gdma_switch   0
gdma_limit    0
gdma_origin   [ 0.0,  0.0,  0.0 ]
}
molecule test {
    units Angstrom
    0 1
    --
    0 1
    C                3.305153938934353    -1.871714186566937     0.235599527676695
    C                4.773153938934353    -1.706714186566937     0.630599527676695
    H                3.124153938934353    -2.849714186566938    -0.208400472323305
    H                2.686153938934353    -1.781714186566937     1.128599527676695
    H                3.007153938934353    -1.090714186566937    -0.464400472323305
    H                4.877153938934352    -0.748714186566937     1.139599527676695
    H                5.425223938934352    -1.694599186566937    -0.255212472323305
    H                5.079483938934353    -2.491242186566937     1.338184527676695
    C               -0.418846061065647     3.299285813433062    -0.591400472323305
    C               -0.133846061065647    -0.470714186566937    -0.217400472323305
    C               -1.442846061065647    -0.815714186566937     0.100599527676695
    C                0.197153938934353     0.861285813433063    -0.442400472323305
    C               -0.774846061065647     1.856285813433063    -0.356400472323305
    C               -2.418846061065647     0.167285813433063     0.189599527676695
    C               -2.083846061065647     1.495285813433063    -0.047400472323305
    O               -1.763846061065647    -2.121714186566938     0.322599527676695
    H                0.614153938934353    -1.244714186566937    -0.283400472323305
    H                1.219153938934353     1.127285813433063    -0.682400472323305
    H               -3.437846061065647    -0.097714186566937     0.437599527676695
    H               -2.700846061065647    -2.232714186566938     0.518599527676695
    H                0.588153938934353     3.482285813433063    -0.215400472323305
    H               -1.100846061065647     3.920285813433062    -0.007400472323305
    H               -2.850846061065647     2.257285813433063     0.017599527676695
    H               -0.472116061065647     3.605210813433062    -1.646660072323305

}
e, wfn = energy('scf', return_wfn=True)
gdma(wfn)
dmavals = variable('DMA DISTRIBUTED MULTIPOLES')
charges = np.array(dmavals)
print(charges)
np.save('SSI-020VAL-029TYR-1-dimer.npy', np.array(charges))--------------------------------------------------------------------------

*** tstart() called on ds3
*** at Tue Apr 28 20:35:21 2020

   => Loading Basis Set <=

    Name: CC-PVDZ
    Role: ORBITAL
    Keyword: BASIS
    atoms 1-2, 9-15  entry C          line   138 file /theoryfs2/ds/metcalf/miniconda2/envs/tf2gpu/share/psi4/basis/cc-pvdz.gbs
    atoms 3-8, 17-24 entry H          line    22 file /theoryfs2/ds/metcalf/miniconda2/envs/tf2gpu/share/psi4/basis/cc-pvdz.gbs
    atoms 16         entry O          line   198 file /theoryfs2/ds/metcalf/miniconda2/envs/tf2gpu/share/psi4/basis/cc-pvdz.gbs

         ---------------------------------------------------------
                                   SCF
               by Justin Turney, Rob Parrish, Andy Simmonett
                          and Daniel G. A. Smith
                              RHF Reference
                        1 Threads,    500 MiB Core
         ---------------------------------------------------------

  ==> Geometry <==

    Molecular point group: c1
    Full point group: C1

    Geometry (in Angstrom), charge = 0, multiplicity = 1:

       Center              X                  Y                   Z               Mass
    ------------   -----------------  -----------------  -----------------  -----------------
         C            3.305153938934    -1.871714186567     0.235599527677    12.000000000000
         C            4.773153938934    -1.706714186567     0.630599527677    12.000000000000
         H            3.124153938934    -2.849714186567    -0.208400472323     1.007825032230
         H            2.686153938934    -1.781714186567     1.128599527677     1.007825032230
         H            3.007153938934    -1.090714186567    -0.464400472323     1.007825032230
         H            4.877153938934    -0.748714186567     1.139599527677     1.007825032230
         H            5.425223938934    -1.694599186567    -0.255212472323     1.007825032230
         H            5.079483938934    -2.491242186567     1.338184527677     1.007825032230
         C           -0.418846061066     3.299285813433    -0.591400472323    12.000000000000
         C           -0.133846061066    -0.470714186567    -0.217400472323    12.000000000000
         C           -1.442846061066    -0.815714186567     0.100599527677    12.000000000000
         C            0.197153938934     0.861285813433    -0.442400472323    12.000000000000
         C           -0.774846061066     1.856285813433    -0.356400472323    12.000000000000
         C           -2.418846061066     0.167285813433     0.189599527677    12.000000000000
         C           -2.083846061066     1.495285813433    -0.047400472323    12.000000000000
         O           -1.763846061066    -2.121714186567     0.322599527677    15.994914619570
         H            0.614153938934    -1.244714186567    -0.283400472323     1.007825032230
         H            1.219153938934     1.127285813433    -0.682400472323     1.007825032230
         H           -3.437846061066    -0.097714186567     0.437599527677     1.007825032230
         H           -2.700846061066    -2.232714186567     0.518599527677     1.007825032230
         H            0.588153938934     3.482285813433    -0.215400472323     1.007825032230
         H           -1.100846061066     3.920285813433    -0.007400472323     1.007825032230
         H           -2.850846061066     2.257285813433     0.017599527677     1.007825032230
         H           -0.472116061066     3.605210813433    -1.646660072323     1.007825032230

  Running in c1 symmetry.

  Rotational constants: A =      0.04836  B =      0.01917  C =      0.01397 [cm^-1]
  Rotational constants: A =   1449.92671  B =    574.79989  C =    418.86368 [MHz]
  Nuclear repulsion =  482.543506706049129

  Charge       = 0
  Multiplicity = 1
  Electrons    = 76
  Nalpha       = 38
  Nbeta        = 38

  ==> Algorithm <==

  SCF Algorithm Type is PK.
  DIIS enabled.
  MOM disabled.
  Fractional occupation disabled.
  Guess Type is SAD.
  Energy threshold   = 1.00e-06
  Density threshold  = 1.00e-10
  Integral threshold = 0.00e+00

  ==> Primary Basis <==

  Basis Set: CC-PVDZ
    Blend: CC-PVDZ
    Number of shells: 102
    Number of basis function: 210
    Number of Cartesian functions: 220
    Spherical Harmonics?: true
    Max angular momentum: 2

  ==> Pre-Iterations <==

   -------------------------------------------------------
    Irrep   Nso     Nmo     Nalpha   Nbeta   Ndocc  Nsocc
   -------------------------------------------------------
     A        210     210       0       0       0       0
   -------------------------------------------------------
    Total     210     210      38      38      38       0
   -------------------------------------------------------

  ==> Integral Setup <==

  Using integral reordering PK algorithm.
  Sizing the integral batches needed.
  Building batch lookup table.
   Calculation information:
      Number of atoms:                  24
      Number of AO shells:             102
      Number of primitives:            290
      Number of atomic orbitals:       220
      Number of basis functions:       210

      Integral cutoff                 1.00e-12
      Number of threads:                 1

	Batch   1 pq = [       0,    9405] index = [             0,44231715] size =     44231715
	Batch   2 pq = [    9405,   13301] index = [      44231715,88464951] size =     44233236
	Batch   3 pq = [   13301,   16290] index = [      88464951,132690195] size =     44225244
	Batch   4 pq = [   16290,   18810] index = [     132690195,176917455] size =     44227260
	Batch   5 pq = [   18810,   21030] index = [     176917455,221140965] size =     44223510
	Batch   6 pq = [   21030,   22155] index = [     221140965,245433090] size =     24292125
  Task number: 23
  Buffer size: 11059200
  Buffer per thread: 2
  We computed 10240012 shell quartets total.
  Whereas there are 13799631 unique shell quartets.

  ==> DiskJK: Disk-Based J/K Matrices <==

    J tasked:                  Yes
    K tasked:                  Yes
    wK tasked:                  No
    Memory [MiB]:              375
    Schwarz Cutoff:          1E-12

    OpenMP threads:              1

  Minimum eigenvalue in the overlap matrix is 3.1662348555E-04.
  Using Symmetric Orthogonalization.

  SCF Guess: Superposition of Atomic Densities via on-the-fly atomic UHF.

  ==> Iterations <==

                        Total Energy        Delta E     RMS |[F,P]|

   @RHF iter SAD:  -422.71000149282236   -4.22710e+02   0.00000e+00
   @RHF iter   1:  -423.60146376539149   -8.91462e-01   2.98455e-03 DIIS
   @RHF iter   2:  -423.81887475437304   -2.17411e-01   1.26055e-03 DIIS
   @RHF iter   3:  -423.85398635031106   -3.51116e-02   2.85266e-04 DIIS
   @RHF iter   4:  -423.85687986220552   -2.89351e-03   1.17976e-04 DIIS
   @RHF iter   5:  -423.85723872480139   -3.58863e-04   2.08386e-05 DIIS
   @RHF iter   6:  -423.85725633528125   -1.76105e-05   6.35187e-06 DIIS
   @RHF iter   7:  -423.85725796725558   -1.63197e-06   2.04908e-06 DIIS
   @RHF iter   8:  -423.85725818611957   -2.18864e-07   7.58554e-07 DIIS
   @RHF iter   9:  -423.85725822139426   -3.52747e-08   2.98072e-07 DIIS
   @RHF iter  10:  -423.85725822784701   -6.45275e-09   1.21814e-07 DIIS
   @RHF iter  11:  -423.85725822978304   -1.93603e-09   5.51508e-08 DIIS
   @RHF iter  12:  -423.85725823016850   -3.85455e-10   2.61578e-08 DIIS
   @RHF iter  13:  -423.85725823023654   -6.80416e-11   8.17887e-09 DIIS
   @RHF iter  14:  -423.85725823024131   -4.77485e-12   2.13906e-09 DIIS
   @RHF iter  15:  -423.85725823024291   -1.59162e-12   7.86942e-10 DIIS
   @RHF iter  16:  -423.85725823024598   -3.06954e-12   3.08051e-10 DIIS
   @RHF iter  17:  -423.85725823024092    5.05906e-12   1.44849e-10 DIIS
   @RHF iter  18:  -423.85725823024029    6.25278e-13   7.33137e-11 DIIS
  Energy and wave function converged.

  ==> Post-Iterations <==

    Orbital Energies [Eh]
    ---------------------

    Doubly Occupied:

       1A    -20.581771     2A    -11.297116     3A    -11.237234
       4A    -11.236796     5A    -11.231565     6A    -11.231381
       7A    -11.227556     8A    -11.226942     9A    -11.218883
      10A    -11.216530    11A     -1.398278    12A     -1.150835
      13A     -1.036960    14A     -1.018566    15A     -1.016497
      16A     -0.925126    17A     -0.843840    18A     -0.837376
      19A     -0.800846    20A     -0.730802    21A     -0.667729
      22A     -0.640280    23A     -0.605080    24A     -0.598387
      25A     -0.596170    26A     -0.585650    27A     -0.585560
      28A     -0.569767    29A     -0.566495    30A     -0.524821
      31A     -0.501752    32A     -0.496857    33A     -0.487055
      34A     -0.484262    35A     -0.481270    36A     -0.466633
      37A     -0.338155    38A     -0.300595

    Virtual:

      39A      0.131579    40A      0.156975    41A      0.176880
      42A      0.180792    43A      0.193622    44A      0.215151
      45A      0.222212    46A      0.235574    47A      0.255726
      48A      0.261622    49A      0.265148    50A      0.276465
      51A      0.286657    52A      0.291136    53A      0.304947
      54A      0.322229    55A      0.376581    56A      0.388505
      57A      0.412125    58A      0.435402    59A      0.457517
      60A      0.487859    61A      0.504747    62A      0.509195
      63A      0.596960    64A      0.598035    65A      0.612445
      66A      0.636200    67A      0.638404    68A      0.657456
      69A      0.668940    70A      0.677783    71A      0.679726
      72A      0.695798    73A      0.708321    74A      0.712714
      75A      0.730615    76A      0.741281    77A      0.766326
      78A      0.773977    79A      0.777053    80A      0.793059
      81A      0.795210    82A      0.836313    83A      0.849827
      84A      0.854371    85A      0.876785    86A      0.879757
      87A      0.889038    88A      0.893232    89A      0.894074
      90A      0.897353    91A      0.903254    92A      0.917117
      93A      0.924425    94A      0.928810    95A      0.937397
      96A      0.941483    97A      0.947526    98A      0.974965
      99A      0.984607   100A      1.029798   101A      1.050067
     102A      1.064246   103A      1.107067   104A      1.126063
     105A      1.141996   106A      1.145670   107A      1.150062
     108A      1.183383   109A      1.218510   110A      1.243162
     111A      1.253669   112A      1.259575   113A      1.282276
     114A      1.287659   115A      1.302016   116A      1.313433
     117A      1.324311   118A      1.364509   119A      1.379686
     120A      1.400701   121A      1.470289   122A      1.478689
     123A      1.485474   124A      1.507525   125A      1.533948
     126A      1.555732   127A      1.586789   128A      1.615691
     129A      1.621775   130A      1.682189   131A      1.685750
     132A      1.694870   133A      1.708279   134A      1.733464
     135A      1.750021   136A      1.781389   137A      1.803937
     138A      1.808125   139A      1.859974   140A      1.870885
     141A      1.877701   142A      1.887402   143A      1.900435
     144A      1.904409   145A      1.908199   146A      1.919360
     147A      1.922252   148A      1.940917   149A      1.946346
     150A      1.951442   151A      1.952862   152A      1.961091
     153A      1.968093   154A      1.974274   155A      1.986138
     156A      2.024291   157A      2.047270   158A      2.050930
     159A      2.060989   160A      2.069179   161A      2.085299
     162A      2.091532   163A      2.115588   164A      2.148001
     165A      2.160293   166A      2.167601   167A      2.215068
     168A      2.233595   169A      2.271307   170A      2.279795
     171A      2.296678   172A      2.307242   173A      2.317684
     174A      2.346938   175A      2.373874   176A      2.430621
     177A      2.453921   178A      2.459895   179A      2.471061
     180A      2.476229   181A      2.489313   182A      2.541025
     183A      2.542575   184A      2.559583   185A      2.572736
     186A      2.605168   187A      2.647937   188A      2.757409
     189A      2.761960   190A      2.774714   191A      2.786846
     192A      2.793444   193A      2.825248   194A      2.846664
     195A      2.849298   196A      2.867449   197A      2.903869
     198A      2.954533   199A      2.954835   200A      2.966865
     201A      3.005141   202A      3.094748   203A      3.113229
     204A      3.251441   205A      3.288238   206A      3.348004
     207A      3.578834   208A      3.677803   209A      3.977048
     210A      4.193918

    Final Occupation by Irrep:
              A
    DOCC [    38 ]

  @RHF Final Energy:  -423.85725823024029

   => Energetics <=

    Nuclear Repulsion Energy =            482.5435067060491292
    One-Electron Energy =               -1530.8786911225611220
    Two-Electron Energy =                 624.4779261862717021
    Total Energy =                       -423.8572582302402907

Computation Completed

Properties will be evaluated at   0.000000,   0.000000,   0.000000 [a0]

Properties computed using the SCF density matrix

  Nuclear Dipole Moment: [e a0]
     X:    15.0457      Y:     0.1403      Z:     0.7674

  Electronic Dipole Moment: [e a0]
     X:   -15.5055      Y:     0.1570      Z:    -0.6912

  Dipole Moment: [e a0]
     X:    -0.4598      Y:     0.2973      Z:     0.0761     Total:     0.5528

  Dipole Moment: [D]
     X:    -1.1688      Y:     0.7556      Z:     0.1935     Total:     1.4052

*** tstop() called on ds3 at Tue Apr 28 20:37:16 2020
Module time:
	user time   =      80.10 seconds =       1.34 minutes
	system time =      39.20 seconds =       0.65 minutes
	total time  =        115 seconds =       1.92 minutes
Total time:
	user time   =      80.10 seconds =       1.34 minutes
	system time =      39.20 seconds =       0.65 minutes
	total time  =        115 seconds =       1.92 minutes
                                     G D M A

                                 by Anthony Stone

                           version 2.2.06, 22 June 2011

               Distributed Multipoles from Gaussian wavefunctions

Starting at 20:37:16 on 28 Apr 2020

Using SCF density matrix from file ./SSI/SSI-020VAL-029TYR-1-dimer.test.4166.fchk

                         Distributed Multipole Analysis

Standard DMA

Positions and radii in angstrom
Multipole moments in atomic units, ea_0^k for rank k

C          x =  3.305154  y = -1.871714  z =  0.235600 angstrom
           Maximum rank =  0   Radius =  0.650 angstrom
                   Q00  =  -0.240145

C          x =  4.773154  y = -1.706714  z =  0.630600 angstrom
           Maximum rank =  0   Radius =  0.650 angstrom
                   Q00  =  -0.236340

H          x =  3.124154  y = -2.849714  z = -0.208400 angstrom
           Maximum rank =  0   Radius =  0.325 angstrom
                   Q00  =   0.082618

H          x =  2.686154  y = -1.781714  z =  1.128600 angstrom
           Maximum rank =  0   Radius =  0.325 angstrom
                   Q00  =   0.081213

H          x =  3.007154  y = -1.090714  z = -0.464400 angstrom
           Maximum rank =  0   Radius =  0.325 angstrom
                   Q00  =   0.075558

H          x =  4.877154  y = -0.748714  z =  1.139600 angstrom
           Maximum rank =  0   Radius =  0.325 angstrom
                   Q00  =   0.077684

H          x =  5.425224  y = -1.694599  z = -0.255212 angstrom
           Maximum rank =  0   Radius =  0.325 angstrom
                   Q00  =   0.080297

H          x =  5.079484  y = -2.491242  z =  1.338185 angstrom
           Maximum rank =  0   Radius =  0.325 angstrom
                   Q00  =   0.082686

C          x = -0.418846  y =  3.299286  z = -0.591400 angstrom
           Maximum rank =  0   Radius =  0.650 angstrom
                   Q00  =  -0.191594

C          x = -0.133846  y = -0.470714  z = -0.217400 angstrom
           Maximum rank =  0   Radius =  0.650 angstrom
                   Q00  =  -0.113496

C          x = -1.442846  y = -0.815714  z =  0.100600 angstrom
           Maximum rank =  0   Radius =  0.650 angstrom
                   Q00  =   0.332064

C          x =  0.197154  y =  0.861286  z = -0.442400 angstrom
           Maximum rank =  0   Radius =  0.650 angstrom
                   Q00  =  -0.016531

C          x = -0.774846  y =  1.856286  z = -0.356400 angstrom
           Maximum rank =  0   Radius =  0.650 angstrom
                   Q00  =  -0.138077

C          x = -2.418846  y =  0.167286  z =  0.189600 angstrom
           Maximum rank =  0   Radius =  0.650 angstrom
                   Q00  =  -0.197238

C          x = -2.083846  y =  1.495286  z = -0.047400 angstrom
           Maximum rank =  0   Radius =  0.650 angstrom
                   Q00  =   0.035240

O          x = -1.763846  y = -2.121714  z =  0.322600 angstrom
           Maximum rank =  0   Radius =  0.650 angstrom
                   Q00  =  -0.685418

H          x =  0.614154  y = -1.244714  z = -0.283400 angstrom
           Maximum rank =  0   Radius =  0.325 angstrom
                   Q00  =   0.077503

H          x =  1.219154  y =  1.127286  z = -0.682400 angstrom
           Maximum rank =  0   Radius =  0.325 angstrom
                   Q00  =   0.060593

H          x = -3.437846  y = -0.097714  z =  0.437600 angstrom
           Maximum rank =  0   Radius =  0.325 angstrom
                   Q00  =   0.070708

H          x = -2.700846  y = -2.232714  z =  0.518600 angstrom
           Maximum rank =  0   Radius =  0.325 angstrom
                   Q00  =   0.405302

H          x =  0.588154  y =  3.482286  z = -0.215400 angstrom
           Maximum rank =  0   Radius =  0.325 angstrom
                   Q00  =   0.095811

H          x = -1.100846  y =  3.920286  z = -0.007400 angstrom
           Maximum rank =  0   Radius =  0.325 angstrom
                   Q00  =   0.093752

H          x = -2.850846  y =  2.257286  z =  0.017600 angstrom
           Maximum rank =  0   Radius =  0.325 angstrom
                   Q00  =   0.067905

H          x = -0.472116  y =  3.605211  z = -1.646660 angstrom
           Maximum rank =  0   Radius =  0.325 angstrom
                   Q00  =   0.099904

Total multipoles referred to origin at
           x =   0.000000,  y =    0.000000,  z =    0.000000 angstrom
                   Q00  =  -0.000000

Finished at 20:37:16 on 28 Apr 2020

  DMA results are available in the Python driver through the
	  variable('DMA DISTRIBUTED MULTIPOLES')
  and
	  variable('DMA TOTAL MULTIPOLES')
  commands.

    Psi4 stopped on: Tuesday, 28 April 2020 08:37PM
    Psi4 wall time for execution: 0:01:55.31

*** Psi4 exiting successfully. Buy a developer a beer!
