                               Psi4 1.3.2 release

  ==> Input File <==

--------------------------------------------------------------------------
import numpy as np
set {scf_type pk
basis cc-pvdz
d_convergence 10
gdma_switch   0
gdma_limit    0
gdma_origin   [ 0.0,  0.0,  0.0 ]
}
molecule test {
    units Angstrom
    0 1
    --
    0 1
    C               -0.864596105049701     1.013624987772917    -1.453861733065070
    C               -2.229596105049701     1.016624987772917    -0.772861733065070
    H               -0.100596105049701     1.447624987772917    -0.809861733065070
    H               -0.583596105049701    -0.008375012227083    -1.704861733065070
    H               -0.916596105049701     1.583624987772917    -2.381861733065070
    H               -2.152596105049701     0.456624987772917     0.155138266934930
    H               -2.517276105049701     2.058633987772917    -0.569242733065070
    H               -2.983236105049701     0.519939987772917    -1.401613733065070
    C                0.904403894950299    -0.657375012227083     0.906138266934930
    C                2.192403894950299    -1.368375012227083     1.318138266934930
    H                0.641403894950299    -0.953375012227083    -0.107861733065070
    H                0.091403894950299    -0.950375012227083     1.564138266934930
    H                1.022403894950299     0.423624987772917     0.978138266934930
    H                2.534403894950299    -0.934375012227083     2.257138266934930
    H                2.985653894950299    -1.269839012227083     0.562461266934930
    H                1.947483894950299    -2.427315012227083     1.487424266934930

}
e, wfn = energy('scf', return_wfn=True)
gdma(wfn)
dmavals = variable('DMA DISTRIBUTED MULTIPOLES')
charges = np.array(dmavals)
print(charges)
np.save('SSI-071VAL-119VAL-1-dimer.npy', np.array(charges))--------------------------------------------------------------------------

*** tstart() called on ds3
*** at Tue Apr 28 04:00:44 2020

   => Loading Basis Set <=

    Name: CC-PVDZ
    Role: ORBITAL
    Keyword: BASIS
    atoms 1-2, 9-10  entry C          line   138 file /theoryfs2/ds/metcalf/miniconda2/envs/tf2gpu/share/psi4/basis/cc-pvdz.gbs
    atoms 3-8, 11-16 entry H          line    22 file /theoryfs2/ds/metcalf/miniconda2/envs/tf2gpu/share/psi4/basis/cc-pvdz.gbs

         ---------------------------------------------------------
                                   SCF
               by Justin Turney, Rob Parrish, Andy Simmonett
                          and Daniel G. A. Smith
                              RHF Reference
                        1 Threads,    500 MiB Core
         ---------------------------------------------------------

  ==> Geometry <==

    Molecular point group: c1
    Full point group: C1

    Geometry (in Angstrom), charge = 0, multiplicity = 1:

       Center              X                  Y                   Z               Mass
    ------------   -----------------  -----------------  -----------------  -----------------
         C           -0.864596105050     1.013624987773    -1.453861733065    12.000000000000
         C           -2.229596105050     1.016624987773    -0.772861733065    12.000000000000
         H           -0.100596105050     1.447624987773    -0.809861733065     1.007825032230
         H           -0.583596105050    -0.008375012227    -1.704861733065     1.007825032230
         H           -0.916596105050     1.583624987773    -2.381861733065     1.007825032230
         H           -2.152596105050     0.456624987773     0.155138266935     1.007825032230
         H           -2.517276105050     2.058633987773    -0.569242733065     1.007825032230
         H           -2.983236105050     0.519939987773    -1.401613733065     1.007825032230
         C            0.904403894950    -0.657375012227     0.906138266935    12.000000000000
         C            2.192403894950    -1.368375012227     1.318138266935    12.000000000000
         H            0.641403894950    -0.953375012227    -0.107861733065     1.007825032230
         H            0.091403894950    -0.950375012227     1.564138266935     1.007825032230
         H            1.022403894950     0.423624987773     0.978138266935     1.007825032230
         H            2.534403894950    -0.934375012227     2.257138266935     1.007825032230
         H            2.985653894950    -1.269839012227     0.562461266935     1.007825032230
         H            1.947483894950    -2.427315012227     1.487424266935     1.007825032230

  Running in c1 symmetry.

  Rotational constants: A =      0.57831  B =      0.05373  C =      0.05112 [cm^-1]
  Rotational constants: A =  17337.25119  B =   1610.82843  C =   1532.51981 [MHz]
  Nuclear repulsion =  125.031050011245284

  Charge       = 0
  Multiplicity = 1
  Electrons    = 36
  Nalpha       = 18
  Nbeta        = 18

  ==> Algorithm <==

  SCF Algorithm Type is PK.
  DIIS enabled.
  MOM disabled.
  Fractional occupation disabled.
  Guess Type is SAD.
  Energy threshold   = 1.00e-06
  Density threshold  = 1.00e-10
  Integral threshold = 0.00e+00

  ==> Primary Basis <==

  Basis Set: CC-PVDZ
    Blend: CC-PVDZ
    Number of shells: 60
    Number of basis function: 116
    Number of Cartesian functions: 120
    Spherical Harmonics?: true
    Max angular momentum: 2

  ==> Pre-Iterations <==

   -------------------------------------------------------
    Irrep   Nso     Nmo     Nalpha   Nbeta   Ndocc  Nsocc
   -------------------------------------------------------
     A        116     116       0       0       0       0
   -------------------------------------------------------
    Total     116     116      18      18      18       0
   -------------------------------------------------------

  ==> Integral Setup <==

  Using integral reordering PK algorithm.
  Sizing the integral batches needed.
  Building batch lookup table.
   Calculation information:
      Number of atoms:                  16
      Number of AO shells:              60
      Number of primitives:            148
      Number of atomic orbitals:       120
      Number of basis functions:       116

      Integral cutoff                 1.00e-12
      Number of threads:                 1

	Batch   1 pq = [       0,    6786] index = [             0,23028291] size =     23028291
  Task number: 3
  Buffer size: 11059200
  Buffer per thread: 2
  We computed 1494898 shell quartets total.
  Whereas there are 1675365 unique shell quartets.

  ==> DiskJK: Disk-Based J/K Matrices <==

    J tasked:                  Yes
    K tasked:                  Yes
    wK tasked:                  No
    Memory [MiB]:              375
    Schwarz Cutoff:          1E-12

    OpenMP threads:              1

  Minimum eigenvalue in the overlap matrix is 6.3229882025E-03.
  Using Symmetric Orthogonalization.

  SCF Guess: Superposition of Atomic Densities via on-the-fly atomic UHF.

  ==> Iterations <==

                        Total Energy        Delta E     RMS |[F,P]|

   @RHF iter SAD:  -157.39416596247597   -1.57394e+02   0.00000e+00
   @RHF iter   1:  -158.30285416923317   -9.08688e-01   4.22498e-03 DIIS
   @RHF iter   2:  -158.43763310356869   -1.34779e-01   1.78898e-03 DIIS
   @RHF iter   3:  -158.46090351224655   -2.32704e-02   3.50744e-04 DIIS
   @RHF iter   4:  -158.46273832964113   -1.83482e-03   3.83033e-05 DIIS
   @RHF iter   5:  -158.46276133822485   -2.30086e-05   6.35654e-06 DIIS
   @RHF iter   6:  -158.46276194439855   -6.06174e-07   1.00940e-06 DIIS
   @RHF iter   7:  -158.46276195540091   -1.10024e-08   3.06514e-07 DIIS
   @RHF iter   8:  -158.46276195626817   -8.67260e-10   5.02229e-08 DIIS
   @RHF iter   9:  -158.46276195630742   -3.92504e-11   1.20997e-08 DIIS
   @RHF iter  10:  -158.46276195630944   -2.01794e-12   3.08568e-09 DIIS
   @RHF iter  11:  -158.46276195630958   -1.42109e-13   9.32030e-10 DIIS
   @RHF iter  12:  -158.46276195630992   -3.41061e-13   2.33348e-10 DIIS
   @RHF iter  13:  -158.46276195630941    5.11591e-13   3.19252e-11 DIIS
  Energy and wave function converged.

  ==> Post-Iterations <==

    Orbital Energies [Eh]
    ---------------------

    Doubly Occupied:

       1A    -11.218645     2A    -11.217664     3A    -11.215000
       4A    -11.213850     5A     -1.021094     6A     -1.016042
       7A     -0.839676     8A     -0.831743     9A     -0.605129
      10A     -0.601623    11A     -0.595175    12A     -0.593135
      13A     -0.502847    14A     -0.498291    15A     -0.492771
      16A     -0.489033    17A     -0.479162    18A     -0.473385

    Virtual:

      19A      0.176366    20A      0.195854    21A      0.227378
      22A      0.232863    23A      0.238657    24A      0.258904
      25A      0.265929    26A      0.275769    27A      0.277429
      28A      0.313130    29A      0.319717    30A      0.372880
      31A      0.398501    32A      0.404510    33A      0.566107
      34A      0.589363    35A      0.597848    36A      0.601620
      37A      0.613373    38A      0.644301    39A      0.674512
      40A      0.694173    41A      0.698245    42A      0.816246
      43A      0.845952    44A      0.862949    45A      0.885289
      46A      0.891040    47A      0.892620    48A      0.897686
      49A      0.913026    50A      0.914936    51A      0.918103
      52A      0.928254    53A      0.960922    54A      0.968039
      55A      0.981022    56A      1.002747    57A      1.115244
      58A      1.121373    59A      1.136193    60A      1.182464
      61A      1.210835    62A      1.278195    63A      1.467932
      64A      1.475119    65A      1.488542    66A      1.497607
      67A      1.585578    68A      1.599009    69A      1.676711
      70A      1.681181    71A      1.686193    72A      1.722245
      73A      1.849537    74A      1.864791    75A      1.866228
      76A      1.893485    77A      1.903557    78A      1.908650
      79A      1.934742    80A      1.938885    81A      1.943853
      82A      1.952049    83A      1.955787    84A      1.964633
      85A      1.969862    86A      1.976695    87A      2.012103
      88A      2.053928    89A      2.101120    90A      2.120808
      91A      2.137810    92A      2.144858    93A      2.286746
      94A      2.303531    95A      2.308382    96A      2.356288
      97A      2.441939    98A      2.455318    99A      2.467637
     100A      2.479450   101A      2.561021   102A      2.569582
     103A      2.590465   104A      2.592267   105A      2.764759
     106A      2.772576   107A      2.783925   108A      2.805887
     109A      2.844035   110A      2.846110   111A      2.855950
     112A      2.860529   113A      2.952173   114A      2.954248
     115A      2.979476   116A      2.987400

    Final Occupation by Irrep:
              A
    DOCC [    18 ]

  @RHF Final Energy:  -158.46276195630941

   => Energetics <=

    Nuclear Repulsion Energy =            125.0310500112452843
    One-Electron Energy =                -459.1790941853493564
    Two-Electron Energy =                 175.6852822177946791
    Total Energy =                       -158.4627619563094072

Computation Completed

Properties will be evaluated at   0.000000,   0.000000,   0.000000 [a0]

Properties computed using the SCF density matrix

  Nuclear Dipole Moment: [e a0]
     X:    -0.0292      Y:    -0.0502      Z:     0.0273

  Electronic Dipole Moment: [e a0]
     X:     0.0328      Y:     0.0426      Z:    -0.0200

  Dipole Moment: [e a0]
     X:     0.0036      Y:    -0.0077      Z:     0.0074     Total:     0.0112

  Dipole Moment: [D]
     X:     0.0091      Y:    -0.0195      Z:     0.0187     Total:     0.0285

*** tstop() called on ds3 at Tue Apr 28 04:01:05 2020
Module time:
	user time   =       7.70 seconds =       0.13 minutes
	system time =       2.72 seconds =       0.05 minutes
	total time  =         21 seconds =       0.35 minutes
Total time:
	user time   =       7.70 seconds =       0.13 minutes
	system time =       2.72 seconds =       0.05 minutes
	total time  =         21 seconds =       0.35 minutes
                                     G D M A

                                 by Anthony Stone

                           version 2.2.06, 22 June 2011

               Distributed Multipoles from Gaussian wavefunctions

Starting at 4:1:5 on 28 Apr 2020

Using SCF density matrix from file ./SSI/SSI-071VAL-119VAL-1-dimer.test.27146.fchk

                         Distributed Multipole Analysis

Standard DMA

Positions and radii in angstrom
Multipole moments in atomic units, ea_0^k for rank k

C          x = -0.864596  y =  1.013625  z = -1.453862 angstrom
           Maximum rank =  0   Radius =  0.650 angstrom
                   Q00  =  -0.241424

C          x = -2.229596  y =  1.016625  z = -0.772862 angstrom
           Maximum rank =  0   Radius =  0.650 angstrom
                   Q00  =  -0.224320

H          x = -0.100596  y =  1.447625  z = -0.809862 angstrom
           Maximum rank =  0   Radius =  0.325 angstrom
                   Q00  =   0.081521

H          x = -0.583596  y = -0.008375  z = -1.704862 angstrom
           Maximum rank =  0   Radius =  0.325 angstrom
                   Q00  =   0.074778

H          x = -0.916596  y =  1.583625  z = -2.381862 angstrom
           Maximum rank =  0   Radius =  0.325 angstrom
                   Q00  =   0.075223

H          x = -2.152596  y =  0.456625  z =  0.155138 angstrom
           Maximum rank =  0   Radius =  0.325 angstrom
                   Q00  =   0.078959

H          x = -2.517276  y =  2.058634  z = -0.569243 angstrom
           Maximum rank =  0   Radius =  0.325 angstrom
                   Q00  =   0.077311

H          x = -2.983236  y =  0.519940  z = -1.401614 angstrom
           Maximum rank =  0   Radius =  0.325 angstrom
                   Q00  =   0.078994

C          x =  0.904404  y = -0.657375  z =  0.906138 angstrom
           Maximum rank =  0   Radius =  0.650 angstrom
                   Q00  =  -0.238972

C          x =  2.192404  y = -1.368375  z =  1.318138 angstrom
           Maximum rank =  0   Radius =  0.650 angstrom
                   Q00  =  -0.231809

H          x =  0.641404  y = -0.953375  z = -0.107862 angstrom
           Maximum rank =  0   Radius =  0.325 angstrom
                   Q00  =   0.079002

H          x =  0.091404  y = -0.950375  z =  1.564138 angstrom
           Maximum rank =  0   Radius =  0.325 angstrom
                   Q00  =   0.078692

H          x =  1.022404  y =  0.423625  z =  0.978138 angstrom
           Maximum rank =  0   Radius =  0.325 angstrom
                   Q00  =   0.076344

H          x =  2.534404  y = -0.934375  z =  2.257138 angstrom
           Maximum rank =  0   Radius =  0.325 angstrom
                   Q00  =   0.077870

H          x =  2.985654  y = -1.269839  z =  0.562461 angstrom
           Maximum rank =  0   Radius =  0.325 angstrom
                   Q00  =   0.081304

H          x =  1.947484  y = -2.427315  z =  1.487424 angstrom
           Maximum rank =  0   Radius =  0.325 angstrom
                   Q00  =   0.076528

Total multipoles referred to origin at
           x =   0.000000,  y =    0.000000,  z =    0.000000 angstrom
                   Q00  =  -0.000000

Finished at 4:1:5 on 28 Apr 2020

  DMA results are available in the Python driver through the
	  variable('DMA DISTRIBUTED MULTIPOLES')
  and
	  variable('DMA TOTAL MULTIPOLES')
  commands.

    Psi4 stopped on: Tuesday, 28 April 2020 04:01AM
    Psi4 wall time for execution: 0:00:21.40

*** Psi4 exiting successfully. Buy a developer a beer!
