                               Psi4 1.3.2 release

  ==> Input File <==

--------------------------------------------------------------------------
import numpy as np
set {scf_type pk
basis cc-pvdz
d_convergence 10
gdma_switch   0
gdma_limit    0
gdma_origin   [ 0.0,  0.0,  0.0 ]
}
molecule test {
    units Angstrom
    0 1
    --
    0 1
    C               -1.371738463479919    -1.799014057588350    -0.411404779058186
    C               -2.565738463479919    -2.510014057588350    -1.039404779058186
    H               -0.510738463479919    -1.994014057588350    -1.043404779058186
    H               -1.582738463479919    -0.731014057588350    -0.400404779058186
    H               -1.191738463479919    -2.124014057588350     0.613595220941814
    H               -3.425738463479919    -2.401014057588350    -0.381404779058186
    H               -2.334811463479919    -3.575444057588350    -1.186164779058186
    H               -2.796074463479919    -2.052234057588350    -2.012734779058186
    C                1.598261536520081     0.257985942411650     0.821595220941814
    C                2.009261536520081    -0.447014057588350    -0.441404779058186
    C                0.362261536520081     2.202985942411650    -0.534404779058186
    S               -0.002738463479919     1.080985942411650     0.801595220941814
    H                1.585261536520081    -0.495014057588350     1.601595220941815
    H                2.351261536520081     1.002985942411650     1.083595220941814
    H                1.930261536520081     0.204985942411650    -1.304404779058186
    H                1.337261536520081    -1.280014057588350    -0.577404779058186
    H               -0.255738463479919     1.940985942411650    -1.388404779058186
    H                0.146261536520081     3.189985942411650    -0.143404779058186
    H                1.416261536520081     2.190985942411650    -0.806404779058186
    H                3.033201536520081    -0.843174057588350    -0.373574779058186

}
e, wfn = energy('scf', return_wfn=True)
gdma(wfn)
dmavals = variable('DMA DISTRIBUTED MULTIPOLES')
charges = np.array(dmavals)
print(charges)
np.save('SSI-028VAL-036MET-1-dimer.npy', np.array(charges))--------------------------------------------------------------------------

*** tstart() called on ds3
*** at Sun Apr 26 18:11:38 2020

   => Loading Basis Set <=

    Name: CC-PVDZ
    Role: ORBITAL
    Keyword: BASIS
    atoms 1-2, 9-11  entry C          line   138 file /theoryfs2/ds/metcalf/miniconda2/envs/tf2gpu/share/psi4/basis/cc-pvdz.gbs
    atoms 3-8, 13-20 entry H          line    22 file /theoryfs2/ds/metcalf/miniconda2/envs/tf2gpu/share/psi4/basis/cc-pvdz.gbs
    atoms 12         entry S          line   598 file /theoryfs2/ds/metcalf/miniconda2/envs/tf2gpu/share/psi4/basis/cc-pvdz.gbs

         ---------------------------------------------------------
                                   SCF
               by Justin Turney, Rob Parrish, Andy Simmonett
                          and Daniel G. A. Smith
                              RHF Reference
                        1 Threads,    500 MiB Core
         ---------------------------------------------------------

  ==> Geometry <==

    Molecular point group: c1
    Full point group: C1

    Geometry (in Angstrom), charge = 0, multiplicity = 1:

       Center              X                  Y                   Z               Mass
    ------------   -----------------  -----------------  -----------------  -----------------
         C           -1.371738463480    -1.799014057588    -0.411404779058    12.000000000000
         C           -2.565738463480    -2.510014057588    -1.039404779058    12.000000000000
         H           -0.510738463480    -1.994014057588    -1.043404779058     1.007825032230
         H           -1.582738463480    -0.731014057588    -0.400404779058     1.007825032230
         H           -1.191738463480    -2.124014057588     0.613595220942     1.007825032230
         H           -3.425738463480    -2.401014057588    -0.381404779058     1.007825032230
         H           -2.334811463480    -3.575444057588    -1.186164779058     1.007825032230
         H           -2.796074463480    -2.052234057588    -2.012734779058     1.007825032230
         C            1.598261536520     0.257985942412     0.821595220942    12.000000000000
         C            2.009261536520    -0.447014057588    -0.441404779058    12.000000000000
         C            0.362261536520     2.202985942412    -0.534404779058    12.000000000000
         S           -0.002738463480     1.080985942412     0.801595220942    31.972071174400
         H            1.585261536520    -0.495014057588     1.601595220942     1.007825032230
         H            2.351261536520     1.002985942412     1.083595220942     1.007825032230
         H            1.930261536520     0.204985942412    -1.304404779058     1.007825032230
         H            1.337261536520    -1.280014057588    -0.577404779058     1.007825032230
         H           -0.255738463480     1.940985942412    -1.388404779058     1.007825032230
         H            0.146261536520     3.189985942412    -0.143404779058     1.007825032230
         H            1.416261536520     2.190985942412    -0.806404779058     1.007825032230
         H            3.033201536520    -0.843174057588    -0.373574779058     1.007825032230

  Running in c1 symmetry.

  Rotational constants: A =      0.10655  B =      0.03692  C =      0.03212 [cm^-1]
  Rotational constants: A =   3194.33221  B =   1106.79674  C =    963.00965 [MHz]
  Nuclear repulsion =  308.727166303271417

  Charge       = 0
  Multiplicity = 1
  Electrons    = 60
  Nalpha       = 30
  Nbeta        = 30

  ==> Algorithm <==

  SCF Algorithm Type is PK.
  DIIS enabled.
  MOM disabled.
  Fractional occupation disabled.
  Guess Type is SAD.
  Energy threshold   = 1.00e-06
  Density threshold  = 1.00e-10
  Integral threshold = 0.00e+00

  ==> Primary Basis <==

  Basis Set: CC-PVDZ
    Blend: CC-PVDZ
    Number of shells: 80
    Number of basis function: 158
    Number of Cartesian functions: 164
    Spherical Harmonics?: true
    Max angular momentum: 2

  ==> Pre-Iterations <==

   -------------------------------------------------------
    Irrep   Nso     Nmo     Nalpha   Nbeta   Ndocc  Nsocc
   -------------------------------------------------------
     A        158     158       0       0       0       0
   -------------------------------------------------------
    Total     158     158      30      30      30       0
   -------------------------------------------------------

  ==> Integral Setup <==

  Using integral reordering PK algorithm.
  Sizing the integral batches needed.
  Building batch lookup table.
   Calculation information:
      Number of atoms:                  20
      Number of AO shells:              80
      Number of primitives:            230
      Number of atomic orbitals:       164
      Number of basis functions:       158

      Integral cutoff                 1.00e-12
      Number of threads:                 1

	Batch   1 pq = [       0,    9405] index = [             0,44231715] size =     44231715
	Batch   2 pq = [    9405,   12561] index = [      44231715,78895641] size =     34663926
  Task number: 8
  Buffer size: 11059200
  Buffer per thread: 2
  We computed 4934855 shell quartets total.
  Whereas there are 5250420 unique shell quartets.

  ==> DiskJK: Disk-Based J/K Matrices <==

    J tasked:                  Yes
    K tasked:                  Yes
    wK tasked:                  No
    Memory [MiB]:              375
    Schwarz Cutoff:          1E-12

    OpenMP threads:              1

  Minimum eigenvalue in the overlap matrix is 5.7870638880E-03.
  Using Symmetric Orthogonalization.

  SCF Guess: Superposition of Atomic Densities via on-the-fly atomic UHF.

  ==> Iterations <==

                        Total Energy        Delta E     RMS |[F,P]|

   @RHF iter SAD:  -594.10969347651508   -5.94110e+02   0.00000e+00
   @RHF iter   1:  -594.82816008783732   -7.18467e-01   3.25067e-03 DIIS
   @RHF iter   2:  -594.98347761807702   -1.55318e-01   1.33336e-03 DIIS
   @RHF iter   3:  -595.00789783834125   -2.44202e-02   3.08274e-04 DIIS
   @RHF iter   4:  -595.01028050118487   -2.38266e-03   6.37618e-05 DIIS
   @RHF iter   5:  -595.01035726876944   -7.67676e-05   1.79008e-05 DIIS
   @RHF iter   6:  -595.01036363611638   -6.36735e-06   3.76075e-06 DIIS
   @RHF iter   7:  -595.01036399952557   -3.63409e-07   9.02719e-07 DIIS
   @RHF iter   8:  -595.01036402514990   -2.56243e-08   3.16723e-07 DIIS
   @RHF iter   9:  -595.01036402825650   -3.10661e-09   9.29052e-08 DIIS
   @RHF iter  10:  -595.01036402858904   -3.32534e-10   2.60715e-08 DIIS
   @RHF iter  11:  -595.01036402861837   -2.93312e-11   7.59662e-09 DIIS
   @RHF iter  12:  -595.01036402862223   -3.86535e-12   2.97277e-09 DIIS
   @RHF iter  13:  -595.01036402862178    4.54747e-13   1.01572e-09 DIIS
   @RHF iter  14:  -595.01036402862314   -1.36424e-12   2.73734e-10 DIIS
   @RHF iter  15:  -595.01036402862530   -2.16005e-12   8.66436e-11 DIIS
  Energy and wave function converged.

  ==> Post-Iterations <==

    Orbital Energies [Eh]
    ---------------------

    Doubly Occupied:

       1A    -91.928777     2A    -11.252398     3A    -11.250038
       4A    -11.222638     5A    -11.210621     6A    -11.203127
       7A     -8.934109     8A     -6.616138     9A     -6.614564
      10A     -6.612334    11A     -1.089144    12A     -1.011530
      13A     -0.999399    14A     -0.886904    15A     -0.827820
      16A     -0.781278    17A     -0.641837    18A     -0.611015
      19A     -0.598128    20A     -0.590787    21A     -0.585464
      22A     -0.552542    23A     -0.532938    24A     -0.512283
      25A     -0.492111    26A     -0.476317    27A     -0.473757
      28A     -0.470231    29A     -0.426542    30A     -0.325638

    Virtual:

      31A      0.173204    32A      0.184718    33A      0.194219
      34A      0.226366    35A      0.231832    36A      0.235345
      37A      0.243606    38A      0.250324    39A      0.266663
      40A      0.268888    41A      0.275585    42A      0.288339
      43A      0.297567    44A      0.327530    45A      0.333739
      46A      0.355326    47A      0.391641    48A      0.412437
      49A      0.554406    50A      0.567508    51A      0.578902
      52A      0.600230    53A      0.604225    54A      0.608008
      55A      0.614196    56A      0.635809    57A      0.659877
      58A      0.683843    59A      0.708254    60A      0.729287
      61A      0.732602    62A      0.768410    63A      0.806795
      64A      0.818111    65A      0.836232    66A      0.861130
      67A      0.867603    68A      0.874821    69A      0.885876
      70A      0.886942    71A      0.898640    72A      0.901528
      73A      0.909825    74A      0.913365    75A      0.923340
      76A      0.933000    77A      0.935771    78A      0.958353
      79A      0.962427    80A      0.974022    81A      0.988935
      82A      1.010401    83A      1.018018    84A      1.054379
      85A      1.141022    86A      1.151972    87A      1.179279
      88A      1.229721    89A      1.252506    90A      1.277789
      91A      1.340659    92A      1.352507    93A      1.389021
      94A      1.422360    95A      1.476486    96A      1.494869
      97A      1.502152    98A      1.546336    99A      1.606413
     100A      1.638420   101A      1.665039   102A      1.680535
     103A      1.685121   104A      1.698601   105A      1.702329
     106A      1.847552   107A      1.861107   108A      1.881135
     109A      1.884323   110A      1.897440   111A      1.903284
     112A      1.912949   113A      1.924767   114A      1.936482
     115A      1.949753   116A      1.955488   117A      1.957802
     118A      1.966467   119A      1.978915   120A      2.001486
     121A      2.011107   122A      2.017385   123A      2.031728
     124A      2.043423   125A      2.071016   126A      2.103873
     127A      2.113773   128A      2.145325   129A      2.171121
     130A      2.230392   131A      2.234228   132A      2.295398
     133A      2.311758   134A      2.330726   135A      2.354417
     136A      2.443342   137A      2.455425   138A      2.473178
     139A      2.478751   140A      2.487589   141A      2.569179
     142A      2.575199   143A      2.587644   144A      2.614144
     145A      2.768891   146A      2.775164   147A      2.782340
     148A      2.798878   149A      2.811687   150A      2.813069
     151A      2.835293   152A      2.848253   153A      2.855851
     154A      2.870813   155A      2.910201   156A      2.964552
     157A      2.977792   158A      2.998642

    Final Occupation by Irrep:
              A
    DOCC [    30 ]

  @RHF Final Energy:  -595.01036402862530

   => Energetics <=

    Nuclear Repulsion Energy =            308.7271663032714173
    One-Electron Energy =               -1428.0142447592411372
    Two-Electron Energy =                 524.2767144273444728
    Total Energy =                       -595.0103640286253039

Computation Completed

Properties will be evaluated at   0.000000,   0.000000,   0.000000 [a0]

Properties computed using the SCF density matrix

  Nuclear Dipole Moment: [e a0]
     X:    -0.2793      Y:    -6.5019      Z:    -5.9026

  Electronic Dipole Moment: [e a0]
     X:     0.8545      Y:     6.6396      Z:     5.5570

  Dipole Moment: [e a0]
     X:     0.5753      Y:     0.1377      Z:    -0.3457     Total:     0.6851

  Dipole Moment: [D]
     X:     1.4621      Y:     0.3499      Z:    -0.8786     Total:     1.7413

*** tstop() called on ds3 at Sun Apr 26 18:12:24 2020
Module time:
	user time   =      35.95 seconds =       0.60 minutes
	system time =      11.23 seconds =       0.19 minutes
	total time  =         46 seconds =       0.77 minutes
Total time:
	user time   =      35.95 seconds =       0.60 minutes
	system time =      11.23 seconds =       0.19 minutes
	total time  =         46 seconds =       0.77 minutes
                                     G D M A

                                 by Anthony Stone

                           version 2.2.06, 22 June 2011

               Distributed Multipoles from Gaussian wavefunctions

Starting at 18:12:25 on 26 Apr 2020

Using SCF density matrix from file ./SSI/SSI-028VAL-036MET-1-dimer.test.5316.fchk

                         Distributed Multipole Analysis

Standard DMA

Positions and radii in angstrom
Multipole moments in atomic units, ea_0^k for rank k

C          x = -1.371738  y = -1.799014  z = -0.411405 angstrom
           Maximum rank =  0   Radius =  0.650 angstrom
                   Q00  =  -0.213212

C          x = -2.565738  y = -2.510014  z = -1.039405 angstrom
           Maximum rank =  0   Radius =  0.650 angstrom
                   Q00  =  -0.230515

H          x = -0.510738  y = -1.994014  z = -1.043405 angstrom
           Maximum rank =  0   Radius =  0.325 angstrom
                   Q00  =   0.066130

H          x = -1.582738  y = -0.731014  z = -0.400405 angstrom
           Maximum rank =  0   Radius =  0.325 angstrom
                   Q00  =   0.096150

H          x = -1.191738  y = -2.124014  z =  0.613595 angstrom
           Maximum rank =  0   Radius =  0.325 angstrom
                   Q00  =   0.075408

H          x = -3.425738  y = -2.401014  z = -0.381405 angstrom
           Maximum rank =  0   Radius =  0.325 angstrom
                   Q00  =   0.077681

H          x = -2.334811  y = -3.575444  z = -1.186165 angstrom
           Maximum rank =  0   Radius =  0.325 angstrom
                   Q00  =   0.071060

H          x = -2.796074  y = -2.052234  z = -2.012735 angstrom
           Maximum rank =  0   Radius =  0.325 angstrom
                   Q00  =   0.074460

C          x =  1.598262  y =  0.257986  z =  0.821595 angstrom
           Maximum rank =  0   Radius =  0.650 angstrom
                   Q00  =  -0.199288

C          x =  2.009262  y = -0.447014  z = -0.441405 angstrom
           Maximum rank =  0   Radius =  0.650 angstrom
                   Q00  =  -0.244921

C          x =  0.362262  y =  2.202986  z = -0.534405 angstrom
           Maximum rank =  0   Radius =  0.650 angstrom
                   Q00  =  -0.349596

S          x = -0.002738  y =  1.080986  z =  0.801595 angstrom
           Maximum rank =  0   Radius =  0.650 angstrom
                   Q00  =   0.093507

H          x =  1.585262  y = -0.495014  z =  1.601595 angstrom
           Maximum rank =  0   Radius =  0.325 angstrom
                   Q00  =   0.083395

H          x =  2.351262  y =  1.002986  z =  1.083595 angstrom
           Maximum rank =  0   Radius =  0.325 angstrom
                   Q00  =   0.044379

H          x =  1.930262  y =  0.204986  z = -1.304405 angstrom
           Maximum rank =  0   Radius =  0.325 angstrom
                   Q00  =   0.077599

H          x =  1.337262  y = -1.280014  z = -0.577405 angstrom
           Maximum rank =  0   Radius =  0.325 angstrom
                   Q00  =   0.096288

H          x = -0.255738  y =  1.940986  z = -1.388405 angstrom
           Maximum rank =  0   Radius =  0.325 angstrom
                   Q00  =   0.093161

H          x =  0.146262  y =  3.189986  z = -0.143405 angstrom
           Maximum rank =  0   Radius =  0.325 angstrom
                   Q00  =   0.103279

H          x =  1.416262  y =  2.190986  z = -0.806405 angstrom
           Maximum rank =  0   Radius =  0.325 angstrom
                   Q00  =   0.097623

H          x =  3.033202  y = -0.843174  z = -0.373575 angstrom
           Maximum rank =  0   Radius =  0.325 angstrom
                   Q00  =   0.087412

Total multipoles referred to origin at
           x =   0.000000,  y =    0.000000,  z =    0.000000 angstrom
                   Q00  =  -0.000000

Finished at 18:12:25 on 26 Apr 2020

  DMA results are available in the Python driver through the
	  variable('DMA DISTRIBUTED MULTIPOLES')
  and
	  variable('DMA TOTAL MULTIPOLES')
  commands.

    Psi4 stopped on: Sunday, 26 April 2020 06:12PM
    Psi4 wall time for execution: 0:00:46.30

*** Psi4 exiting successfully. Buy a developer a beer!
