                               Psi4 1.3.2 release

  ==> Input File <==

--------------------------------------------------------------------------
import numpy as np
set {scf_type pk
basis cc-pvdz
d_convergence 10
gdma_switch   0
gdma_limit    0
gdma_origin   [ 0.0,  0.0,  0.0 ]
}
molecule test {
    units Angstrom
    0 1
    --
    0 1
    C               -1.176681387199076     0.108534701381997     2.691037918971388
    C                0.479318612800924    -0.489465298618003     0.911037918971388
    C               -0.765681387199076    -0.685465298618003     1.481037918971388
    C                0.860318612800924    -1.228465298618003    -0.201962081028612
    C                0.013318612800924    -2.177465298618003    -0.748962081028612
    C               -1.612681387199076    -1.637465298618003     0.923037918971388
    C               -1.219681387199076    -2.382465298618003    -0.182962081028612
    H                1.160318612800924     0.233534701381997     1.339037918971388
    H                1.847318612800924    -1.111465298618003    -0.608962081028612
    H               -2.256681387199076     0.045534701381997     2.829037918971388
    H               -0.934681387199076     1.154534701381997     2.494037918971388
    H                0.325318612800924    -2.765465298618003    -1.602962081028612
    H               -2.583681387199076    -1.810465298618003     1.362037918971388
    H               -1.886681387199076    -3.127465298618003    -0.595962081028612
    H               -0.668691387199076    -0.217099298618003     3.610767918971388
    C                1.481318612800924     2.589534701381997    -1.138962081028612
    C                0.035318612800924     3.028534701381997    -0.957962081028612
    C                1.654318612800924     1.847534701381997    -2.455962081028612
    H                2.119318612800924     3.471534701381997    -1.185962081028612
    H                1.789318612800924     1.973534701381997    -0.294962081028612
    H               -0.524681387199076     2.216534701381998    -0.487962081028612
    H               -0.410681387199076     3.220534701381997    -1.935962081028612
    H                1.066318612800924     0.929534701381997    -2.439962081028611
    H                1.293318612800924     2.459534701381997    -3.278962081028612
    H               -0.059101387199076     3.945374701381997    -0.357552081028612
    H                2.710048612800924     1.605954701381997    -2.648502081028612

}
e, wfn = energy('scf', return_wfn=True)
gdma(wfn)
dmavals = variable('DMA DISTRIBUTED MULTIPOLES')
charges = np.array(dmavals)
print(charges)
np.save('SSI-144PHE-153LYS-1-dimer.npy', np.array(charges))--------------------------------------------------------------------------

*** tstart() called on ds3
*** at Tue Apr 28 13:14:46 2020

   => Loading Basis Set <=

    Name: CC-PVDZ
    Role: ORBITAL
    Keyword: BASIS
    atoms 1-7, 16-18  entry C          line   138 file /theoryfs2/ds/metcalf/miniconda2/envs/tf2gpu/share/psi4/basis/cc-pvdz.gbs
    atoms 8-15, 19-26 entry H          line    22 file /theoryfs2/ds/metcalf/miniconda2/envs/tf2gpu/share/psi4/basis/cc-pvdz.gbs

         ---------------------------------------------------------
                                   SCF
               by Justin Turney, Rob Parrish, Andy Simmonett
                          and Daniel G. A. Smith
                              RHF Reference
                        1 Threads,    500 MiB Core
         ---------------------------------------------------------

  ==> Geometry <==

    Molecular point group: c1
    Full point group: C1

    Geometry (in Angstrom), charge = 0, multiplicity = 1:

       Center              X                  Y                   Z               Mass
    ------------   -----------------  -----------------  -----------------  -----------------
         C           -1.176681387199     0.108534701382     2.691037918971    12.000000000000
         C            0.479318612801    -0.489465298618     0.911037918971    12.000000000000
         C           -0.765681387199    -0.685465298618     1.481037918971    12.000000000000
         C            0.860318612801    -1.228465298618    -0.201962081029    12.000000000000
         C            0.013318612801    -2.177465298618    -0.748962081029    12.000000000000
         C           -1.612681387199    -1.637465298618     0.923037918971    12.000000000000
         C           -1.219681387199    -2.382465298618    -0.182962081029    12.000000000000
         H            1.160318612801     0.233534701382     1.339037918971     1.007825032230
         H            1.847318612801    -1.111465298618    -0.608962081029     1.007825032230
         H           -2.256681387199     0.045534701382     2.829037918971     1.007825032230
         H           -0.934681387199     1.154534701382     2.494037918971     1.007825032230
         H            0.325318612801    -2.765465298618    -1.602962081029     1.007825032230
         H           -2.583681387199    -1.810465298618     1.362037918971     1.007825032230
         H           -1.886681387199    -3.127465298618    -0.595962081029     1.007825032230
         H           -0.668691387199    -0.217099298618     3.610767918971     1.007825032230
         C            1.481318612801     2.589534701382    -1.138962081029    12.000000000000
         C            0.035318612801     3.028534701382    -0.957962081029    12.000000000000
         C            1.654318612801     1.847534701382    -2.455962081029    12.000000000000
         H            2.119318612801     3.471534701382    -1.185962081029     1.007825032230
         H            1.789318612801     1.973534701382    -0.294962081029     1.007825032230
         H           -0.524681387199     2.216534701382    -0.487962081029     1.007825032230
         H           -0.410681387199     3.220534701382    -1.935962081029     1.007825032230
         H            1.066318612801     0.929534701382    -2.439962081029     1.007825032230
         H            1.293318612801     2.459534701382    -3.278962081029     1.007825032230
         H           -0.059101387199     3.945374701382    -0.357552081029     1.007825032230
         H            2.710048612801     1.605954701382    -2.648502081029     1.007825032230

  Running in c1 symmetry.

  Rotational constants: A =      0.05536  B =      0.02274  C =      0.01830 [cm^-1]
  Rotational constants: A =   1659.75983  B =    681.70937  C =    548.73388 [MHz]
  Nuclear repulsion =  494.447822169908193

  Charge       = 0
  Multiplicity = 1
  Electrons    = 76
  Nalpha       = 38
  Nbeta        = 38

  ==> Algorithm <==

  SCF Algorithm Type is PK.
  DIIS enabled.
  MOM disabled.
  Fractional occupation disabled.
  Guess Type is SAD.
  Energy threshold   = 1.00e-06
  Density threshold  = 1.00e-10
  Integral threshold = 0.00e+00

  ==> Primary Basis <==

  Basis Set: CC-PVDZ
    Blend: CC-PVDZ
    Number of shells: 108
    Number of basis function: 220
    Number of Cartesian functions: 230
    Spherical Harmonics?: true
    Max angular momentum: 2

  ==> Pre-Iterations <==

   -------------------------------------------------------
    Irrep   Nso     Nmo     Nalpha   Nbeta   Ndocc  Nsocc
   -------------------------------------------------------
     A        220     220       0       0       0       0
   -------------------------------------------------------
    Total     220     220      38      38      38       0
   -------------------------------------------------------

  ==> Integral Setup <==

  Using integral reordering PK algorithm.
  Sizing the integral batches needed.
  Building batch lookup table.
   Calculation information:
      Number of atoms:                  26
      Number of AO shells:             108
      Number of primitives:            300
      Number of atomic orbitals:       230
      Number of basis functions:       220

      Integral cutoff                 1.00e-12
      Number of threads:                 1

	Batch   1 pq = [       0,    9405] index = [             0,44231715] size =     44231715
	Batch   2 pq = [    9405,   13301] index = [      44231715,88464951] size =     44233236
	Batch   3 pq = [   13301,   16290] index = [      88464951,132690195] size =     44225244
	Batch   4 pq = [   16290,   18810] index = [     132690195,176917455] size =     44227260
	Batch   5 pq = [   18810,   21030] index = [     176917455,221140965] size =     44223510
	Batch   6 pq = [   21030,   23037] index = [     221140965,265363203] size =     44222238
	Batch   7 pq = [   23037,   24310] index = [     265363203,295500205] size =     30137002
  Task number: 27
  Buffer size: 11059200
  Buffer per thread: 2
  We computed 16233403 shell quartets total.
  Whereas there are 17325441 unique shell quartets.

  ==> DiskJK: Disk-Based J/K Matrices <==

    J tasked:                  Yes
    K tasked:                  Yes
    wK tasked:                  No
    Memory [MiB]:              375
    Schwarz Cutoff:          1E-12

    OpenMP threads:              1

  Minimum eigenvalue in the overlap matrix is 2.9579112363E-04.
  Using Symmetric Orthogonalization.

  SCF Guess: Superposition of Atomic Densities via on-the-fly atomic UHF.

  ==> Iterations <==

                        Total Energy        Delta E     RMS |[F,P]|

   @RHF iter SAD:  -387.00575619691961   -3.87006e+02   0.00000e+00
   @RHF iter   1:  -387.76568751516595   -7.59931e-01   2.78533e-03 DIIS
   @RHF iter   2:  -387.98728103077940   -2.21594e-01   1.19076e-03 DIIS
   @RHF iter   3:  -388.02428299315409   -3.70020e-02   2.52508e-04 DIIS
   @RHF iter   4:  -388.02721005696901   -2.92706e-03   5.04550e-05 DIIS
   @RHF iter   5:  -388.02729613541254   -8.60784e-05   1.51789e-05 DIIS
   @RHF iter   6:  -388.02730358948395   -7.45407e-06   4.65183e-06 DIIS
   @RHF iter   7:  -388.02730434294756   -7.53464e-07   1.23177e-06 DIIS
   @RHF iter   8:  -388.02730440678027   -6.38327e-08   2.87871e-07 DIIS
   @RHF iter   9:  -388.02730441506458   -8.28430e-09   1.18388e-07 DIIS
   @RHF iter  10:  -388.02730441688885   -1.82428e-09   5.88517e-08 DIIS
   @RHF iter  11:  -388.02730441740744   -5.18583e-10   2.44380e-08 DIIS
   @RHF iter  12:  -388.02730441750634   -9.89075e-11   9.75531e-09 DIIS
   @RHF iter  13:  -388.02730441751055   -4.20641e-12   3.48633e-09 DIIS
   @RHF iter  14:  -388.02730441751442   -3.86535e-12   7.34559e-10 DIIS
   @RHF iter  15:  -388.02730441751442    0.00000e+00   2.22264e-10 DIIS
   @RHF iter  16:  -388.02730441751385    5.68434e-13   8.19398e-11 DIIS
  Energy and wave function converged.

  ==> Post-Iterations <==

    Orbital Energies [Eh]
    ---------------------

    Doubly Occupied:

       1A    -11.239645     2A    -11.233930     3A    -11.233369
       4A    -11.230085     5A    -11.229683     6A    -11.229520
       7A    -11.228844     8A    -11.214874     9A    -11.210948
      10A    -11.210302    11A     -1.158211    12A     -1.053337
      13A     -1.048734    14A     -1.013221    15A     -0.933647
      16A     -0.918265    17A     -0.828233    18A     -0.796748
      19A     -0.794327    20A     -0.694157    21A     -0.634874
      22A     -0.629438    23A     -0.625176    24A     -0.594098
      25A     -0.582192    26A     -0.578970    27A     -0.565037
      28A     -0.540554    29A     -0.536611    30A     -0.527283
      31A     -0.491170    32A     -0.485172    33A     -0.482780
      34A     -0.472508    35A     -0.466066    36A     -0.459185
      37A     -0.333144    38A     -0.325449

    Virtual:

      39A      0.133848    40A      0.141664    41A      0.171433
      42A      0.195055    43A      0.198157    44A      0.216115
      45A      0.228719    46A      0.232535    47A      0.246838
      48A      0.256100    49A      0.260878    50A      0.273638
      51A      0.278672    52A      0.285502    53A      0.294682
      54A      0.305319    55A      0.319819    56A      0.334820
      57A      0.368202    58A      0.374675    59A      0.403136
      60A      0.431540    61A      0.458555    62A      0.465707
      63A      0.480580    64A      0.500867    65A      0.564100
      66A      0.584647    67A      0.597647    68A      0.607040
      69A      0.615207    70A      0.630376    71A      0.632973
      72A      0.652718    73A      0.684800    74A      0.700629
      75A      0.702120    76A      0.716217    77A      0.740026
      78A      0.744834    79A      0.749406    80A      0.758942
      81A      0.775896    82A      0.784092    83A      0.791458
      84A      0.811859    85A      0.816397    86A      0.843736
      87A      0.858041    88A      0.860644    89A      0.866489
      90A      0.872576    91A      0.880201    92A      0.887472
      93A      0.893942    94A      0.901542    95A      0.902572
      96A      0.908382    97A      0.919589    98A      0.921385
      99A      0.939137   100A      0.944217   101A      0.947015
     102A      0.956602   103A      0.981268   104A      1.001892
     105A      1.012125   106A      1.018588   107A      1.026918
     108A      1.059723   109A      1.111246   110A      1.123170
     111A      1.132247   112A      1.141659   113A      1.158027
     114A      1.168232   115A      1.193525   116A      1.231872
     117A      1.238102   118A      1.247285   119A      1.253540
     120A      1.267140   121A      1.305682   122A      1.309997
     123A      1.324189   124A      1.338352   125A      1.385017
     126A      1.415024   127A      1.480058   128A      1.488857
     129A      1.513460   130A      1.522536   131A      1.552691
     132A      1.563638   133A      1.608389   134A      1.638924
     135A      1.668995   136A      1.673085   137A      1.690132
     138A      1.699016   139A      1.725818   140A      1.742919
     141A      1.755202   142A      1.771190   143A      1.801742
     144A      1.815091   145A      1.846349   146A      1.863005
     147A      1.870352   148A      1.887899   149A      1.898115
     150A      1.900659   151A      1.907402   152A      1.915929
     153A      1.921053   154A      1.940268   155A      1.946201
     156A      1.951778   157A      1.955056   158A      1.957046
     159A      1.968262   160A      1.976775   161A      1.986600
     162A      1.992116   163A      1.996161   164A      2.007489
     165A      2.023097   166A      2.028039   167A      2.050999
     168A      2.056207   169A      2.073241   170A      2.093900
     171A      2.109413   172A      2.131340   173A      2.144345
     174A      2.160461   175A      2.175547   176A      2.180759
     177A      2.192443   178A      2.206522   179A      2.256616
     180A      2.267646   181A      2.281575   182A      2.296517
     183A      2.310080   184A      2.319043   185A      2.332332
     186A      2.336334   187A      2.339267   188A      2.370234
     189A      2.462784   190A      2.475732   191A      2.483575
     192A      2.516513   193A      2.534743   194A      2.542824
     195A      2.570100   196A      2.615351   197A      2.632884
     198A      2.670230   199A      2.739060   200A      2.762480
     201A      2.769288   202A      2.776396   203A      2.782219
     204A      2.800354   205A      2.803325   206A      2.823857
     207A      2.843203   208A      2.848230   209A      2.874724
     210A      2.919394   211A      2.962466   212A      2.965204
     213A      2.991875   214A      3.022726   215A      3.045628
     216A      3.069900   217A      3.169305   218A      3.214657
     219A      3.317127   220A      3.993738

    Final Occupation by Irrep:
              A
    DOCC [    38 ]

  @RHF Final Energy:  -388.02730441751385

   => Energetics <=

    Nuclear Repulsion Energy =            494.4478221699081928
    One-Electron Energy =               -1503.2906763268999839
    Two-Electron Energy =                 620.8155497394778877
    Total Energy =                       -388.0273044175138466

Computation Completed

Properties will be evaluated at   0.000000,   0.000000,   0.000000 [a0]

Properties computed using the SCF density matrix

  Nuclear Dipole Moment: [e a0]
     X:     2.7997      Y:    11.4598      Z:    -3.5650

  Electronic Dipole Moment: [e a0]
     X:    -2.8461      Y:   -11.4743      Z:     3.7094

  Dipole Moment: [e a0]
     X:    -0.0465      Y:    -0.0145      Z:     0.1444     Total:     0.1524

  Dipole Moment: [D]
     X:    -0.1181      Y:    -0.0368      Z:     0.3671     Total:     0.3874

*** tstop() called on ds3 at Tue Apr 28 13:20:09 2020
Module time:
	user time   =     112.58 seconds =       1.88 minutes
	system time =      44.56 seconds =       0.74 minutes
	total time  =        323 seconds =       5.38 minutes
Total time:
	user time   =     112.58 seconds =       1.88 minutes
	system time =      44.56 seconds =       0.74 minutes
	total time  =        323 seconds =       5.38 minutes
                                     G D M A

                                 by Anthony Stone

                           version 2.2.06, 22 June 2011

               Distributed Multipoles from Gaussian wavefunctions

Starting at 13:20:9 on 28 Apr 2020

Using SCF density matrix from file ./SSI/SSI-144PHE-153LYS-1-dimer.test.15853.fchk

                         Distributed Multipole Analysis

Standard DMA

Positions and radii in angstrom
Multipole moments in atomic units, ea_0^k for rank k

C          x = -1.176681  y =  0.108535  z =  2.691038 angstrom
           Maximum rank =  0   Radius =  0.650 angstrom
                   Q00  =  -0.202961

C          x =  0.479319  y = -0.489465  z =  0.911038 angstrom
           Maximum rank =  0   Radius =  0.650 angstrom
                   Q00  =  -0.090721

C          x = -0.765681  y = -0.685465  z =  1.481038 angstrom
           Maximum rank =  0   Radius =  0.650 angstrom
                   Q00  =  -0.100762

C          x =  0.860319  y = -1.228465  z = -0.201962 angstrom
           Maximum rank =  0   Radius =  0.650 angstrom
                   Q00  =  -0.022753

C          x =  0.013319  y = -2.177465  z = -0.748962 angstrom
           Maximum rank =  0   Radius =  0.650 angstrom
                   Q00  =  -0.088587

C          x = -1.612681  y = -1.637465  z =  0.923038 angstrom
           Maximum rank =  0   Radius =  0.650 angstrom
                   Q00  =  -0.024174

C          x = -1.219681  y = -2.382465  z = -0.182962 angstrom
           Maximum rank =  0   Radius =  0.650 angstrom
                   Q00  =  -0.072914

H          x =  1.160319  y =  0.233535  z =  1.339038 angstrom
           Maximum rank =  0   Radius =  0.325 angstrom
                   Q00  =   0.055546

H          x =  1.847319  y = -1.111465  z = -0.608962 angstrom
           Maximum rank =  0   Radius =  0.325 angstrom
                   Q00  =   0.064709

H          x = -2.256681  y =  0.045535  z =  2.829038 angstrom
           Maximum rank =  0   Radius =  0.325 angstrom
                   Q00  =   0.099244

H          x = -0.934681  y =  1.154535  z =  2.494038 angstrom
           Maximum rank =  0   Radius =  0.325 angstrom
                   Q00  =   0.097955

H          x =  0.325319  y = -2.765465  z = -1.602962 angstrom
           Maximum rank =  0   Radius =  0.325 angstrom
                   Q00  =   0.060291

H          x = -2.583681  y = -1.810465  z =  1.362038 angstrom
           Maximum rank =  0   Radius =  0.325 angstrom
                   Q00  =   0.056544

H          x = -1.886681  y = -3.127465  z = -0.595962 angstrom
           Maximum rank =  0   Radius =  0.325 angstrom
                   Q00  =   0.062770

H          x = -0.668691  y = -0.217099  z =  3.610768 angstrom
           Maximum rank =  0   Radius =  0.325 angstrom
                   Q00  =   0.105005

C          x =  1.481319  y =  2.589535  z = -1.138962 angstrom
           Maximum rank =  0   Radius =  0.650 angstrom
                   Q00  =  -0.083297

C          x =  0.035319  y =  3.028535  z = -0.957962 angstrom
           Maximum rank =  0   Radius =  0.650 angstrom
                   Q00  =  -0.238855

C          x =  1.654319  y =  1.847535  z = -2.455962 angstrom
           Maximum rank =  0   Radius =  0.650 angstrom
                   Q00  =  -0.240632

H          x =  2.119319  y =  3.471535  z = -1.185962 angstrom
           Maximum rank =  0   Radius =  0.325 angstrom
                   Q00  =   0.040402

H          x =  1.789319  y =  1.973535  z = -0.294962 angstrom
           Maximum rank =  0   Radius =  0.325 angstrom
                   Q00  =   0.047138

H          x = -0.524681  y =  2.216535  z = -0.487962 angstrom
           Maximum rank =  0   Radius =  0.325 angstrom
                   Q00  =   0.091610

H          x = -0.410681  y =  3.220535  z = -1.935962 angstrom
           Maximum rank =  0   Radius =  0.325 angstrom
                   Q00  =   0.071920

H          x =  1.066319  y =  0.929535  z = -2.439962 angstrom
           Maximum rank =  0   Radius =  0.325 angstrom
                   Q00  =   0.081112

H          x =  1.293319  y =  2.459535  z = -3.278962 angstrom
           Maximum rank =  0   Radius =  0.325 angstrom
                   Q00  =   0.076625

H          x = -0.059101  y =  3.945375  z = -0.357552 angstrom
           Maximum rank =  0   Radius =  0.325 angstrom
                   Q00  =   0.077819

H          x =  2.710049  y =  1.605955  z = -2.648502 angstrom
           Maximum rank =  0   Radius =  0.325 angstrom
                   Q00  =   0.076964

Total multipoles referred to origin at
           x =   0.000000,  y =    0.000000,  z =    0.000000 angstrom
                   Q00  =  -0.000000

Finished at 13:20:9 on 28 Apr 2020

  DMA results are available in the Python driver through the
	  variable('DMA DISTRIBUTED MULTIPOLES')
  and
	  variable('DMA TOTAL MULTIPOLES')
  commands.

    Psi4 stopped on: Tuesday, 28 April 2020 01:20PM
    Psi4 wall time for execution: 0:05:23.14

*** Psi4 exiting successfully. Buy a developer a beer!
