                               Psi4 1.3.2 release

  ==> Input File <==

--------------------------------------------------------------------------
import numpy as np
set {scf_type pk
basis cc-pvdz
d_convergence 10
gdma_switch   0
gdma_limit    0
gdma_origin   [ 0.0,  0.0,  0.0 ]
}
molecule test {
    units Angstrom
    0 1
    --
    0 1
    C                0.108851020459480    -2.735904143412611    -1.799607276560385
    C                1.372851020459479     0.487095856587389    -0.237607276560385
    C                0.846851020459480    -0.417904143412612    -1.177607276560385
    C                1.716851020459480     0.046095856587388     1.073392723439615
    C                0.653851020459480    -1.753904143412611    -0.823607276560385
    C                1.525851020459479    -1.290904143412612     1.419392723439615
    C                0.990851020459480    -2.181904143412612     0.475392723439615
    H                1.488851020459480     1.525095856587388    -0.514607276560385
    H                0.559851020459480    -0.068904143412612    -2.158607276560385
    H                2.118851020459479     0.744095856587389     1.794392723439615
    H                1.772851020459479    -1.636904143412611     2.414392723439616
    H               -0.609148979540520    -2.239904143412612    -2.445607276560385
    H               -0.437148979540520    -3.494904143412612    -1.245607276560385
    H                0.815851020459480    -3.211904143412611     0.744392723439615
    H                0.879881020459480    -3.222344143412611    -2.415147276560385
    C               -1.919148979540520     2.495095856587389    -0.144607276560385
    C               -3.354148979540521     2.021095856587388     0.118392723439615
    C               -1.065148979540521     2.691095856587389     1.132392723439615
    H               -1.417148979540520     1.793095856587388    -0.811607276560385
    H               -1.954148979540520     3.460095856587388    -0.636607276560385
    H               -3.785148979540521     2.621095856587389     0.919392723439615
    H               -0.933148979540520     1.748095856587389     1.660392723439615
    H               -0.084148979540520     3.061095856587388     0.841392723439615
    H               -1.542148979540521     3.418095856587389     1.788392723439615
    H               -3.962488979540521     2.160345856587389    -0.787437276560385
    H               -3.359818979540520     0.964615856587389     0.424699723439615

}
e, wfn = energy('scf', return_wfn=True)
gdma(wfn)
dmavals = variable('DMA DISTRIBUTED MULTIPOLES')
charges = np.array(dmavals)
print(charges)
np.save('SSI-068PHE-077ILE-1-dimer.npy', np.array(charges))--------------------------------------------------------------------------

*** tstart() called on ds3
*** at Tue Apr 28 14:16:20 2020

   => Loading Basis Set <=

    Name: CC-PVDZ
    Role: ORBITAL
    Keyword: BASIS
    atoms 1-7, 16-18  entry C          line   138 file /theoryfs2/ds/metcalf/miniconda2/envs/tf2gpu/share/psi4/basis/cc-pvdz.gbs
    atoms 8-15, 19-26 entry H          line    22 file /theoryfs2/ds/metcalf/miniconda2/envs/tf2gpu/share/psi4/basis/cc-pvdz.gbs

         ---------------------------------------------------------
                                   SCF
               by Justin Turney, Rob Parrish, Andy Simmonett
                          and Daniel G. A. Smith
                              RHF Reference
                        1 Threads,    500 MiB Core
         ---------------------------------------------------------

  ==> Geometry <==

    Molecular point group: c1
    Full point group: C1

    Geometry (in Angstrom), charge = 0, multiplicity = 1:

       Center              X                  Y                   Z               Mass
    ------------   -----------------  -----------------  -----------------  -----------------
         C            0.108851020459    -2.735904143413    -1.799607276560    12.000000000000
         C            1.372851020459     0.487095856587    -0.237607276560    12.000000000000
         C            0.846851020459    -0.417904143413    -1.177607276560    12.000000000000
         C            1.716851020459     0.046095856587     1.073392723440    12.000000000000
         C            0.653851020459    -1.753904143413    -0.823607276560    12.000000000000
         C            1.525851020459    -1.290904143413     1.419392723440    12.000000000000
         C            0.990851020459    -2.181904143413     0.475392723440    12.000000000000
         H            1.488851020459     1.525095856587    -0.514607276560     1.007825032230
         H            0.559851020459    -0.068904143413    -2.158607276560     1.007825032230
         H            2.118851020459     0.744095856587     1.794392723440     1.007825032230
         H            1.772851020459    -1.636904143413     2.414392723440     1.007825032230
         H           -0.609148979541    -2.239904143413    -2.445607276560     1.007825032230
         H           -0.437148979541    -3.494904143413    -1.245607276560     1.007825032230
         H            0.815851020459    -3.211904143413     0.744392723440     1.007825032230
         H            0.879881020459    -3.222344143413    -2.415147276560     1.007825032230
         C           -1.919148979541     2.495095856587    -0.144607276560    12.000000000000
         C           -3.354148979541     2.021095856587     0.118392723440    12.000000000000
         C           -1.065148979541     2.691095856587     1.132392723440    12.000000000000
         H           -1.417148979541     1.793095856587    -0.811607276560     1.007825032230
         H           -1.954148979541     3.460095856587    -0.636607276560     1.007825032230
         H           -3.785148979541     2.621095856587     0.919392723440     1.007825032230
         H           -0.933148979541     1.748095856587     1.660392723440     1.007825032230
         H           -0.084148979541     3.061095856587     0.841392723440     1.007825032230
         H           -1.542148979541     3.418095856587     1.788392723440     1.007825032230
         H           -3.962488979541     2.160345856587    -0.787437276560     1.007825032230
         H           -3.359818979541     0.964615856587     0.424699723440     1.007825032230

  Running in c1 symmetry.

  Rotational constants: A =      0.05521  B =      0.02072  C =      0.01749 [cm^-1]
  Rotational constants: A =   1655.12315  B =    621.21236  C =    524.38214 [MHz]
  Nuclear repulsion =  487.419018338952640

  Charge       = 0
  Multiplicity = 1
  Electrons    = 76
  Nalpha       = 38
  Nbeta        = 38

  ==> Algorithm <==

  SCF Algorithm Type is PK.
  DIIS enabled.
  MOM disabled.
  Fractional occupation disabled.
  Guess Type is SAD.
  Energy threshold   = 1.00e-06
  Density threshold  = 1.00e-10
  Integral threshold = 0.00e+00

  ==> Primary Basis <==

  Basis Set: CC-PVDZ
    Blend: CC-PVDZ
    Number of shells: 108
    Number of basis function: 220
    Number of Cartesian functions: 230
    Spherical Harmonics?: true
    Max angular momentum: 2

  ==> Pre-Iterations <==

   -------------------------------------------------------
    Irrep   Nso     Nmo     Nalpha   Nbeta   Ndocc  Nsocc
   -------------------------------------------------------
     A        220     220       0       0       0       0
   -------------------------------------------------------
    Total     220     220      38      38      38       0
   -------------------------------------------------------

  ==> Integral Setup <==

  Using integral reordering PK algorithm.
  Sizing the integral batches needed.
  Building batch lookup table.
   Calculation information:
      Number of atoms:                  26
      Number of AO shells:             108
      Number of primitives:            300
      Number of atomic orbitals:       230
      Number of basis functions:       220

      Integral cutoff                 1.00e-12
      Number of threads:                 1

	Batch   1 pq = [       0,    9405] index = [             0,44231715] size =     44231715
	Batch   2 pq = [    9405,   13301] index = [      44231715,88464951] size =     44233236
	Batch   3 pq = [   13301,   16290] index = [      88464951,132690195] size =     44225244
	Batch   4 pq = [   16290,   18810] index = [     132690195,176917455] size =     44227260
	Batch   5 pq = [   18810,   21030] index = [     176917455,221140965] size =     44223510
	Batch   6 pq = [   21030,   23037] index = [     221140965,265363203] size =     44222238
	Batch   7 pq = [   23037,   24310] index = [     265363203,295500205] size =     30137002
  Task number: 27
  Buffer size: 11059200
  Buffer per thread: 2
  We computed 15472342 shell quartets total.
  Whereas there are 17325441 unique shell quartets.

  ==> DiskJK: Disk-Based J/K Matrices <==

    J tasked:                  Yes
    K tasked:                  Yes
    wK tasked:                  No
    Memory [MiB]:              375
    Schwarz Cutoff:          1E-12

    OpenMP threads:              1

  Minimum eigenvalue in the overlap matrix is 3.3809601074E-04.
  Using Symmetric Orthogonalization.

  SCF Guess: Superposition of Atomic Densities via on-the-fly atomic UHF.

  ==> Iterations <==

                        Total Energy        Delta E     RMS |[F,P]|

   @RHF iter SAD:  -386.73908184192248   -3.86739e+02   0.00000e+00
   @RHF iter   1:  -387.77395308078133   -1.03487e+00   2.72018e-03 DIIS
   @RHF iter   2:  -387.98942386705937   -2.15471e-01   1.13882e-03 DIIS
   @RHF iter   3:  -388.02366402047335   -3.42402e-02   2.51226e-04 DIIS
   @RHF iter   4:  -388.02653628064525   -2.87226e-03   5.86892e-05 DIIS
   @RHF iter   5:  -388.02664309538386   -1.06815e-04   1.86746e-05 DIIS
   @RHF iter   6:  -388.02665387006891   -1.07747e-05   5.15389e-06 DIIS
   @RHF iter   7:  -388.02665481492051   -9.44852e-07   1.09881e-06 DIIS
   @RHF iter   8:  -388.02665486891237   -5.39919e-08   2.74120e-07 DIIS
   @RHF iter   9:  -388.02665487481067   -5.89830e-09   1.01774e-07 DIIS
   @RHF iter  10:  -388.02665487593828   -1.12760e-09   5.28891e-08 DIIS
   @RHF iter  11:  -388.02665487631657   -3.78293e-10   2.07322e-08 DIIS
   @RHF iter  12:  -388.02665487639638   -7.98082e-11   8.84824e-09 DIIS
   @RHF iter  13:  -388.02665487640212   -5.74119e-12   3.91165e-09 DIIS
   @RHF iter  14:  -388.02665487640508   -2.95586e-12   1.04394e-09 DIIS
   @RHF iter  15:  -388.02665487640593   -8.52651e-13   3.18280e-10 DIIS
   @RHF iter  16:  -388.02665487640490    1.02318e-12   1.24227e-10 DIIS
   @RHF iter  17:  -388.02665487640695   -2.04636e-12   5.55693e-11 DIIS
  Energy and wave function converged.

  ==> Post-Iterations <==

    Orbital Energies [Eh]
    ---------------------

    Doubly Occupied:

       1A    -11.242166     2A    -11.242094     3A    -11.239355
       4A    -11.236701     5A    -11.233832     6A    -11.233243
       7A    -11.227700     8A    -11.215142     9A    -11.213753
      10A    -11.210069    11A     -1.146789    12A     -1.044927
      13A     -1.043416    14A     -1.008087    15A     -0.930496
      16A     -0.920003    17A     -0.824319    18A     -0.794493
      19A     -0.791626    20A     -0.688593    21A     -0.634524
      22A     -0.628396    23A     -0.619541    24A     -0.588495
      25A     -0.581726    26A     -0.579335    27A     -0.562716
      28A     -0.544356    29A     -0.534422    30A     -0.529527
      31A     -0.486515    32A     -0.483754    33A     -0.480654
      34A     -0.467171    35A     -0.465457    36A     -0.459550
      37A     -0.331317    38A     -0.318336

    Virtual:

      39A      0.131270    40A      0.135617    41A      0.174257
      42A      0.194343    43A      0.201054    44A      0.213171
      45A      0.230390    46A      0.236852    47A      0.248749
      48A      0.252627    49A      0.258901    50A      0.262152
      51A      0.277378    52A      0.286922    53A      0.292419
      54A      0.308397    55A      0.315724    56A      0.328129
      57A      0.356948    58A      0.373857    59A      0.385931
      60A      0.424514    61A      0.447247    62A      0.459046
      63A      0.479987    64A      0.489474    65A      0.558197
      66A      0.580797    67A      0.586600    68A      0.604304
      69A      0.611596    70A      0.627940    71A      0.642461
      72A      0.645872    73A      0.675120    74A      0.683538
      75A      0.706541    76A      0.725247    77A      0.734164
      78A      0.740112    79A      0.745360    80A      0.751070
      81A      0.762035    82A      0.775841    83A      0.787866
      84A      0.808055    85A      0.825792    86A      0.845288
      87A      0.853486    88A      0.860010    89A      0.869752
      90A      0.874801    91A      0.886759    92A      0.889471
      93A      0.897947    94A      0.899922    95A      0.901883
      96A      0.908883    97A      0.914466    98A      0.920681
      99A      0.926914   100A      0.940083   101A      0.946875
     102A      0.951875   103A      0.962740   104A      0.978063
     105A      0.999853   106A      1.010739   107A      1.032155
     108A      1.066995   109A      1.109905   110A      1.128617
     111A      1.132928   112A      1.145585   113A      1.152586
     114A      1.158572   115A      1.184111   116A      1.204460
     117A      1.234472   118A      1.245043   119A      1.247113
     120A      1.265585   121A      1.297357   122A      1.303110
     123A      1.311802   124A      1.328356   125A      1.384666
     126A      1.411022   127A      1.473314   128A      1.484377
     129A      1.508854   130A      1.512724   131A      1.526740
     132A      1.561049   133A      1.595806   134A      1.648498
     135A      1.670686   136A      1.687722   137A      1.699560
     138A      1.703368   139A      1.705000   140A      1.725999
     141A      1.756910   142A      1.759318   143A      1.792135
     144A      1.802845   145A      1.847273   146A      1.854005
     147A      1.871072   148A      1.879267   149A      1.892114
     150A      1.897157   151A      1.903534   152A      1.916479
     153A      1.918488   154A      1.923255   155A      1.936117
     156A      1.943623   157A      1.947730   158A      1.955069
     159A      1.963793   160A      1.973191   161A      1.984358
     162A      1.987782   163A      1.990087   164A      2.000047
     165A      2.007810   166A      2.025335   167A      2.032477
     168A      2.052818   169A      2.059964   170A      2.070476
     171A      2.106522   172A      2.129793   173A      2.138044
     174A      2.141284   175A      2.150069   176A      2.161745
     177A      2.166219   178A      2.182318   179A      2.256202
     180A      2.269671   181A      2.286268   182A      2.292728
     183A      2.297798   184A      2.304786   185A      2.308024
     186A      2.319677   187A      2.339808   188A      2.362508
     189A      2.466323   190A      2.476521   191A      2.488043
     192A      2.491066   193A      2.531216   194A      2.544148
     195A      2.584535   196A      2.615602   197A      2.617582
     198A      2.637419   199A      2.732988   200A      2.745115
     201A      2.762041   202A      2.768492   203A      2.773649
     204A      2.779780   205A      2.801618   206A      2.804645
     207A      2.829819   208A      2.851823   209A      2.872515
     210A      2.920310   211A      2.956684   212A      2.975410
     213A      2.980648   214A      2.994162   215A      3.012426
     216A      3.064293   217A      3.139224   218A      3.179822
     219A      3.274660   220A      3.928863

    Final Occupation by Irrep:
              A
    DOCC [    38 ]

  @RHF Final Energy:  -388.02665487640695

   => Energetics <=

    Nuclear Repulsion Energy =            487.4190183389526396
    One-Electron Energy =               -1489.3261539770937816
    Two-Electron Energy =                 613.8804807617342476
    Total Energy =                       -388.0266548764069512

Computation Completed

Properties will be evaluated at   0.000000,   0.000000,   0.000000 [a0]

Properties computed using the SCF density matrix

  Nuclear Dipole Moment: [e a0]
     X:    -9.7950      Y:     7.1443      Z:    -0.4010

  Electronic Dipole Moment: [e a0]
     X:     9.7827      Y:    -7.2738      Z:     0.3044

  Dipole Moment: [e a0]
     X:    -0.0123      Y:    -0.1295      Z:    -0.0966     Total:     0.1620

  Dipole Moment: [D]
     X:    -0.0313      Y:    -0.3290      Z:    -0.2455     Total:     0.4117

*** tstop() called on ds3 at Tue Apr 28 14:20:07 2020
Module time:
	user time   =     107.43 seconds =       1.79 minutes
	system time =      42.53 seconds =       0.71 minutes
	total time  =        227 seconds =       3.78 minutes
Total time:
	user time   =     107.43 seconds =       1.79 minutes
	system time =      42.53 seconds =       0.71 minutes
	total time  =        227 seconds =       3.78 minutes
                                     G D M A

                                 by Anthony Stone

                           version 2.2.06, 22 June 2011

               Distributed Multipoles from Gaussian wavefunctions

Starting at 14:20:7 on 28 Apr 2020

Using SCF density matrix from file ./SSI/SSI-068PHE-077ILE-1-dimer.test.11367.fchk

                         Distributed Multipole Analysis

Standard DMA

Positions and radii in angstrom
Multipole moments in atomic units, ea_0^k for rank k

C          x =  0.108851  y = -2.735904  z = -1.799607 angstrom
           Maximum rank =  0   Radius =  0.650 angstrom
                   Q00  =  -0.199330

C          x =  1.372851  y =  0.487096  z = -0.237607 angstrom
           Maximum rank =  0   Radius =  0.650 angstrom
                   Q00  =  -0.066235

C          x =  0.846851  y = -0.417904  z = -1.177607 angstrom
           Maximum rank =  0   Radius =  0.650 angstrom
                   Q00  =  -0.090698

C          x =  1.716851  y =  0.046096  z =  1.073393 angstrom
           Maximum rank =  0   Radius =  0.650 angstrom
                   Q00  =  -0.093765

C          x =  0.653851  y = -1.753904  z = -0.823607 angstrom
           Maximum rank =  0   Radius =  0.650 angstrom
                   Q00  =  -0.097516

C          x =  1.525851  y = -1.290904  z =  1.419393 angstrom
           Maximum rank =  0   Radius =  0.650 angstrom
                   Q00  =  -0.079256

C          x =  0.990851  y = -2.181904  z =  0.475393 angstrom
           Maximum rank =  0   Radius =  0.650 angstrom
                   Q00  =   0.001168

H          x =  1.488851  y =  1.525096  z = -0.514607 angstrom
           Maximum rank =  0   Radius =  0.325 angstrom
                   Q00  =   0.070491

H          x =  0.559851  y = -0.068904  z = -2.158607 angstrom
           Maximum rank =  0   Radius =  0.325 angstrom
                   Q00  =   0.060748

H          x =  2.118851  y =  0.744096  z =  1.794393 angstrom
           Maximum rank =  0   Radius =  0.325 angstrom
                   Q00  =   0.067151

H          x =  1.772851  y = -1.636904  z =  2.414393 angstrom
           Maximum rank =  0   Radius =  0.325 angstrom
                   Q00  =   0.068049

H          x = -0.609149  y = -2.239904  z = -2.445607 angstrom
           Maximum rank =  0   Radius =  0.325 angstrom
                   Q00  =   0.097780

H          x = -0.437149  y = -3.494904  z = -1.245607 angstrom
           Maximum rank =  0   Radius =  0.325 angstrom
                   Q00  =   0.096326

H          x =  0.815851  y = -3.211904  z =  0.744393 angstrom
           Maximum rank =  0   Radius =  0.325 angstrom
                   Q00  =   0.058739

H          x =  0.879881  y = -3.222344  z = -2.415147 angstrom
           Maximum rank =  0   Radius =  0.325 angstrom
                   Q00  =   0.105540

C          x = -1.919149  y =  2.495096  z = -0.144607 angstrom
           Maximum rank =  0   Radius =  0.650 angstrom
                   Q00  =  -0.090052

C          x = -3.354149  y =  2.021096  z =  0.118393 angstrom
           Maximum rank =  0   Radius =  0.650 angstrom
                   Q00  =  -0.232772

C          x = -1.065149  y =  2.691096  z =  1.132393 angstrom
           Maximum rank =  0   Radius =  0.650 angstrom
                   Q00  =  -0.250333

H          x = -1.417149  y =  1.793096  z = -0.811607 angstrom
           Maximum rank =  0   Radius =  0.325 angstrom
                   Q00  =   0.054996

H          x = -1.954149  y =  3.460096  z = -0.636607 angstrom
           Maximum rank =  0   Radius =  0.325 angstrom
                   Q00  =   0.040357

H          x = -3.785149  y =  2.621096  z =  0.919393 angstrom
           Maximum rank =  0   Radius =  0.325 angstrom
                   Q00  =   0.074542

H          x = -0.933149  y =  1.748096  z =  1.660393 angstrom
           Maximum rank =  0   Radius =  0.325 angstrom
                   Q00  =   0.088025

H          x = -0.084149  y =  3.061096  z =  0.841393 angstrom
           Maximum rank =  0   Radius =  0.325 angstrom
                   Q00  =   0.077871

H          x = -1.542149  y =  3.418096  z =  1.788393 angstrom
           Maximum rank =  0   Radius =  0.325 angstrom
                   Q00  =   0.075788

H          x = -3.962489  y =  2.160346  z = -0.787437 angstrom
           Maximum rank =  0   Radius =  0.325 angstrom
                   Q00  =   0.081230

H          x = -3.359819  y =  0.964616  z =  0.424700 angstrom
           Maximum rank =  0   Radius =  0.325 angstrom
                   Q00  =   0.081156

Total multipoles referred to origin at
           x =   0.000000,  y =    0.000000,  z =    0.000000 angstrom
                   Q00  =  -0.000000

Finished at 14:20:7 on 28 Apr 2020

  DMA results are available in the Python driver through the
	  variable('DMA DISTRIBUTED MULTIPOLES')
  and
	  variable('DMA TOTAL MULTIPOLES')
  commands.

    Psi4 stopped on: Tuesday, 28 April 2020 02:20PM
    Psi4 wall time for execution: 0:03:46.78

*** Psi4 exiting successfully. Buy a developer a beer!
