                               Psi4 1.3.2 release

  ==> Input File <==

--------------------------------------------------------------------------
import numpy as np
set {scf_type pk
basis cc-pvdz
d_convergence 10
gdma_switch   0
gdma_limit    0
gdma_origin   [ 0.0,  0.0,  0.0 ]
}
molecule test {
    units Angstrom
    0 1
    --
    0 1
    C               -1.308630140391947     1.391278768667375    -2.794662866950881
    C               -0.828630140391947     0.525278768667375    -3.954662866950880
    H               -2.318630140391947     1.117278768667375    -2.512662866950880
    H               -0.686630140391947     1.212278768667375    -1.928662866950881
    H               -1.273630140391947     2.446278768667375    -3.059662866950880
    H               -0.966630140391947    -0.518721231332625    -3.686662866950881
    H               -1.390170140391947     0.724395768667375    -4.879342866950881
    H                0.246137859608053     0.682421768667375    -4.128382866950880
    C               -1.000630140391947    -2.121721231332625     2.801337133049119
    C                0.904369859608053     0.592278768667375     0.058337133049119
    C                0.278369859608053     1.082278768667375     1.195337133049119
    C                0.918369859608053    -0.773721231332625    -0.193662866950881
    C               -0.333630140391947     0.204278768667375     2.082337133049119
    C                0.302369859608053    -1.647721231332625     0.698337133049119
    C               -0.331630140391947    -1.168721231332625     1.841337133049119
    O                1.502369859608053     1.451278768667375    -0.810662866950881
    H                0.272369859608053     2.140278768667375     1.384337133049120
    H                1.401369859608053     2.369278768667375    -0.549662866950880
    H                1.419369859608053    -1.147721231332625    -1.075662866950880
    H               -0.802630140391947     0.598278768667375     2.975337133049119
    H                0.345369859608053    -2.712721231332625     0.517337133049119
    H               -0.683630140391947    -1.879721231332625     3.816337133049120
    H               -0.641630140391947    -3.132721231332625     2.602337133049120
    H               -2.099090140391947    -2.112400231332625     2.743977133049119

}
e, wfn = energy('scf', return_wfn=True)
gdma(wfn)
dmavals = variable('DMA DISTRIBUTED MULTIPOLES')
charges = np.array(dmavals)
print(charges)
np.save('SSI-154LEU-191TYR-1-dimer.npy', np.array(charges))--------------------------------------------------------------------------

*** tstart() called on ds3
*** at Tue Apr 28 11:11:35 2020

   => Loading Basis Set <=

    Name: CC-PVDZ
    Role: ORBITAL
    Keyword: BASIS
    atoms 1-2, 9-15  entry C          line   138 file /theoryfs2/ds/metcalf/miniconda2/envs/tf2gpu/share/psi4/basis/cc-pvdz.gbs
    atoms 3-8, 17-24 entry H          line    22 file /theoryfs2/ds/metcalf/miniconda2/envs/tf2gpu/share/psi4/basis/cc-pvdz.gbs
    atoms 16         entry O          line   198 file /theoryfs2/ds/metcalf/miniconda2/envs/tf2gpu/share/psi4/basis/cc-pvdz.gbs

         ---------------------------------------------------------
                                   SCF
               by Justin Turney, Rob Parrish, Andy Simmonett
                          and Daniel G. A. Smith
                              RHF Reference
                        1 Threads,    500 MiB Core
         ---------------------------------------------------------

  ==> Geometry <==

    Molecular point group: c1
    Full point group: C1

    Geometry (in Angstrom), charge = 0, multiplicity = 1:

       Center              X                  Y                   Z               Mass
    ------------   -----------------  -----------------  -----------------  -----------------
         C           -1.308630140392     1.391278768667    -2.794662866951    12.000000000000
         C           -0.828630140392     0.525278768667    -3.954662866951    12.000000000000
         H           -2.318630140392     1.117278768667    -2.512662866951     1.007825032230
         H           -0.686630140392     1.212278768667    -1.928662866951     1.007825032230
         H           -1.273630140392     2.446278768667    -3.059662866951     1.007825032230
         H           -0.966630140392    -0.518721231333    -3.686662866951     1.007825032230
         H           -1.390170140392     0.724395768667    -4.879342866951     1.007825032230
         H            0.246137859608     0.682421768667    -4.128382866951     1.007825032230
         C           -1.000630140392    -2.121721231333     2.801337133049    12.000000000000
         C            0.904369859608     0.592278768667     0.058337133049    12.000000000000
         C            0.278369859608     1.082278768667     1.195337133049    12.000000000000
         C            0.918369859608    -0.773721231333    -0.193662866951    12.000000000000
         C           -0.333630140392     0.204278768667     2.082337133049    12.000000000000
         C            0.302369859608    -1.647721231333     0.698337133049    12.000000000000
         C           -0.331630140392    -1.168721231333     1.841337133049    12.000000000000
         O            1.502369859608     1.451278768667    -0.810662866951    15.994914619570
         H            0.272369859608     2.140278768667     1.384337133049     1.007825032230
         H            1.401369859608     2.369278768667    -0.549662866951     1.007825032230
         H            1.419369859608    -1.147721231333    -1.075662866951     1.007825032230
         H           -0.802630140392     0.598278768667     2.975337133049     1.007825032230
         H            0.345369859608    -2.712721231333     0.517337133049     1.007825032230
         H           -0.683630140392    -1.879721231333     3.816337133049     1.007825032230
         H           -0.641630140392    -3.132721231333     2.602337133049     1.007825032230
         H           -2.099090140392    -2.112400231333     2.743977133049     1.007825032230

  Running in c1 symmetry.

  Rotational constants: A =      0.06412  B =      0.02100  C =      0.01897 [cm^-1]
  Rotational constants: A =   1922.18170  B =    629.57979  C =    568.75766 [MHz]
  Nuclear repulsion =  500.010409940930856

  Charge       = 0
  Multiplicity = 1
  Electrons    = 76
  Nalpha       = 38
  Nbeta        = 38

  ==> Algorithm <==

  SCF Algorithm Type is PK.
  DIIS enabled.
  MOM disabled.
  Fractional occupation disabled.
  Guess Type is SAD.
  Energy threshold   = 1.00e-06
  Density threshold  = 1.00e-10
  Integral threshold = 0.00e+00

  ==> Primary Basis <==

  Basis Set: CC-PVDZ
    Blend: CC-PVDZ
    Number of shells: 102
    Number of basis function: 210
    Number of Cartesian functions: 220
    Spherical Harmonics?: true
    Max angular momentum: 2

  ==> Pre-Iterations <==

   -------------------------------------------------------
    Irrep   Nso     Nmo     Nalpha   Nbeta   Ndocc  Nsocc
   -------------------------------------------------------
     A        210     210       0       0       0       0
   -------------------------------------------------------
    Total     210     210      38      38      38       0
   -------------------------------------------------------

  ==> Integral Setup <==

  Using integral reordering PK algorithm.
  Sizing the integral batches needed.
  Building batch lookup table.
   Calculation information:
      Number of atoms:                  24
      Number of AO shells:             102
      Number of primitives:            290
      Number of atomic orbitals:       220
      Number of basis functions:       210

      Integral cutoff                 1.00e-12
      Number of threads:                 1

	Batch   1 pq = [       0,    9405] index = [             0,44231715] size =     44231715
	Batch   2 pq = [    9405,   13301] index = [      44231715,88464951] size =     44233236
	Batch   3 pq = [   13301,   16290] index = [      88464951,132690195] size =     44225244
	Batch   4 pq = [   16290,   18810] index = [     132690195,176917455] size =     44227260
	Batch   5 pq = [   18810,   21030] index = [     176917455,221140965] size =     44223510
	Batch   6 pq = [   21030,   22155] index = [     221140965,245433090] size =     24292125
  Task number: 23
  Buffer size: 11059200
  Buffer per thread: 2
  We computed 11941120 shell quartets total.
  Whereas there are 13799631 unique shell quartets.

  ==> DiskJK: Disk-Based J/K Matrices <==

    J tasked:                  Yes
    K tasked:                  Yes
    wK tasked:                  No
    Memory [MiB]:              375
    Schwarz Cutoff:          1E-12

    OpenMP threads:              1

  Minimum eigenvalue in the overlap matrix is 3.1225886523E-04.
  Using Symmetric Orthogonalization.

  SCF Guess: Superposition of Atomic Densities via on-the-fly atomic UHF.

  ==> Iterations <==

                        Total Energy        Delta E     RMS |[F,P]|

   @RHF iter SAD:  -422.73458986379944   -4.22735e+02   0.00000e+00
   @RHF iter   1:  -423.60107347875032   -8.66484e-01   2.98856e-03 DIIS
   @RHF iter   2:  -423.81843515129111   -2.17362e-01   1.26048e-03 DIIS
   @RHF iter   3:  -423.85361301706757   -3.51779e-02   2.82739e-04 DIIS
   @RHF iter   4:  -423.85646252931804   -2.84951e-03   1.16709e-04 DIIS
   @RHF iter   5:  -423.85681277266303   -3.50243e-04   2.07788e-05 DIIS
   @RHF iter   6:  -423.85683023852738   -1.74659e-05   6.37983e-06 DIIS
   @RHF iter   7:  -423.85683183971884   -1.60119e-06   2.05844e-06 DIIS
   @RHF iter   8:  -423.85683205750973   -2.17791e-07   7.74985e-07 DIIS
   @RHF iter   9:  -423.85683209166996   -3.41602e-08   3.05009e-07 DIIS
   @RHF iter  10:  -423.85683209813726   -6.46730e-09   1.27730e-07 DIIS
   @RHF iter  11:  -423.85683210003185   -1.89459e-09   5.81019e-08 DIIS
   @RHF iter  12:  -423.85683210043715   -4.05294e-10   2.84607e-08 DIIS
   @RHF iter  13:  -423.85683210051542   -7.82734e-11   7.82400e-09 DIIS
   @RHF iter  14:  -423.85683210052025   -4.83169e-12   2.13118e-09 DIIS
   @RHF iter  15:  -423.85683210051724    3.01270e-12   6.32984e-10 DIIS
   @RHF iter  16:  -423.85683210051735   -1.13687e-13   1.92828e-10 DIIS
   @RHF iter  17:  -423.85683210051690    4.54747e-13   6.84918e-11 DIIS
  Energy and wave function converged.

  ==> Post-Iterations <==

    Orbital Energies [Eh]
    ---------------------

    Doubly Occupied:

       1A    -20.584899     2A    -11.298865     3A    -11.239606
       4A    -11.238584     5A    -11.233930     6A    -11.233008
       7A    -11.230618     8A    -11.228677     9A    -11.209620
      10A    -11.203149    11A     -1.403606    12A     -1.152844
      13A     -1.038722    14A     -1.019500    15A     -1.009443
      16A     -0.927515    17A     -0.846628    18A     -0.829215
      19A     -0.804159    20A     -0.735228    21A     -0.669595
      22A     -0.642503    23A     -0.608912    24A     -0.601601
      25A     -0.589233    26A     -0.588034    27A     -0.579495
      28A     -0.569933    29A     -0.567034    30A     -0.525920
      31A     -0.499427    32A     -0.492744    33A     -0.485361
      34A     -0.477243    35A     -0.473651    36A     -0.468611
      37A     -0.340033    38A     -0.303575

    Virtual:

      39A      0.128880    40A      0.155562    41A      0.173441
      42A      0.186419    43A      0.196830    44A      0.215873
      45A      0.225066    46A      0.243337    47A      0.259584
      48A      0.264963    49A      0.266618    50A      0.278576
      51A      0.282363    52A      0.295178    53A      0.297191
      54A      0.326010    55A      0.369270    56A      0.374163
      57A      0.407115    58A      0.443642    59A      0.453494
      60A      0.485329    61A      0.495837    62A      0.514585
      63A      0.595180    64A      0.603977    65A      0.606161
      66A      0.619530    67A      0.633032    68A      0.655842
      69A      0.658641    70A      0.679552    71A      0.687234
      72A      0.698229    73A      0.707443    74A      0.731389
      75A      0.734832    76A      0.738885    77A      0.748748
      78A      0.770683    79A      0.776984    80A      0.787154
      81A      0.813329    82A      0.839110    83A      0.846972
      84A      0.857964    85A      0.873569    86A      0.879293
      87A      0.887956    88A      0.890722    89A      0.897196
      90A      0.905102    91A      0.911437    92A      0.913764
      93A      0.926233    94A      0.933247    95A      0.936278
      96A      0.946195    97A      0.962512    98A      0.982163
      99A      0.996776   100A      1.021417   101A      1.062307
     102A      1.081813   103A      1.120116   104A      1.131126
     105A      1.142210   106A      1.148192   107A      1.161880
     108A      1.168848   109A      1.205682   110A      1.240550
     111A      1.245105   112A      1.263576   113A      1.276433
     114A      1.290696   115A      1.304455   116A      1.315280
     117A      1.352420   118A      1.364203   119A      1.380049
     120A      1.432041   121A      1.477264   122A      1.486221
     123A      1.492825   124A      1.513471   125A      1.524787
     126A      1.551261   127A      1.591207   128A      1.617641
     129A      1.629134   130A      1.682482   131A      1.694945
     132A      1.696693   133A      1.727963   134A      1.738068
     135A      1.747495   136A      1.779471   137A      1.803829
     138A      1.808639   139A      1.861677   140A      1.880886
     141A      1.883242   142A      1.889227   143A      1.896900
     144A      1.903994   145A      1.911436   146A      1.920241
     147A      1.930639   148A      1.947387   149A      1.957002
     150A      1.962672   151A      1.965323   152A      1.966548
     153A      1.973334   154A      1.986485   155A      1.992091
     156A      2.014405   157A      2.028289   158A      2.047617
     159A      2.065505   160A      2.070911   161A      2.073243
     162A      2.112780   163A      2.119376   164A      2.132859
     165A      2.157811   166A      2.175416   167A      2.200136
     168A      2.225033   169A      2.258059   170A      2.272082
     171A      2.301310   172A      2.320152   173A      2.327228
     174A      2.343916   175A      2.399958   176A      2.411497
     177A      2.461156   178A      2.468368   179A      2.470872
     180A      2.483128   181A      2.507127   182A      2.527488
     183A      2.568129   184A      2.596659   185A      2.602169
     186A      2.612715   187A      2.652497   188A      2.747030
     189A      2.769490   190A      2.772934   191A      2.795436
     192A      2.808157   193A      2.833520   194A      2.845487
     195A      2.869951   196A      2.897348   197A      2.901630
     198A      2.965031   199A      2.981475   200A      2.990158
     201A      3.050168   202A      3.096621   203A      3.116399
     204A      3.252657   205A      3.286109   206A      3.351576
     207A      3.590854   208A      3.678278   209A      3.987676
     210A      4.197728

    Final Occupation by Irrep:
              A
    DOCC [    38 ]

  @RHF Final Energy:  -423.85683210051690

   => Energetics <=

    Nuclear Repulsion Energy =            500.0104099409308560
    One-Electron Energy =               -1565.8330370866674457
    Two-Electron Energy =                 641.9657950452196928
    Total Energy =                       -423.8568321005168400

Computation Completed

Properties will be evaluated at   0.000000,   0.000000,   0.000000 [a0]

Properties computed using the SCF density matrix

  Nuclear Dipole Moment: [e a0]
     X:    -6.7220      Y:    -0.1932      Z:    -7.2984

  Electronic Dipole Moment: [e a0]
     X:     6.5425      Y:     0.4646      Z:     7.8281

  Dipole Moment: [e a0]
     X:    -0.1795      Y:     0.2714      Z:     0.5298     Total:     0.6217

  Dipole Moment: [D]
     X:    -0.4563      Y:     0.6899      Z:     1.3465     Total:     1.5803

*** tstop() called on ds3 at Tue Apr 28 11:13:31 2020
Module time:
	user time   =      86.38 seconds =       1.44 minutes
	system time =      34.57 seconds =       0.58 minutes
	total time  =        116 seconds =       1.93 minutes
Total time:
	user time   =      86.38 seconds =       1.44 minutes
	system time =      34.57 seconds =       0.58 minutes
	total time  =        116 seconds =       1.93 minutes
                                     G D M A

                                 by Anthony Stone

                           version 2.2.06, 22 June 2011

               Distributed Multipoles from Gaussian wavefunctions

Starting at 11:13:31 on 28 Apr 2020

Using SCF density matrix from file ./SSI/SSI-154LEU-191TYR-1-dimer.test.361.fchk

                         Distributed Multipole Analysis

Standard DMA

Positions and radii in angstrom
Multipole moments in atomic units, ea_0^k for rank k

C          x = -1.308630  y =  1.391279  z = -2.794663 angstrom
           Maximum rank =  0   Radius =  0.650 angstrom
                   Q00  =  -0.230743

C          x = -0.828630  y =  0.525279  z = -3.954663 angstrom
           Maximum rank =  0   Radius =  0.650 angstrom
                   Q00  =  -0.241656

H          x = -2.318630  y =  1.117279  z = -2.512663 angstrom
           Maximum rank =  0   Radius =  0.325 angstrom
                   Q00  =   0.073007

H          x = -0.686630  y =  1.212279  z = -1.928663 angstrom
           Maximum rank =  0   Radius =  0.325 angstrom
                   Q00  =   0.085620

H          x = -1.273630  y =  2.446279  z = -3.059663 angstrom
           Maximum rank =  0   Radius =  0.325 angstrom
                   Q00  =   0.069944

H          x = -0.966630  y = -0.518721  z = -3.686663 angstrom
           Maximum rank =  0   Radius =  0.325 angstrom
                   Q00  =   0.075703

H          x = -1.390170  y =  0.724396  z = -4.879343 angstrom
           Maximum rank =  0   Radius =  0.325 angstrom
                   Q00  =   0.075007

H          x =  0.246138  y =  0.682422  z = -4.128383 angstrom
           Maximum rank =  0   Radius =  0.325 angstrom
                   Q00  =   0.078655

C          x = -1.000630  y = -2.121721  z =  2.801337 angstrom
           Maximum rank =  0   Radius =  0.650 angstrom
                   Q00  =  -0.197844

C          x =  0.904370  y =  0.592279  z =  0.058337 angstrom
           Maximum rank =  0   Radius =  0.650 angstrom
                   Q00  =   0.312209

C          x =  0.278370  y =  1.082279  z =  1.195337 angstrom
           Maximum rank =  0   Radius =  0.650 angstrom
                   Q00  =  -0.171913

C          x =  0.918370  y = -0.773721  z = -0.193663 angstrom
           Maximum rank =  0   Radius =  0.650 angstrom
                   Q00  =  -0.117689

C          x = -0.333630  y =  0.204279  z =  2.082337 angstrom
           Maximum rank =  0   Radius =  0.650 angstrom
                   Q00  =   0.020897

C          x =  0.302370  y = -1.647721  z =  0.698337 angstrom
           Maximum rank =  0   Radius =  0.650 angstrom
                   Q00  =  -0.014623

C          x = -0.331630  y = -1.168721  z =  1.841337 angstrom
           Maximum rank =  0   Radius =  0.650 angstrom
                   Q00  =  -0.130855

O          x =  1.502370  y =  1.451279  z = -0.810663 angstrom
           Maximum rank =  0   Radius =  0.650 angstrom
                   Q00  =  -0.668042

H          x =  0.272370  y =  2.140279  z =  1.384337 angstrom
           Maximum rank =  0   Radius =  0.325 angstrom
                   Q00  =   0.069371

H          x =  1.401370  y =  2.369279  z = -0.549663 angstrom
           Maximum rank =  0   Radius =  0.325 angstrom
                   Q00  =   0.407160

H          x =  1.419370  y = -1.147721  z = -1.075663 angstrom
           Maximum rank =  0   Radius =  0.325 angstrom
                   Q00  =   0.081346

H          x = -0.802630  y =  0.598279  z =  2.975337 angstrom
           Maximum rank =  0   Radius =  0.325 angstrom
                   Q00  =   0.067274

H          x =  0.345370  y = -2.712721  z =  0.517337 angstrom
           Maximum rank =  0   Radius =  0.325 angstrom
                   Q00  =   0.065032

H          x = -0.683630  y = -1.879721  z =  3.816337 angstrom
           Maximum rank =  0   Radius =  0.325 angstrom
                   Q00  =   0.096017

H          x = -0.641630  y = -3.132721  z =  2.602337 angstrom
           Maximum rank =  0   Radius =  0.325 angstrom
                   Q00  =   0.095113

H          x = -2.099090  y = -2.112400  z =  2.743977 angstrom
           Maximum rank =  0   Radius =  0.325 angstrom
                   Q00  =   0.101012

Total multipoles referred to origin at
           x =   0.000000,  y =    0.000000,  z =    0.000000 angstrom
                   Q00  =  -0.000000

Finished at 11:13:32 on 28 Apr 2020

  DMA results are available in the Python driver through the
	  variable('DMA DISTRIBUTED MULTIPOLES')
  and
	  variable('DMA TOTAL MULTIPOLES')
  commands.

    Psi4 stopped on: Tuesday, 28 April 2020 11:13AM
    Psi4 wall time for execution: 0:01:56.98

*** Psi4 exiting successfully. Buy a developer a beer!
