                               Psi4 1.3.2 release

  ==> Input File <==

--------------------------------------------------------------------------
import numpy as np
set {scf_type pk
basis cc-pvdz
d_convergence 10
gdma_switch   0
gdma_limit    0
gdma_origin   [ 0.0,  0.0,  0.0 ]
}
molecule test {
    units Angstrom
    0 1
    --
    0 1
    C                0.766664583251963    -0.931005366667969    -1.216542033464828
    C                0.593664583251963    -0.287005366667968    -2.590542033464828
    H                1.406664583251963    -0.306005366667968    -0.591542033464828
    H               -0.206335416748037    -1.027005366667968    -0.735542033464828
    H                1.224664583251963    -1.914005366667968    -1.299542033464828
    H               -0.070335416748037    -0.912005366667969    -3.189542033464829
    H                1.570964583251963    -0.195565366667969    -3.087052033464829
    H                0.125424583251963     0.702134633332032    -2.479432033464828
    C               -0.398335416748037     1.244994633332031     1.588457966535171
    C               -0.963335416748037    -0.027005366667969     2.216457966535172
    H               -0.486335416748037     2.078994633332031     2.286457966535172
    H                0.654664583251963     1.097994633332032     1.345457966535172
    H               -0.926335416748037     1.483994633332032     0.665457966535172
    H               -0.991335416748037    -0.819005366667968     1.467457966535171
    H               -1.977995416748037     0.152014633332031     2.601697966535172
    H               -0.307735416748037    -0.341285366667968     3.041937966535171

}
e, wfn = energy('scf', return_wfn=True)
gdma(wfn)
dmavals = variable('DMA DISTRIBUTED MULTIPOLES')
charges = np.array(dmavals)
print(charges)
np.save('SSI-096VAL-108THR-1-dimer.npy', np.array(charges))--------------------------------------------------------------------------

*** tstart() called on ds3
*** at Tue Apr 28 11:42:55 2020

   => Loading Basis Set <=

    Name: CC-PVDZ
    Role: ORBITAL
    Keyword: BASIS
    atoms 1-2, 9-10  entry C          line   138 file /theoryfs2/ds/metcalf/miniconda2/envs/tf2gpu/share/psi4/basis/cc-pvdz.gbs
    atoms 3-8, 11-16 entry H          line    22 file /theoryfs2/ds/metcalf/miniconda2/envs/tf2gpu/share/psi4/basis/cc-pvdz.gbs

         ---------------------------------------------------------
                                   SCF
               by Justin Turney, Rob Parrish, Andy Simmonett
                          and Daniel G. A. Smith
                              RHF Reference
                        1 Threads,    500 MiB Core
         ---------------------------------------------------------

  ==> Geometry <==

    Molecular point group: c1
    Full point group: C1

    Geometry (in Angstrom), charge = 0, multiplicity = 1:

       Center              X                  Y                   Z               Mass
    ------------   -----------------  -----------------  -----------------  -----------------
         C            0.766664583252    -0.931005366668    -1.216542033465    12.000000000000
         C            0.593664583252    -0.287005366668    -2.590542033465    12.000000000000
         H            1.406664583252    -0.306005366668    -0.591542033465     1.007825032230
         H           -0.206335416748    -1.027005366668    -0.735542033465     1.007825032230
         H            1.224664583252    -1.914005366668    -1.299542033465     1.007825032230
         H           -0.070335416748    -0.912005366668    -3.189542033465     1.007825032230
         H            1.570964583252    -0.195565366668    -3.087052033465     1.007825032230
         H            0.125424583252     0.702134633332    -2.479432033465     1.007825032230
         C           -0.398335416748     1.244994633332     1.588457966535    12.000000000000
         C           -0.963335416748    -0.027005366668     2.216457966535    12.000000000000
         H           -0.486335416748     2.078994633332     2.286457966535     1.007825032230
         H            0.654664583252     1.097994633332     1.345457966535     1.007825032230
         H           -0.926335416748     1.483994633332     0.665457966535     1.007825032230
         H           -0.991335416748    -0.819005366668     1.467457966535     1.007825032230
         H           -1.977995416748     0.152014633332     2.601697966535     1.007825032230
         H           -0.307735416748    -0.341285366668     3.041937966535     1.007825032230

  Running in c1 symmetry.

  Rotational constants: A =      0.41904  B =      0.05737  C =      0.05376 [cm^-1]
  Rotational constants: A =  12562.45072  B =   1719.96454  C =   1611.80942 [MHz]
  Nuclear repulsion =  124.694059646796262

  Charge       = 0
  Multiplicity = 1
  Electrons    = 36
  Nalpha       = 18
  Nbeta        = 18

  ==> Algorithm <==

  SCF Algorithm Type is PK.
  DIIS enabled.
  MOM disabled.
  Fractional occupation disabled.
  Guess Type is SAD.
  Energy threshold   = 1.00e-06
  Density threshold  = 1.00e-10
  Integral threshold = 0.00e+00

  ==> Primary Basis <==

  Basis Set: CC-PVDZ
    Blend: CC-PVDZ
    Number of shells: 60
    Number of basis function: 116
    Number of Cartesian functions: 120
    Spherical Harmonics?: true
    Max angular momentum: 2

  ==> Pre-Iterations <==

   -------------------------------------------------------
    Irrep   Nso     Nmo     Nalpha   Nbeta   Ndocc  Nsocc
   -------------------------------------------------------
     A        116     116       0       0       0       0
   -------------------------------------------------------
    Total     116     116      18      18      18       0
   -------------------------------------------------------

  ==> Integral Setup <==

  Using integral reordering PK algorithm.
  Sizing the integral batches needed.
  Building batch lookup table.
   Calculation information:
      Number of atoms:                  16
      Number of AO shells:              60
      Number of primitives:            148
      Number of atomic orbitals:       120
      Number of basis functions:       116

      Integral cutoff                 1.00e-12
      Number of threads:                 1

	Batch   1 pq = [       0,    6786] index = [             0,23028291] size =     23028291
  Task number: 3
  Buffer size: 11059200
  Buffer per thread: 2
  We computed 1530915 shell quartets total.
  Whereas there are 1675365 unique shell quartets.

  ==> DiskJK: Disk-Based J/K Matrices <==

    J tasked:                  Yes
    K tasked:                  Yes
    wK tasked:                  No
    Memory [MiB]:              375
    Schwarz Cutoff:          1E-12

    OpenMP threads:              1

  Minimum eigenvalue in the overlap matrix is 7.3566983700E-03.
  Using Symmetric Orthogonalization.

  SCF Guess: Superposition of Atomic Densities via on-the-fly atomic UHF.

  ==> Iterations <==

                        Total Energy        Delta E     RMS |[F,P]|

   @RHF iter SAD:  -157.35957459659932   -1.57360e+02   0.00000e+00
   @RHF iter   1:  -158.30718911200896   -9.47615e-01   4.21711e-03 DIIS
   @RHF iter   2:  -158.44096103245860   -1.33772e-01   1.79973e-03 DIIS
   @RHF iter   3:  -158.46446817089145   -2.35071e-02   3.49733e-04 DIIS
   @RHF iter   4:  -158.46629252511053   -1.82435e-03   3.80820e-05 DIIS
   @RHF iter   5:  -158.46631530656157   -2.27815e-05   6.10964e-06 DIIS
   @RHF iter   6:  -158.46631588365011   -5.77089e-07   6.83163e-07 DIIS
   @RHF iter   7:  -158.46631589007686   -6.42675e-09   1.38212e-07 DIIS
   @RHF iter   8:  -158.46631589025489   -1.78034e-10   3.67670e-08 DIIS
   @RHF iter   9:  -158.46631589026998   -1.50919e-11   7.19689e-09 DIIS
   @RHF iter  10:  -158.46631589027021   -2.27374e-13   1.71112e-09 DIIS
   @RHF iter  11:  -158.46631589027075   -5.40012e-13   3.75491e-10 DIIS
   @RHF iter  12:  -158.46631589027101   -2.55795e-13   1.02050e-10 DIIS
   @RHF iter  13:  -158.46631589027137   -3.69482e-13   2.18474e-11 DIIS
  Energy and wave function converged.

  ==> Post-Iterations <==

    Orbital Energies [Eh]
    ---------------------

    Doubly Occupied:

       1A    -11.219835     2A    -11.218709     3A    -11.216601
       4A    -11.216504     5A     -1.020526     6A     -1.016916
       7A     -0.836814     8A     -0.835791     9A     -0.606668
      10A     -0.600176    11A     -0.595393    12A     -0.592092
      13A     -0.501271    14A     -0.498872    15A     -0.492267
      16A     -0.487156    17A     -0.482955    18A     -0.479855

    Virtual:

      19A      0.169410    20A      0.201487    21A      0.225730
      22A      0.227287    23A      0.242760    24A      0.254267
      25A      0.265645    26A      0.273236    27A      0.282452
      28A      0.302709    29A      0.342632    30A      0.363863
      31A      0.390435    32A      0.409909    33A      0.561378
      34A      0.588909    35A      0.599085    36A      0.604250
      37A      0.612289    38A      0.630214    39A      0.669912
      40A      0.684097    41A      0.692296    42A      0.805440
      43A      0.842718    44A      0.848050    45A      0.879926
      46A      0.889572    47A      0.892414    48A      0.897125
      49A      0.904916    50A      0.907461    51A      0.918627
      52A      0.932529    53A      0.953622    54A      0.965991
      55A      0.982013    56A      0.995916    57A      1.123282
      58A      1.124787    59A      1.135536    60A      1.151487
      61A      1.216676    62A      1.269666    63A      1.469512
      64A      1.477807    65A      1.482397    66A      1.483851
      67A      1.547582    68A      1.614020    69A      1.678193
      70A      1.682106    71A      1.690425    72A      1.709130
      73A      1.853936    74A      1.858151    75A      1.866549
      76A      1.886856    77A      1.893809    78A      1.918030
      79A      1.939083    80A      1.942983    81A      1.945813
      82A      1.947525    83A      1.955553    84A      1.956520
      85A      1.959717    86A      1.966085    87A      1.974675
      88A      2.033711    89A      2.096888    90A      2.113137
      91A      2.117907    92A      2.136264    93A      2.290640
      94A      2.297584    95A      2.315158    96A      2.322127
      97A      2.446727    98A      2.452895    99A      2.455039
     100A      2.476592   101A      2.559172   102A      2.568448
     103A      2.571047   104A      2.584099   105A      2.760387
     106A      2.766140   107A      2.788725   108A      2.798451
     109A      2.845217   110A      2.847066   111A      2.855505
     112A      2.861855   113A      2.938280   114A      2.953227
     115A      2.976623   116A      2.981224

    Final Occupation by Irrep:
              A
    DOCC [    18 ]

  @RHF Final Energy:  -158.46631589027137

   => Energetics <=

    Nuclear Repulsion Energy =            124.6940596467962621
    One-Electron Energy =                -458.4839489303390110
    Two-Electron Energy =                 175.3235733932713458
    Total Energy =                       -158.4663158902713747

Computation Completed

Properties will be evaluated at   0.000000,   0.000000,   0.000000 [a0]

Properties computed using the SCF density matrix

  Nuclear Dipole Moment: [e a0]
     X:     0.0150      Y:     0.0002      Z:     0.0242

  Electronic Dipole Moment: [e a0]
     X:    -0.0077      Y:    -0.0077      Z:    -0.0273

  Dipole Moment: [e a0]
     X:     0.0073      Y:    -0.0074      Z:    -0.0031     Total:     0.0109

  Dipole Moment: [D]
     X:     0.0185      Y:    -0.0189      Z:    -0.0078     Total:     0.0276

*** tstop() called on ds3 at Tue Apr 28 11:43:07 2020
Module time:
	user time   =       8.58 seconds =       0.14 minutes
	system time =       3.28 seconds =       0.05 minutes
	total time  =         12 seconds =       0.20 minutes
Total time:
	user time   =       8.58 seconds =       0.14 minutes
	system time =       3.28 seconds =       0.05 minutes
	total time  =         12 seconds =       0.20 minutes
                                     G D M A

                                 by Anthony Stone

                           version 2.2.06, 22 June 2011

               Distributed Multipoles from Gaussian wavefunctions

Starting at 11:43:7 on 28 Apr 2020

Using SCF density matrix from file ./SSI/SSI-096VAL-108THR-1-dimer.test.9068.fchk

                         Distributed Multipole Analysis

Standard DMA

Positions and radii in angstrom
Multipole moments in atomic units, ea_0^k for rank k

C          x =  0.766665  y = -0.931005  z = -1.216542 angstrom
           Maximum rank =  0   Radius =  0.650 angstrom
                   Q00  =  -0.237279

C          x =  0.593665  y = -0.287005  z = -2.590542 angstrom
           Maximum rank =  0   Radius =  0.650 angstrom
                   Q00  =  -0.235320

H          x =  1.406665  y = -0.306005  z = -0.591542 angstrom
           Maximum rank =  0   Radius =  0.325 angstrom
                   Q00  =   0.078361

H          x = -0.206335  y = -1.027005  z = -0.735542 angstrom
           Maximum rank =  0   Radius =  0.325 angstrom
                   Q00  =   0.078190

H          x =  1.224665  y = -1.914005  z = -1.299542 angstrom
           Maximum rank =  0   Radius =  0.325 angstrom
                   Q00  =   0.080353

H          x = -0.070335  y = -0.912005  z = -3.189542 angstrom
           Maximum rank =  0   Radius =  0.325 angstrom
                   Q00  =   0.078356

H          x =  1.570965  y = -0.195565  z = -3.087052 angstrom
           Maximum rank =  0   Radius =  0.325 angstrom
                   Q00  =   0.079460

H          x =  0.125425  y =  0.702135  z = -2.479432 angstrom
           Maximum rank =  0   Radius =  0.325 angstrom
                   Q00  =   0.078630

C          x = -0.398335  y =  1.244995  z =  1.588458 angstrom
           Maximum rank =  0   Radius =  0.650 angstrom
                   Q00  =  -0.237265

C          x = -0.963335  y = -0.027005  z =  2.216458 angstrom
           Maximum rank =  0   Radius =  0.650 angstrom
                   Q00  =  -0.235873

H          x = -0.486335  y =  2.078995  z =  2.286458 angstrom
           Maximum rank =  0   Radius =  0.325 angstrom
                   Q00  =   0.079359

H          x =  0.654665  y =  1.097995  z =  1.345458 angstrom
           Maximum rank =  0   Radius =  0.325 angstrom
                   Q00  =   0.078956

H          x = -0.926335  y =  1.483995  z =  0.665458 angstrom
           Maximum rank =  0   Radius =  0.325 angstrom
                   Q00  =   0.077643

H          x = -0.991335  y = -0.819005  z =  1.467458 angstrom
           Maximum rank =  0   Radius =  0.325 angstrom
                   Q00  =   0.080651

H          x = -1.977995  y =  0.152015  z =  2.601698 angstrom
           Maximum rank =  0   Radius =  0.325 angstrom
                   Q00  =   0.078313

H          x = -0.307735  y = -0.341285  z =  3.041938 angstrom
           Maximum rank =  0   Radius =  0.325 angstrom
                   Q00  =   0.077465

Total multipoles referred to origin at
           x =   0.000000,  y =    0.000000,  z =    0.000000 angstrom
                   Q00  =   0.000000

Finished at 11:43:7 on 28 Apr 2020

  DMA results are available in the Python driver through the
	  variable('DMA DISTRIBUTED MULTIPOLES')
  and
	  variable('DMA TOTAL MULTIPOLES')
  commands.

    Psi4 stopped on: Tuesday, 28 April 2020 11:43AM
    Psi4 wall time for execution: 0:00:11.71

*** Psi4 exiting successfully. Buy a developer a beer!
