                               Psi4 1.3.2 release

  ==> Input File <==

--------------------------------------------------------------------------
import numpy as np
set {scf_type pk
basis cc-pvdz
d_convergence 10
gdma_switch   0
gdma_limit    0
gdma_origin   [ 0.0,  0.0,  0.0 ]
}
molecule test {
    units Angstrom
    0 1
    --
    0 1
    C                1.008102554164688     1.297027021720561     1.071789472804945
    C                1.065102554164688     2.821027021720561     1.241789472804945
    H                1.289102554164688     1.018027021720561     0.058789472804945
    H                1.703102554164688     0.803027021720561     1.751789472804945
    H               -0.002897445835312     0.933027021720561     1.267789472804945
    H                2.093102554164688     3.155027021720561     1.086789472804945
    H                0.753178154164688     3.086449021720561     2.262699472804945
    H                0.424774554164688     3.326398021720562     0.503829472804945
    C               -0.791897445835312    -1.344972978279439    -1.033210527195055
    C               -1.288897445835312    -2.770972978279439    -1.282210527195055
    H                0.285102554164688    -1.360972978279439    -0.866210527195055
    H               -0.999897445835312    -0.730972978279439    -1.909210527195055
    H               -1.267897445835312    -0.903972978279439    -0.158210527195055
    H               -0.977897445835312    -3.386972978279439    -0.437210527195055
    H               -2.386847445835312    -2.785232068279439    -1.347800527195055
    H               -0.822555445835312    -3.178931778279439    -2.191110527195055

}
e, wfn = energy('scf', return_wfn=True)
gdma(wfn)
dmavals = variable('DMA DISTRIBUTED MULTIPOLES')
charges = np.array(dmavals)
print(charges)
np.save('SSI-113ILE-131VAL-1-dimer.npy', np.array(charges))--------------------------------------------------------------------------

*** tstart() called on ds3
*** at Tue Apr 28 13:47:24 2020

   => Loading Basis Set <=

    Name: CC-PVDZ
    Role: ORBITAL
    Keyword: BASIS
    atoms 1-2, 9-10  entry C          line   138 file /theoryfs2/ds/metcalf/miniconda2/envs/tf2gpu/share/psi4/basis/cc-pvdz.gbs
    atoms 3-8, 11-16 entry H          line    22 file /theoryfs2/ds/metcalf/miniconda2/envs/tf2gpu/share/psi4/basis/cc-pvdz.gbs

         ---------------------------------------------------------
                                   SCF
               by Justin Turney, Rob Parrish, Andy Simmonett
                          and Daniel G. A. Smith
                              RHF Reference
                        1 Threads,    500 MiB Core
         ---------------------------------------------------------

  ==> Geometry <==

    Molecular point group: c1
    Full point group: C1

    Geometry (in Angstrom), charge = 0, multiplicity = 1:

       Center              X                  Y                   Z               Mass
    ------------   -----------------  -----------------  -----------------  -----------------
         C            1.008102554165     1.297027021721     1.071789472805    12.000000000000
         C            1.065102554165     2.821027021721     1.241789472805    12.000000000000
         H            1.289102554165     1.018027021721     0.058789472805     1.007825032230
         H            1.703102554165     0.803027021721     1.751789472805     1.007825032230
         H           -0.002897445835     0.933027021721     1.267789472805     1.007825032230
         H            2.093102554165     3.155027021721     1.086789472805     1.007825032230
         H            0.753178154165     3.086449021721     2.262699472805     1.007825032230
         H            0.424774554165     3.326398021721     0.503829472805     1.007825032230
         C           -0.791897445835    -1.344972978279    -1.033210527195    12.000000000000
         C           -1.288897445835    -2.770972978279    -1.282210527195    12.000000000000
         H            0.285102554165    -1.360972978279    -0.866210527195     1.007825032230
         H           -0.999897445835    -0.730972978279    -1.909210527195     1.007825032230
         H           -1.267897445835    -0.903972978279    -0.158210527195     1.007825032230
         H           -0.977897445835    -3.386972978279    -0.437210527195     1.007825032230
         H           -2.386847445835    -2.785232068279    -1.347800527195     1.007825032230
         H           -0.822555445835    -3.178931778279    -2.191110527195     1.007825032230

  Running in c1 symmetry.

  Rotational constants: A =      0.87410  B =      0.03799  C =      0.03750 [cm^-1]
  Rotational constants: A =  26204.99328  B =   1138.81230  C =   1124.31079 [MHz]
  Nuclear repulsion =  118.871099648891970

  Charge       = 0
  Multiplicity = 1
  Electrons    = 36
  Nalpha       = 18
  Nbeta        = 18

  ==> Algorithm <==

  SCF Algorithm Type is PK.
  DIIS enabled.
  MOM disabled.
  Fractional occupation disabled.
  Guess Type is SAD.
  Energy threshold   = 1.00e-06
  Density threshold  = 1.00e-10
  Integral threshold = 0.00e+00

  ==> Primary Basis <==

  Basis Set: CC-PVDZ
    Blend: CC-PVDZ
    Number of shells: 60
    Number of basis function: 116
    Number of Cartesian functions: 120
    Spherical Harmonics?: true
    Max angular momentum: 2

  ==> Pre-Iterations <==

   -------------------------------------------------------
    Irrep   Nso     Nmo     Nalpha   Nbeta   Ndocc  Nsocc
   -------------------------------------------------------
     A        116     116       0       0       0       0
   -------------------------------------------------------
    Total     116     116      18      18      18       0
   -------------------------------------------------------

  ==> Integral Setup <==

  Using integral reordering PK algorithm.
  Sizing the integral batches needed.
  Building batch lookup table.
   Calculation information:
      Number of atoms:                  16
      Number of AO shells:              60
      Number of primitives:            148
      Number of atomic orbitals:       120
      Number of basis functions:       116

      Integral cutoff                 1.00e-12
      Number of threads:                 1

	Batch   1 pq = [       0,    6786] index = [             0,23028291] size =     23028291
  Task number: 3
  Buffer size: 11059200
  Buffer per thread: 2
  We computed 1306884 shell quartets total.
  Whereas there are 1675365 unique shell quartets.

  ==> DiskJK: Disk-Based J/K Matrices <==

    J tasked:                  Yes
    K tasked:                  Yes
    wK tasked:                  No
    Memory [MiB]:              375
    Schwarz Cutoff:          1E-12

    OpenMP threads:              1

  Minimum eigenvalue in the overlap matrix is 6.8473784225E-03.
  Using Symmetric Orthogonalization.

  SCF Guess: Superposition of Atomic Densities via on-the-fly atomic UHF.

  ==> Iterations <==

                        Total Energy        Delta E     RMS |[F,P]|

   @RHF iter SAD:  -157.32289639868691   -1.57323e+02   0.00000e+00
   @RHF iter   1:  -158.30905365902930   -9.86157e-01   4.20231e-03 DIIS
   @RHF iter   2:  -158.44189564892784   -1.32842e-01   1.79377e-03 DIIS
   @RHF iter   3:  -158.46524558461726   -2.33499e-02   3.48900e-04 DIIS
   @RHF iter   4:  -158.46706872605674   -1.82314e-03   3.86699e-05 DIIS
   @RHF iter   5:  -158.46709213881968   -2.34128e-05   6.52793e-06 DIIS
   @RHF iter   6:  -158.46709276917065   -6.30351e-07   1.01567e-06 DIIS
   @RHF iter   7:  -158.46709277945462   -1.02840e-08   3.05532e-07 DIIS
   @RHF iter   8:  -158.46709278024906   -7.94444e-10   3.69597e-08 DIIS
   @RHF iter   9:  -158.46709278026844   -1.93836e-11   6.65682e-09 DIIS
   @RHF iter  10:  -158.46709278026958   -1.13687e-12   1.57716e-09 DIIS
   @RHF iter  11:  -158.46709278026978   -1.98952e-13   2.95750e-10 DIIS
   @RHF iter  12:  -158.46709278027021   -4.26326e-13   4.37434e-11 DIIS
  Energy and wave function converged.

  ==> Post-Iterations <==

    Orbital Energies [Eh]
    ---------------------

    Doubly Occupied:

       1A    -11.219833     2A    -11.219174     3A    -11.216493
       4A    -11.215945     5A     -1.017681     6A     -1.015423
       7A     -0.838912     8A     -0.833833     9A     -0.599499
      10A     -0.597574    11A     -0.595596    12A     -0.594421
      13A     -0.503415    14A     -0.496697    15A     -0.489659
      16A     -0.485101    17A     -0.483103    18A     -0.481359

    Virtual:

      19A      0.177213    20A      0.192879    21A      0.221246
      22A      0.230979    23A      0.246548    24A      0.258366
      25A      0.266038    26A      0.276748    27A      0.280371
      28A      0.284624    29A      0.305546    30A      0.341562
      31A      0.391274    32A      0.399983    33A      0.569956
      34A      0.589979    35A      0.594793    36A      0.603192
      37A      0.605899    38A      0.634248    39A      0.677815
      40A      0.685438    41A      0.696482    42A      0.746189
      43A      0.844600    44A      0.886964    45A      0.889489
      46A      0.892352    47A      0.892952    48A      0.893523
      49A      0.901452    50A      0.903520    51A      0.904832
      52A      0.915331    53A      0.917876    54A      0.957750
      55A      0.960213    56A      0.989110    57A      1.122329
      58A      1.124997    59A      1.129754    60A      1.142960
      61A      1.219795    62A      1.245515    63A      1.467674
      64A      1.472586    65A      1.481218    66A      1.487539
      67A      1.569411    68A      1.577781    69A      1.677721
      70A      1.681254    71A      1.694469    72A      1.698271
      73A      1.852189    74A      1.855741    75A      1.862128
      76A      1.873251    77A      1.891701    78A      1.922539
      79A      1.936181    80A      1.939176    81A      1.941286
      82A      1.946306    83A      1.947503    84A      1.948689
      85A      1.960665    86A      1.967111    87A      1.977860
      88A      2.031694    89A      2.088952    90A      2.093171
      91A      2.110900    92A      2.126253    93A      2.290983
      94A      2.306612    95A      2.314857    96A      2.321020
      97A      2.446159    98A      2.449315    99A      2.468696
     100A      2.473664   101A      2.553522   102A      2.556724
     103A      2.571182   104A      2.576506   105A      2.757613
     106A      2.760287   107A      2.780233   108A      2.791237
     109A      2.838600   110A      2.849371   111A      2.855375
     112A      2.862123   113A      2.940598   114A      2.945291
     115A      2.954020   116A      2.974755

    Final Occupation by Irrep:
              A
    DOCC [    18 ]

  @RHF Final Energy:  -158.46709278027021

   => Energetics <=

    Nuclear Repulsion Energy =            118.8710996488919704
    One-Electron Energy =                -446.8689494507883069
    Two-Electron Energy =                 169.5307570216261297
    Total Energy =                       -158.4670927802702067

Computation Completed

Properties will be evaluated at   0.000000,   0.000000,   0.000000 [a0]

Properties computed using the SCF density matrix

  Nuclear Dipole Moment: [e a0]
     X:     0.0847      Y:    -0.0235      Z:     0.0206

  Electronic Dipole Moment: [e a0]
     X:    -0.0675      Y:     0.0193      Z:    -0.0181

  Dipole Moment: [e a0]
     X:     0.0172      Y:    -0.0042      Z:     0.0025     Total:     0.0179

  Dipole Moment: [D]
     X:     0.0438      Y:    -0.0108      Z:     0.0063     Total:     0.0455

*** tstop() called on ds3 at Tue Apr 28 13:47:35 2020
Module time:
	user time   =       8.08 seconds =       0.13 minutes
	system time =       3.03 seconds =       0.05 minutes
	total time  =         11 seconds =       0.18 minutes
Total time:
	user time   =       8.08 seconds =       0.13 minutes
	system time =       3.03 seconds =       0.05 minutes
	total time  =         11 seconds =       0.18 minutes
                                     G D M A

                                 by Anthony Stone

                           version 2.2.06, 22 June 2011

               Distributed Multipoles from Gaussian wavefunctions

Starting at 13:47:35 on 28 Apr 2020

Using SCF density matrix from file ./SSI/SSI-113ILE-131VAL-1-dimer.test.12451.fchk

                         Distributed Multipole Analysis

Standard DMA

Positions and radii in angstrom
Multipole moments in atomic units, ea_0^k for rank k

C          x =  1.008103  y =  1.297027  z =  1.071789 angstrom
           Maximum rank =  0   Radius =  0.650 angstrom
                   Q00  =  -0.239635

C          x =  1.065103  y =  2.821027  z =  1.241789 angstrom
           Maximum rank =  0   Radius =  0.650 angstrom
                   Q00  =  -0.237884

H          x =  1.289103  y =  1.018027  z =  0.058789 angstrom
           Maximum rank =  0   Radius =  0.325 angstrom
                   Q00  =   0.080408

H          x =  1.703103  y =  0.803027  z =  1.751789 angstrom
           Maximum rank =  0   Radius =  0.325 angstrom
                   Q00  =   0.079533

H          x = -0.002897  y =  0.933027  z =  1.267789 angstrom
           Maximum rank =  0   Radius =  0.325 angstrom
                   Q00  =   0.079496

H          x =  2.093103  y =  3.155027  z =  1.086789 angstrom
           Maximum rank =  0   Radius =  0.325 angstrom
                   Q00  =   0.078655

H          x =  0.753178  y =  3.086449  z =  2.262699 angstrom
           Maximum rank =  0   Radius =  0.325 angstrom
                   Q00  =   0.078853

H          x =  0.424775  y =  3.326398  z =  0.503829 angstrom
           Maximum rank =  0   Radius =  0.325 angstrom
                   Q00  =   0.080907

C          x = -0.791897  y = -1.344973  z = -1.033211 angstrom
           Maximum rank =  0   Radius =  0.650 angstrom
                   Q00  =  -0.242185

C          x = -1.288897  y = -2.770973  z = -1.282211 angstrom
           Maximum rank =  0   Radius =  0.650 angstrom
                   Q00  =  -0.231947

H          x =  0.285103  y = -1.360973  z = -0.866211 angstrom
           Maximum rank =  0   Radius =  0.325 angstrom
                   Q00  =   0.078306

H          x = -0.999897  y = -0.730973  z = -1.909211 angstrom
           Maximum rank =  0   Radius =  0.325 angstrom
                   Q00  =   0.077212

H          x = -1.267897  y = -0.903973  z = -0.158211 angstrom
           Maximum rank =  0   Radius =  0.325 angstrom
                   Q00  =   0.081271

H          x = -0.977897  y = -3.386973  z = -0.437211 angstrom
           Maximum rank =  0   Radius =  0.325 angstrom
                   Q00  =   0.076871

H          x = -2.386847  y = -2.785232  z = -1.347801 angstrom
           Maximum rank =  0   Radius =  0.325 angstrom
                   Q00  =   0.079959

H          x = -0.822555  y = -3.178932  z = -2.191111 angstrom
           Maximum rank =  0   Radius =  0.325 angstrom
                   Q00  =   0.080182

Total multipoles referred to origin at
           x =   0.000000,  y =    0.000000,  z =    0.000000 angstrom
                   Q00  =  -0.000000

Finished at 13:47:35 on 28 Apr 2020

  DMA results are available in the Python driver through the
	  variable('DMA DISTRIBUTED MULTIPOLES')
  and
	  variable('DMA TOTAL MULTIPOLES')
  commands.

    Psi4 stopped on: Tuesday, 28 April 2020 01:47PM
    Psi4 wall time for execution: 0:00:10.85

*** Psi4 exiting successfully. Buy a developer a beer!
