                               Psi4 1.3.2 release

  ==> Input File <==

--------------------------------------------------------------------------
import numpy as np
set {scf_type pk
basis cc-pvdz
d_convergence 10
gdma_switch   0
gdma_limit    0
gdma_origin   [ 0.0,  0.0,  0.0 ]
}
molecule test {
    units Angstrom
    -1 1
    --
    -1 1
    C                4.709288162733686    -0.916141224871870     0.420055407811959
    C                0.504288162733686    -0.180141224871870     0.888055407811959
    C                1.352288162733686    -0.142141224871870     1.988055407811960
    C                1.004288162733686    -0.496141224871870    -0.360944592188041
    C                2.702288162733687    -0.383141224871870     1.840055407811959
    C                2.364288162733686    -0.743141224871870    -0.489944592188041
    C                3.226288162733686    -0.686141224871870     0.597055407811959
    O               -0.819711837266314     0.062858775128130     1.070055407811960
    H               -1.046711837266314     0.181858775128130     1.996055407811959
    H                0.960288162733686     0.078858775128130     2.968055407811959
    H                0.340288162733686    -0.550141224871870    -1.209944592188040
    H                3.351288162733687    -0.340141224871870     2.701055407811960
    H                2.747288162733686    -1.018141224871870    -1.462944592188041
    H                4.861288162733686    -1.816141224871870    -0.175944592188041
    H                5.159288162733686    -1.091141224871870     1.397055407811960
    H                5.220158162733687    -0.066371224871870    -0.056274592188041
    C               -3.104711837266313     2.202858775128130    -1.297944592188041
    C               -3.368711837266313     0.709858775128130    -1.401944592188041
    O               -2.528711837266313    -0.119141224871870    -0.984944592188041
    O               -4.478711837266315     0.336858775128130    -1.869944592188041
    H               -3.601711837266313     2.594858775128130    -0.406944592188041
    H               -3.537711837266313     2.688858775128129    -2.174944592188040
    H               -2.031711837266314     2.436848775128130    -1.235254592188041

}
e, wfn = energy('scf', return_wfn=True)
gdma(wfn)
dmavals = variable('DMA DISTRIBUTED MULTIPOLES')
charges = np.array(dmavals)
print(charges)
np.save('SSI-179TYR-216GLU-1-dimer.npy', np.array(charges))--------------------------------------------------------------------------

*** tstart() called on ds3
*** at Mon Apr 27 14:09:20 2020

   => Loading Basis Set <=

    Name: CC-PVDZ
    Role: ORBITAL
    Keyword: BASIS
    atoms 1-7, 17-18  entry C          line   138 file /theoryfs2/ds/metcalf/miniconda2/envs/tf2gpu/share/psi4/basis/cc-pvdz.gbs
    atoms 8, 19-20    entry O          line   198 file /theoryfs2/ds/metcalf/miniconda2/envs/tf2gpu/share/psi4/basis/cc-pvdz.gbs
    atoms 9-16, 21-23 entry H          line    22 file /theoryfs2/ds/metcalf/miniconda2/envs/tf2gpu/share/psi4/basis/cc-pvdz.gbs

         ---------------------------------------------------------
                                   SCF
               by Justin Turney, Rob Parrish, Andy Simmonett
                          and Daniel G. A. Smith
                              RHF Reference
                        1 Threads,    500 MiB Core
         ---------------------------------------------------------

  ==> Geometry <==

    Molecular point group: c1
    Full point group: C1

    Geometry (in Angstrom), charge = -1, multiplicity = 1:

       Center              X                  Y                   Z               Mass
    ------------   -----------------  -----------------  -----------------  -----------------
         C            4.709288162734    -0.916141224872     0.420055407812    12.000000000000
         C            0.504288162734    -0.180141224872     0.888055407812    12.000000000000
         C            1.352288162734    -0.142141224872     1.988055407812    12.000000000000
         C            1.004288162734    -0.496141224872    -0.360944592188    12.000000000000
         C            2.702288162734    -0.383141224872     1.840055407812    12.000000000000
         C            2.364288162734    -0.743141224872    -0.489944592188    12.000000000000
         C            3.226288162734    -0.686141224872     0.597055407812    12.000000000000
         O           -0.819711837266     0.062858775128     1.070055407812    15.994914619570
         H           -1.046711837266     0.181858775128     1.996055407812     1.007825032230
         H            0.960288162734     0.078858775128     2.968055407812     1.007825032230
         H            0.340288162734    -0.550141224872    -1.209944592188     1.007825032230
         H            3.351288162734    -0.340141224872     2.701055407812     1.007825032230
         H            2.747288162734    -1.018141224872    -1.462944592188     1.007825032230
         H            4.861288162734    -1.816141224872    -0.175944592188     1.007825032230
         H            5.159288162734    -1.091141224872     1.397055407812     1.007825032230
         H            5.220158162734    -0.066371224872    -0.056274592188     1.007825032230
         C           -3.104711837266     2.202858775128    -1.297944592188    12.000000000000
         C           -3.368711837266     0.709858775128    -1.401944592188    12.000000000000
         O           -2.528711837266    -0.119141224872    -0.984944592188    15.994914619570
         O           -4.478711837266     0.336858775128    -1.869944592188    15.994914619570
         H           -3.601711837266     2.594858775128    -0.406944592188     1.007825032230
         H           -3.537711837266     2.688858775128    -2.174944592188     1.007825032230
         H           -2.031711837266     2.436848775128    -1.235254592188     1.007825032230

  Running in c1 symmetry.

  Rotational constants: A =      0.08636  B =      0.01021  C =      0.00970 [cm^-1]
  Rotational constants: A =   2589.06675  B =    306.16269  C =    290.75218 [MHz]
  Nuclear repulsion =  630.160642738754632

  Charge       = -1
  Multiplicity = 1
  Electrons    = 90
  Nalpha       = 45
  Nbeta        = 45

  ==> Algorithm <==

  SCF Algorithm Type is PK.
  DIIS enabled.
  MOM disabled.
  Fractional occupation disabled.
  Guess Type is SAD.
  Energy threshold   = 1.00e-06
  Density threshold  = 1.00e-10
  Integral threshold = 0.00e+00

  ==> Primary Basis <==

  Basis Set: CC-PVDZ
    Blend: CC-PVDZ
    Number of shells: 105
    Number of basis function: 223
    Number of Cartesian functions: 235
    Spherical Harmonics?: true
    Max angular momentum: 2

  ==> Pre-Iterations <==

   -------------------------------------------------------
    Irrep   Nso     Nmo     Nalpha   Nbeta   Ndocc  Nsocc
   -------------------------------------------------------
     A        223     223       0       0       0       0
   -------------------------------------------------------
    Total     223     223      45      45      45       0
   -------------------------------------------------------

  ==> Integral Setup <==

  Using integral reordering PK algorithm.
  Sizing the integral batches needed.
  Building batch lookup table.
   Calculation information:
      Number of atoms:                  23
      Number of AO shells:             105
      Number of primitives:            319
      Number of atomic orbitals:       235
      Number of basis functions:       223

      Integral cutoff                 1.00e-12
      Number of threads:                 1

	Batch   1 pq = [       0,    9405] index = [             0,44231715] size =     44231715
	Batch   2 pq = [    9405,   13301] index = [      44231715,88464951] size =     44233236
	Batch   3 pq = [   13301,   16290] index = [      88464951,132690195] size =     44225244
	Batch   4 pq = [   16290,   18810] index = [     132690195,176917455] size =     44227260
	Batch   5 pq = [   18810,   21030] index = [     176917455,221140965] size =     44223510
	Batch   6 pq = [   21030,   23037] index = [     221140965,265363203] size =     44222238
	Batch   7 pq = [   23037,   24976] index = [     265363203,311912776] size =     46549573
  Task number: 29
  Buffer size: 11059200
  Buffer per thread: 2
  We computed 11662121 shell quartets total.
  Whereas there are 15487395 unique shell quartets.

  ==> DiskJK: Disk-Based J/K Matrices <==

    J tasked:                  Yes
    K tasked:                  Yes
    wK tasked:                  No
    Memory [MiB]:              375
    Schwarz Cutoff:          1E-12

    OpenMP threads:              1

  Minimum eigenvalue in the overlap matrix is 3.0447638669E-04.
  Using Symmetric Orthogonalization.

  SCF Guess: Superposition of Atomic Densities via on-the-fly atomic UHF.

  ==> Iterations <==

                        Total Energy        Delta E     RMS |[F,P]|

   @RHF iter SAD:  -570.24382218188805   -5.70244e+02   0.00000e+00
   @RHF iter   1:  -571.47669532174064   -1.23287e+00   3.77844e-03 DIIS
   @RHF iter   2:  -571.76921605573693   -2.92521e-01   2.03866e-03 DIIS
   @RHF iter   3:  -571.84600455695909   -7.67885e-02   3.50847e-04 DIIS
   @RHF iter   4:  -571.84995397720627   -3.94942e-03   1.27900e-04 DIIS
   @RHF iter   5:  -571.85050252348515   -5.48546e-04   2.11867e-05 DIIS
   @RHF iter   6:  -571.85052433863325   -2.18151e-05   7.96833e-06 DIIS
   @RHF iter   7:  -571.85052709803847   -2.75941e-06   3.37837e-06 DIIS
   @RHF iter   8:  -571.85052769742401   -5.99386e-07   1.17442e-06 DIIS
   @RHF iter   9:  -571.85052783027049   -1.32846e-07   5.21713e-07 DIIS
   @RHF iter  10:  -571.85052786154051   -3.12700e-08   2.33759e-07 DIIS
   @RHF iter  11:  -571.85052786962115   -8.08063e-09   9.98221e-08 DIIS
   @RHF iter  12:  -571.85052787082668   -1.20554e-09   4.43645e-08 DIIS
   @RHF iter  13:  -571.85052787099710   -1.70417e-10   1.12781e-08 DIIS
   @RHF iter  14:  -571.85052787100744   -1.03455e-11   4.20729e-09 DIIS
   @RHF iter  15:  -571.85052787100824   -7.95808e-13   1.52478e-09 DIIS
   @RHF iter  16:  -571.85052787100688    1.36424e-12   7.12198e-10 DIIS
   @RHF iter  17:  -571.85052787100858   -1.70530e-12   3.56974e-10 DIIS
   @RHF iter  18:  -571.85052787100472    3.86535e-12   1.47579e-10 DIIS
   @RHF iter  19:  -571.85052787101085   -6.13909e-12   6.09493e-11 DIIS
  Energy and wave function converged.

  ==> Post-Iterations <==

    Orbital Energies [Eh]
    ---------------------

    Doubly Occupied:

       1A    -20.454058     2A    -20.247737     3A    -20.243033
       4A    -11.191524     5A    -11.151123     6A    -11.142741
       7A    -11.139219     8A    -11.137087     9A    -11.131107
      10A    -11.121070    11A    -11.105591    12A    -11.046945
      13A     -1.276358    14A     -1.134235    15A     -1.058323
      16A     -1.017565    17A     -0.944480    18A     -0.922242
      19A     -0.836456    20A     -0.791584    21A     -0.744698
      22A     -0.703351    23A     -0.624262    24A     -0.568949
      25A     -0.542470    26A     -0.508632    27A     -0.497184
      28A     -0.492145    29A     -0.488299    30A     -0.466498
      31A     -0.461805    32A     -0.428484    33A     -0.405556
      34A     -0.405040    35A     -0.399944    36A     -0.392468
      37A     -0.375265    38A     -0.367979    39A     -0.327857
      40A     -0.291417    41A     -0.243243    42A     -0.200064
      43A     -0.174249    44A     -0.154840    45A     -0.145635

    Virtual:

      46A      0.229513    47A      0.254796    48A      0.263404
      49A      0.280201    50A      0.306763    51A      0.313439
      52A      0.341977    53A      0.349507    54A      0.359786
      55A      0.375809    56A      0.392658    57A      0.409606
      58A      0.429295    59A      0.453912    60A      0.475293
      61A      0.492169    62A      0.547588    63A      0.552271
      64A      0.574391    65A      0.578783    66A      0.596695
      67A      0.609404    68A      0.703672    69A      0.704640
      70A      0.713869    71A      0.719426    72A      0.761675
      73A      0.765979    74A      0.780627    75A      0.788567
      76A      0.803823    77A      0.825568    78A      0.826425
      79A      0.835174    80A      0.839294    81A      0.862573
      82A      0.871901    83A      0.875305    84A      0.888899
      85A      0.890331    86A      0.920250    87A      0.946342
      88A      0.949620    89A      0.958317    90A      0.964702
      91A      0.975535    92A      0.980799    93A      0.983512
      94A      0.998935    95A      1.018983    96A      1.027188
      97A      1.033741    98A      1.040613    99A      1.045329
     100A      1.045881   101A      1.050495   102A      1.084699
     103A      1.115321   104A      1.128453   105A      1.139120
     106A      1.149580   107A      1.222617   108A      1.227215
     109A      1.240221   110A      1.247322   111A      1.269140
     112A      1.298930   113A      1.327392   114A      1.342876
     115A      1.348858   116A      1.355965   117A      1.373164
     118A      1.396032   119A      1.400279   120A      1.407827
     121A      1.420288   122A      1.447528   123A      1.466593
     124A      1.483632   125A      1.498087   126A      1.542037
     127A      1.561268   128A      1.579330   129A      1.593375
     130A      1.600555   131A      1.622154   132A      1.639807
     133A      1.664627   134A      1.676450   135A      1.721172
     136A      1.747576   137A      1.756456   138A      1.760626
     139A      1.781219   140A      1.833012   141A      1.840619
     142A      1.843467   143A      1.847629   144A      1.873348
     145A      1.899960   146A      1.909626   147A      1.940266
     148A      1.963161   149A      1.985894   150A      1.993759
     151A      2.012056   152A      2.018673   153A      2.034957
     154A      2.046006   155A      2.048266   156A      2.053911
     157A      2.065760   158A      2.078835   159A      2.088929
     160A      2.111615   161A      2.126126   162A      2.149690
     163A      2.162133   164A      2.171320   165A      2.182589
     166A      2.186024   167A      2.216258   168A      2.228324
     169A      2.250233   170A      2.271416   171A      2.278483
     172A      2.299071   173A      2.322736   174A      2.349827
     175A      2.358129   176A      2.371869   177A      2.399620
     178A      2.422700   179A      2.430160   180A      2.436070
     181A      2.485365   182A      2.514712   183A      2.558875
     184A      2.568699   185A      2.579691   186A      2.607171
     187A      2.617512   188A      2.676400   189A      2.683814
     190A      2.700490   191A      2.719693   192A      2.767978
     193A      2.800939   194A      2.842386   195A      2.859178
     196A      2.892282   197A      2.915686   198A      2.918600
     199A      2.923281   200A      2.974246   201A      2.986255
     202A      3.000769   203A      3.075523   204A      3.111490
     205A      3.207750   206A      3.217250   207A      3.258985
     208A      3.293366   209A      3.305683   210A      3.370619
     211A      3.384521   212A      3.397119   213A      3.480800
     214A      3.651379   215A      3.730046   216A      3.760605
     217A      3.813171   218A      3.833820   219A      4.062718
     220A      4.106210   221A      4.124707   222A      4.202517
     223A      4.335691

    Final Occupation by Irrep:
              A
    DOCC [    45 ]

  @RHF Final Energy:  -571.85052787101085

   => Energetics <=

    Nuclear Repulsion Energy =            630.1606427387546319
    One-Electron Energy =               -2045.0167153082086315
    Two-Electron Energy =                 843.0055446984431455
    Total Energy =                       -571.8505278710108541

Computation Completed

Properties will be evaluated at   0.000000,   0.000000,   0.000000 [a0]

Properties computed using the SCF density matrix

  Nuclear Dipole Moment: [e a0]
     X:    11.6077      Y:     2.9068      Z:     2.1851

  Electronic Dipole Moment: [e a0]
     X:    -5.5497      Y:    -2.8089      Z:     0.7547

  Dipole Moment: [e a0]
     X:     6.0580      Y:     0.0978      Z:     2.9398     Total:     6.7343

  Dipole Moment: [D]
     X:    15.3979      Y:     0.2487      Z:     7.4722     Total:    17.1170

*** tstop() called on ds3 at Mon Apr 27 14:11:47 2020
Module time:
	user time   =     101.16 seconds =       1.69 minutes
	system time =      52.33 seconds =       0.87 minutes
	total time  =        147 seconds =       2.45 minutes
Total time:
	user time   =     101.16 seconds =       1.69 minutes
	system time =      52.33 seconds =       0.87 minutes
	total time  =        147 seconds =       2.45 minutes
                                     G D M A

                                 by Anthony Stone

                           version 2.2.06, 22 June 2011

               Distributed Multipoles from Gaussian wavefunctions

Starting at 14:11:47 on 27 Apr 2020

Using SCF density matrix from file ./SSI/SSI-179TYR-216GLU-1-dimer.test.8821.fchk

                         Distributed Multipole Analysis

Standard DMA

Positions and radii in angstrom
Multipole moments in atomic units, ea_0^k for rank k

C          x =  4.709288  y = -0.916141  z =  0.420055 angstrom
           Maximum rank =  0   Radius =  0.650 angstrom
                   Q00  =  -0.195040

C          x =  0.504288  y = -0.180141  z =  0.888055 angstrom
           Maximum rank =  0   Radius =  0.650 angstrom
                   Q00  =   0.348192

C          x =  1.352288  y = -0.142141  z =  1.988055 angstrom
           Maximum rank =  0   Radius =  0.650 angstrom
                   Q00  =  -0.172269

C          x =  1.004288  y = -0.496141  z = -0.360945 angstrom
           Maximum rank =  0   Radius =  0.650 angstrom
                   Q00  =  -0.099190

C          x =  2.702288  y = -0.383141  z =  1.840055 angstrom
           Maximum rank =  0   Radius =  0.650 angstrom
                   Q00  =  -0.050073

C          x =  2.364288  y = -0.743141  z = -0.489945 angstrom
           Maximum rank =  0   Radius =  0.650 angstrom
                   Q00  =   0.048004

C          x =  3.226288  y = -0.686141  z =  0.597055 angstrom
           Maximum rank =  0   Radius =  0.650 angstrom
                   Q00  =  -0.153887

O          x = -0.819712  y =  0.062859  z =  1.070055 angstrom
           Maximum rank =  0   Radius =  0.650 angstrom
                   Q00  =  -0.597279

H          x = -1.046712  y =  0.181859  z =  1.996055 angstrom
           Maximum rank =  0   Radius =  0.325 angstrom
                   Q00  =   0.373968

H          x =  0.960288  y =  0.078859  z =  2.968055 angstrom
           Maximum rank =  0   Radius =  0.325 angstrom
                   Q00  =   0.051599

H          x =  0.340288  y = -0.550141  z = -1.209945 angstrom
           Maximum rank =  0   Radius =  0.325 angstrom
                   Q00  =   0.100442

H          x =  3.351288  y = -0.340141  z =  2.701055 angstrom
           Maximum rank =  0   Radius =  0.325 angstrom
                   Q00  =   0.042950

H          x =  2.747288  y = -1.018141  z = -1.462945 angstrom
           Maximum rank =  0   Radius =  0.325 angstrom
                   Q00  =   0.040842

H          x =  4.861288  y = -1.816141  z = -0.175945 angstrom
           Maximum rank =  0   Radius =  0.325 angstrom
                   Q00  =   0.086971

H          x =  5.159288  y = -1.091141  z =  1.397055 angstrom
           Maximum rank =  0   Radius =  0.325 angstrom
                   Q00  =   0.082086

H          x =  5.220158  y = -0.066371  z = -0.056275 angstrom
           Maximum rank =  0   Radius =  0.325 angstrom
                   Q00  =   0.087051

C          x = -3.104712  y =  2.202859  z = -1.297945 angstrom
           Maximum rank =  0   Radius =  0.650 angstrom
                   Q00  =  -0.281653

C          x = -3.368712  y =  0.709859  z = -1.401945 angstrom
           Maximum rank =  0   Radius =  0.650 angstrom
                   Q00  =   0.974829

O          x = -2.528712  y = -0.119141  z = -0.984945 angstrom
           Maximum rank =  0   Radius =  0.650 angstrom
                   Q00  =  -0.925773

O          x = -4.478712  y =  0.336859  z = -1.869945 angstrom
           Maximum rank =  0   Radius =  0.650 angstrom
                   Q00  =  -0.946267

H          x = -3.601712  y =  2.594859  z = -0.406945 angstrom
           Maximum rank =  0   Radius =  0.325 angstrom
                   Q00  =   0.076912

H          x = -3.537712  y =  2.688859  z = -2.174945 angstrom
           Maximum rank =  0   Radius =  0.325 angstrom
                   Q00  =   0.054742

H          x = -2.031712  y =  2.436849  z = -1.235255 angstrom
           Maximum rank =  0   Radius =  0.325 angstrom
                   Q00  =   0.052843

Total multipoles referred to origin at
           x =   0.000000,  y =    0.000000,  z =    0.000000 angstrom
                   Q00  =  -1.000000

Finished at 14:11:47 on 27 Apr 2020

  DMA results are available in the Python driver through the
	  variable('DMA DISTRIBUTED MULTIPOLES')
  and
	  variable('DMA TOTAL MULTIPOLES')
  commands.

    Psi4 stopped on: Monday, 27 April 2020 02:11PM
    Psi4 wall time for execution: 0:02:27.85

*** Psi4 exiting successfully. Buy a developer a beer!
