                               Psi4 1.3.2 release

  ==> Input File <==

--------------------------------------------------------------------------
import numpy as np
set {scf_type pk
basis cc-pvdz
d_convergence 10
gdma_switch   0
gdma_limit    0
gdma_origin   [ 0.0,  0.0,  0.0 ]
}
molecule test {
    units Angstrom
    0 1
    --
    0 1
    C                0.040789077040096     1.846281553980712     2.911073529208399
    C                1.335789077040096     1.286281553980712     3.456073529208399
    H               -0.076210922959904     1.631281553980712     1.855073529208399
    H               -0.797210922959904     1.393281553980712     3.439073529208399
    H                0.017789077040096     2.925281553980712     3.061073529208399
    H                1.290789077040096     0.196281553980712     3.450073529208399
    H                1.381789077040096     1.615281553980712     4.491073529208399
    H                2.223489077040095     1.622401553980712     2.900183529208399
    C                1.944789077040096    -0.800718446019288    -2.865926470791601
    C               -1.190210922959904    -0.247718446019288     0.036073529208399
    C               -0.607210922959904    -1.508718446019288    -0.114926470791601
    C               -0.765210922959904     0.820281553980712    -0.750926470791601
    C                0.407789077040096    -1.692718446019288    -1.054926470791601
    C                0.248789077040096     0.627281553980712    -1.686926470791601
    C                0.846789077040096    -0.625718446019288    -1.848926470791601
    O               -2.173210922959905    -0.050718446019288     0.958073529208399
    H               -0.945210922959904    -2.338718446019288     0.489073529208399
    H               -2.353210922959904    -0.841718446019288     1.478073529208399
    H               -1.218210922959904     1.790281553980712    -0.632926470791601
    H                0.821789077040096    -2.683718446019288    -1.148926470791601
    H                0.571789077040096     1.453281553980712    -2.305926470791601
    H                2.660789077040096     0.013281553980712    -2.744926470791601
    H                1.493789077040096    -0.694718446019288    -3.853926470791601
    H                2.484019077040096    -1.758778446019288    -2.829156470791601

}
e, wfn = energy('scf', return_wfn=True)
gdma(wfn)
dmavals = variable('DMA DISTRIBUTED MULTIPOLES')
charges = np.array(dmavals)
print(charges)
np.save('SSI-077ILE-128TYR-1-dimer.npy', np.array(charges))--------------------------------------------------------------------------

*** tstart() called on ds3
*** at Tue Apr 28 09:49:55 2020

   => Loading Basis Set <=

    Name: CC-PVDZ
    Role: ORBITAL
    Keyword: BASIS
    atoms 1-2, 9-15  entry C          line   138 file /theoryfs2/ds/metcalf/miniconda2/envs/tf2gpu/share/psi4/basis/cc-pvdz.gbs
    atoms 3-8, 17-24 entry H          line    22 file /theoryfs2/ds/metcalf/miniconda2/envs/tf2gpu/share/psi4/basis/cc-pvdz.gbs
    atoms 16         entry O          line   198 file /theoryfs2/ds/metcalf/miniconda2/envs/tf2gpu/share/psi4/basis/cc-pvdz.gbs

         ---------------------------------------------------------
                                   SCF
               by Justin Turney, Rob Parrish, Andy Simmonett
                          and Daniel G. A. Smith
                              RHF Reference
                        1 Threads,    500 MiB Core
         ---------------------------------------------------------

  ==> Geometry <==

    Molecular point group: c1
    Full point group: C1

    Geometry (in Angstrom), charge = 0, multiplicity = 1:

       Center              X                  Y                   Z               Mass
    ------------   -----------------  -----------------  -----------------  -----------------
         C            0.040789077040     1.846281553981     2.911073529208    12.000000000000
         C            1.335789077040     1.286281553981     3.456073529208    12.000000000000
         H           -0.076210922960     1.631281553981     1.855073529208     1.007825032230
         H           -0.797210922960     1.393281553981     3.439073529208     1.007825032230
         H            0.017789077040     2.925281553981     3.061073529208     1.007825032230
         H            1.290789077040     0.196281553981     3.450073529208     1.007825032230
         H            1.381789077040     1.615281553981     4.491073529208     1.007825032230
         H            2.223489077040     1.622401553981     2.900183529208     1.007825032230
         C            1.944789077040    -0.800718446019    -2.865926470792    12.000000000000
         C           -1.190210922960    -0.247718446019     0.036073529208    12.000000000000
         C           -0.607210922960    -1.508718446019    -0.114926470792    12.000000000000
         C           -0.765210922960     0.820281553981    -0.750926470792    12.000000000000
         C            0.407789077040    -1.692718446019    -1.054926470792    12.000000000000
         C            0.248789077040     0.627281553981    -1.686926470792    12.000000000000
         C            0.846789077040    -0.625718446019    -1.848926470792    12.000000000000
         O           -2.173210922960    -0.050718446019     0.958073529208    15.994914619570
         H           -0.945210922960    -2.338718446019     0.489073529208     1.007825032230
         H           -2.353210922960    -0.841718446019     1.478073529208     1.007825032230
         H           -1.218210922960     1.790281553981    -0.632926470792     1.007825032230
         H            0.821789077040    -2.683718446019    -1.148926470792     1.007825032230
         H            0.571789077040     1.453281553981    -2.305926470792     1.007825032230
         H            2.660789077040     0.013281553981    -2.744926470792     1.007825032230
         H            1.493789077040    -0.694718446019    -3.853926470792     1.007825032230
         H            2.484019077040    -1.758778446019    -2.829156470792     1.007825032230

  Running in c1 symmetry.

  Rotational constants: A =      0.05437  B =      0.02240  C =      0.01944 [cm^-1]
  Rotational constants: A =   1630.09889  B =    671.56620  C =    582.66329 [MHz]
  Nuclear repulsion =  498.396206342325115

  Charge       = 0
  Multiplicity = 1
  Electrons    = 76
  Nalpha       = 38
  Nbeta        = 38

  ==> Algorithm <==

  SCF Algorithm Type is PK.
  DIIS enabled.
  MOM disabled.
  Fractional occupation disabled.
  Guess Type is SAD.
  Energy threshold   = 1.00e-06
  Density threshold  = 1.00e-10
  Integral threshold = 0.00e+00

  ==> Primary Basis <==

  Basis Set: CC-PVDZ
    Blend: CC-PVDZ
    Number of shells: 102
    Number of basis function: 210
    Number of Cartesian functions: 220
    Spherical Harmonics?: true
    Max angular momentum: 2

  ==> Pre-Iterations <==

   -------------------------------------------------------
    Irrep   Nso     Nmo     Nalpha   Nbeta   Ndocc  Nsocc
   -------------------------------------------------------
     A        210     210       0       0       0       0
   -------------------------------------------------------
    Total     210     210      38      38      38       0
   -------------------------------------------------------

  ==> Integral Setup <==

  Using integral reordering PK algorithm.
  Sizing the integral batches needed.
  Building batch lookup table.
   Calculation information:
      Number of atoms:                  24
      Number of AO shells:             102
      Number of primitives:            290
      Number of atomic orbitals:       220
      Number of basis functions:       210

      Integral cutoff                 1.00e-12
      Number of threads:                 1

	Batch   1 pq = [       0,    9405] index = [             0,44231715] size =     44231715
	Batch   2 pq = [    9405,   13301] index = [      44231715,88464951] size =     44233236
	Batch   3 pq = [   13301,   16290] index = [      88464951,132690195] size =     44225244
	Batch   4 pq = [   16290,   18810] index = [     132690195,176917455] size =     44227260
	Batch   5 pq = [   18810,   21030] index = [     176917455,221140965] size =     44223510
	Batch   6 pq = [   21030,   22155] index = [     221140965,245433090] size =     24292125
  Task number: 23
  Buffer size: 11059200
  Buffer per thread: 2
  We computed 11924237 shell quartets total.
  Whereas there are 13799631 unique shell quartets.

  ==> DiskJK: Disk-Based J/K Matrices <==

    J tasked:                  Yes
    K tasked:                  Yes
    wK tasked:                  No
    Memory [MiB]:              375
    Schwarz Cutoff:          1E-12

    OpenMP threads:              1

  Minimum eigenvalue in the overlap matrix is 3.2531156486E-04.
  Using Symmetric Orthogonalization.

  SCF Guess: Superposition of Atomic Densities via on-the-fly atomic UHF.

  ==> Iterations <==

                        Total Energy        Delta E     RMS |[F,P]|

   @RHF iter SAD:  -422.68396158186943   -4.22684e+02   0.00000e+00
   @RHF iter   1:  -423.59843920741906   -9.14478e-01   2.99171e-03 DIIS
   @RHF iter   2:  -423.81633789706740   -2.17899e-01   1.26233e-03 DIIS
   @RHF iter   3:  -423.85150542195152   -3.51675e-02   2.82529e-04 DIIS
   @RHF iter   4:  -423.85436686964891   -2.86145e-03   1.15755e-04 DIIS
   @RHF iter   5:  -423.85471161911204   -3.44749e-04   2.11796e-05 DIIS
   @RHF iter   6:  -423.85472968284995   -1.80637e-05   6.46559e-06 DIIS
   @RHF iter   7:  -423.85473145077270   -1.76792e-06   2.14707e-06 DIIS
   @RHF iter   8:  -423.85473172373867   -2.72966e-07   8.40673e-07 DIIS
   @RHF iter   9:  -423.85473177901360   -5.52749e-08   3.57124e-07 DIIS
   @RHF iter  10:  -423.85473179113455   -1.21209e-08   1.51019e-07 DIIS
   @RHF iter  11:  -423.85473179483489   -3.70034e-09   6.48401e-08 DIIS
   @RHF iter  12:  -423.85473179536643   -5.31543e-10   2.70912e-08 DIIS
   @RHF iter  13:  -423.85473179543135   -6.49152e-11   8.31544e-09 DIIS
   @RHF iter  14:  -423.85473179543396   -2.61480e-12   2.24655e-09 DIIS
   @RHF iter  15:  -423.85473179543760   -3.63798e-12   9.55630e-10 DIIS
   @RHF iter  16:  -423.85473179543624    1.36424e-12   4.15371e-10 DIIS
   @RHF iter  17:  -423.85473179543482    1.42109e-12   1.88046e-10 DIIS
   @RHF iter  18:  -423.85473179543754   -2.72848e-12   8.70123e-11 DIIS
  Energy and wave function converged.

  ==> Post-Iterations <==

    Orbital Energies [Eh]
    ---------------------

    Doubly Occupied:

       1A    -20.583556     2A    -11.299973     3A    -11.239751
       4A    -11.239320     5A    -11.235984     6A    -11.233896
       7A    -11.231475     8A    -11.228739     9A    -11.208861
      10A    -11.202531    11A     -1.399962    12A     -1.149221
      13A     -1.036793    14A     -1.018256    15A     -1.013863
      16A     -0.926109    17A     -0.843731    18A     -0.826351
      19A     -0.803347    20A     -0.732858    21A     -0.665717
      22A     -0.642979    23A     -0.607783    24A     -0.597449
      25A     -0.591441    26A     -0.587997    27A     -0.582436
      28A     -0.569731    29A     -0.566432    30A     -0.530530
      31A     -0.496335    32A     -0.493662    33A     -0.486566
      34A     -0.476617    35A     -0.473039    36A     -0.464955
      37A     -0.338992    38A     -0.299856

    Virtual:

      39A      0.128335    40A      0.155949    41A      0.171965
      42A      0.186596    43A      0.201130    44A      0.215640
      45A      0.218871    46A      0.246152    47A      0.260760
      48A      0.263122    49A      0.265965    50A      0.274962
      51A      0.279919    52A      0.288973    53A      0.297104
      54A      0.323523    55A      0.368614    56A      0.376579
      57A      0.408080    58A      0.439267    59A      0.452154
      60A      0.478290    61A      0.491946    62A      0.509428
      63A      0.594885    64A      0.600620    65A      0.613961
      66A      0.620042    67A      0.624814    68A      0.642875
      69A      0.655710    70A      0.680203    71A      0.689147
      72A      0.691395    73A      0.705189    74A      0.723776
      75A      0.731322    76A      0.736520    77A      0.748108
      78A      0.766567    79A      0.790019    80A      0.795530
      81A      0.825660    82A      0.844256    83A      0.848032
      84A      0.861665    85A      0.868056    86A      0.884290
      87A      0.888465    88A      0.892752    89A      0.895201
      90A      0.902492    91A      0.905314    92A      0.912548
      93A      0.925178    94A      0.936906    95A      0.943172
      96A      0.949401    97A      0.956596    98A      0.971954
      99A      0.998054   100A      1.012379   101A      1.037742
     102A      1.080842   103A      1.120035   104A      1.131982
     105A      1.141428   106A      1.150118   107A      1.165699
     108A      1.171261   109A      1.213416   110A      1.239368
     111A      1.243122   112A      1.247777   113A      1.284460
     114A      1.294403   115A      1.302954   116A      1.310518
     117A      1.316093   118A      1.358422   119A      1.383145
     120A      1.395404   121A      1.480504   122A      1.485793
     123A      1.495329   124A      1.509318   125A      1.531643
     126A      1.570306   127A      1.594791   128A      1.616358
     129A      1.625115   130A      1.675185   131A      1.687687
     132A      1.690164   133A      1.716515   134A      1.731912
     135A      1.744726   136A      1.782666   137A      1.808887
     138A      1.812370   139A      1.853813   140A      1.865737
     141A      1.881917   142A      1.896459   143A      1.901869
     144A      1.907036   145A      1.909608   146A      1.912436
     147A      1.920813   148A      1.942671   149A      1.949480
     150A      1.956047   151A      1.959429   152A      1.969012
     153A      1.978629   154A      1.982337   155A      2.004719
     156A      2.011932   157A      2.023397   158A      2.052830
     159A      2.066466   160A      2.070640   161A      2.090679
     162A      2.108546   163A      2.124438   164A      2.144079
     165A      2.149032   166A      2.162193   167A      2.186944
     168A      2.217063   169A      2.261275   170A      2.268295
     171A      2.303393   172A      2.307480   173A      2.330029
     174A      2.368823   175A      2.388070   176A      2.400984
     177A      2.453770   178A      2.468179   179A      2.473751
     180A      2.483758   181A      2.494486   182A      2.522122
     183A      2.561703   184A      2.589518   185A      2.618278
     186A      2.621133   187A      2.641977   188A      2.729652
     189A      2.764760   190A      2.771117   191A      2.783055
     192A      2.802386   193A      2.818842   194A      2.840986
     195A      2.866386   196A      2.874466   197A      2.895240
     198A      2.956011   199A      2.983052   200A      2.990514
     201A      3.013997   202A      3.091362   203A      3.143959
     204A      3.249369   205A      3.276548   206A      3.348361
     207A      3.576057   208A      3.677194   209A      3.964317
     210A      4.192587

    Final Occupation by Irrep:
              A
    DOCC [    38 ]

  @RHF Final Energy:  -423.85473179543754

   => Energetics <=

    Nuclear Repulsion Energy =            498.3962063423251152
    One-Electron Energy =               -1562.6476863107268400
    Two-Electron Energy =                 640.3967481729641804
    Total Energy =                       -423.8547317954376012

Computation Completed

Properties will be evaluated at   0.000000,   0.000000,   0.000000 [a0]

Properties computed using the SCF density matrix

  Nuclear Dipole Moment: [e a0]
     X:     7.0731      Y:     4.0524      Z:     7.1743

  Electronic Dipole Moment: [e a0]
     X:    -6.9317      Y:    -4.6018      Z:    -7.2280

  Dipole Moment: [e a0]
     X:     0.1414      Y:    -0.5493      Z:    -0.0537     Total:     0.5698

  Dipole Moment: [D]
     X:     0.3593      Y:    -1.3962      Z:    -0.1366     Total:     1.4482

*** tstop() called on ds3 at Tue Apr 28 09:52:00 2020
Module time:
	user time   =      89.82 seconds =       1.50 minutes
	system time =      40.42 seconds =       0.67 minutes
	total time  =        125 seconds =       2.08 minutes
Total time:
	user time   =      89.82 seconds =       1.50 minutes
	system time =      40.42 seconds =       0.67 minutes
	total time  =        125 seconds =       2.08 minutes
                                     G D M A

                                 by Anthony Stone

                           version 2.2.06, 22 June 2011

               Distributed Multipoles from Gaussian wavefunctions

Starting at 9:52:0 on 28 Apr 2020

Using SCF density matrix from file ./SSI/SSI-077ILE-128TYR-1-dimer.test.5006.fchk

                         Distributed Multipole Analysis

Standard DMA

Positions and radii in angstrom
Multipole moments in atomic units, ea_0^k for rank k

C          x =  0.040789  y =  1.846282  z =  2.911074 angstrom
           Maximum rank =  0   Radius =  0.650 angstrom
                   Q00  =  -0.235545

C          x =  1.335789  y =  1.286282  z =  3.456074 angstrom
           Maximum rank =  0   Radius =  0.650 angstrom
                   Q00  =  -0.224680

H          x = -0.076211  y =  1.631282  z =  1.855074 angstrom
           Maximum rank =  0   Radius =  0.325 angstrom
                   Q00  =   0.093465

H          x = -0.797211  y =  1.393282  z =  3.439074 angstrom
           Maximum rank =  0   Radius =  0.325 angstrom
                   Q00  =   0.071985

H          x =  0.017789  y =  2.925282  z =  3.061074 angstrom
           Maximum rank =  0   Radius =  0.325 angstrom
                   Q00  =   0.069286

H          x =  1.290789  y =  0.196282  z =  3.450074 angstrom
           Maximum rank =  0   Radius =  0.325 angstrom
                   Q00  =   0.072776

H          x =  1.381789  y =  1.615282  z =  4.491074 angstrom
           Maximum rank =  0   Radius =  0.325 angstrom
                   Q00  =   0.069102

H          x =  2.223489  y =  1.622402  z =  2.900184 angstrom
           Maximum rank =  0   Radius =  0.325 angstrom
                   Q00  =   0.079796

C          x =  1.944789  y = -0.800718  z = -2.865926 angstrom
           Maximum rank =  0   Radius =  0.650 angstrom
                   Q00  =  -0.202342

C          x = -1.190211  y = -0.247718  z =  0.036074 angstrom
           Maximum rank =  0   Radius =  0.650 angstrom
                   Q00  =   0.324576

C          x = -0.607211  y = -1.508718  z = -0.114926 angstrom
           Maximum rank =  0   Radius =  0.650 angstrom
                   Q00  =  -0.197354

C          x = -0.765211  y =  0.820282  z = -0.750926 angstrom
           Maximum rank =  0   Radius =  0.650 angstrom
                   Q00  =  -0.116155

C          x =  0.407789  y = -1.692718  z = -1.054926 angstrom
           Maximum rank =  0   Radius =  0.650 angstrom
                   Q00  =  -0.017844

C          x =  0.248789  y =  0.627282  z = -1.686926 angstrom
           Maximum rank =  0   Radius =  0.650 angstrom
                   Q00  =   0.019102

C          x =  0.846789  y = -0.625718  z = -1.848926 angstrom
           Maximum rank =  0   Radius =  0.650 angstrom
                   Q00  =  -0.123737

O          x = -2.173211  y = -0.050718  z =  0.958074 angstrom
           Maximum rank =  0   Radius =  0.650 angstrom
                   Q00  =  -0.670192

H          x = -0.945211  y = -2.338718  z =  0.489074 angstrom
           Maximum rank =  0   Radius =  0.325 angstrom
                   Q00  =   0.071790

H          x = -2.353211  y = -0.841718  z =  1.478074 angstrom
           Maximum rank =  0   Radius =  0.325 angstrom
                   Q00  =   0.407049

H          x = -1.218211  y =  1.790282  z = -0.632926 angstrom
           Maximum rank =  0   Radius =  0.325 angstrom
                   Q00  =   0.083794

H          x =  0.821789  y = -2.683718  z = -1.148926 angstrom
           Maximum rank =  0   Radius =  0.325 angstrom
                   Q00  =   0.069398

H          x =  0.571789  y =  1.453282  z = -2.305926 angstrom
           Maximum rank =  0   Radius =  0.325 angstrom
                   Q00  =   0.063133

H          x =  2.660789  y =  0.013282  z = -2.744926 angstrom
           Maximum rank =  0   Radius =  0.325 angstrom
                   Q00  =   0.095910

H          x =  1.493789  y = -0.694718  z = -3.853926 angstrom
           Maximum rank =  0   Radius =  0.325 angstrom
                   Q00  =   0.096322

H          x =  2.484019  y = -1.758778  z = -2.829156 angstrom
           Maximum rank =  0   Radius =  0.325 angstrom
                   Q00  =   0.100364

Total multipoles referred to origin at
           x =   0.000000,  y =    0.000000,  z =    0.000000 angstrom
                   Q00  =  -0.000000

Finished at 9:52:0 on 28 Apr 2020

  DMA results are available in the Python driver through the
	  variable('DMA DISTRIBUTED MULTIPOLES')
  and
	  variable('DMA TOTAL MULTIPOLES')
  commands.

    Psi4 stopped on: Tuesday, 28 April 2020 09:52AM
    Psi4 wall time for execution: 0:02:05.83

*** Psi4 exiting successfully. Buy a developer a beer!
