                               Psi4 1.3.2 release

  ==> Input File <==

--------------------------------------------------------------------------
import numpy as np
set {scf_type pk
basis cc-pvdz
d_convergence 10
gdma_switch   0
gdma_limit    0
gdma_origin   [ 0.0,  0.0,  0.0 ]
}
molecule test {
    units Angstrom
    0 1
    --
    0 1
    C               -1.915806846944168    -1.819296865004384    -0.635984912938748
    C               -1.109806846944168    -1.025296865004385     1.595015087061252
    N               -0.577806846944168     0.078703134995616     1.104015087061252
    N               -1.705806846944168    -1.929296865004384     0.816015087061252
    N               -1.031806846944167    -1.240296865004384     2.894015087061252
    H               -0.539806846944168     0.258703134995616     0.102015087061252
    H               -0.135806846944168     0.744703134995616     1.713015087061252
    H               -2.106806846944168    -2.739296865004384     1.268015087061252
    H               -1.501806846944168    -2.029296865004384     3.296015087061252
    H               -0.600806846944168    -0.554296865004384     3.496015087061252
    H               -2.244806846944167    -0.807296865004384    -0.883984912938748
    H               -2.718806846944168    -2.499296865004384    -0.925984912938748
    H               -1.026316846944167    -2.060259865004384    -1.236604912938748
    C                2.237193153055832     1.305703134995616    -2.722984912938748
    C                1.550193153055832     1.472703134995616    -1.377984912938748
    O                0.310193153055832     1.283703134995616    -1.297984912938748
    O                2.254193153055833     1.840703134995616    -0.408984912938748
    H                1.868193153055832     2.073703134995615    -3.406984912938748
    H                1.974193153055833     0.344703134995616    -3.158984912938748
    H                3.329225153055833     1.415336134995616    -2.649174912938748

}
e, wfn = energy('scf', return_wfn=True)
gdma(wfn)
dmavals = variable('DMA DISTRIBUTED MULTIPOLES')
charges = np.array(dmavals)
print(charges)
np.save('SSI-138ARG-142GLU-1-dimer.npy', np.array(charges))--------------------------------------------------------------------------

*** tstart() called on ds3
*** at Tue Apr 28 00:40:48 2020

   => Loading Basis Set <=

    Name: CC-PVDZ
    Role: ORBITAL
    Keyword: BASIS
    atoms 1-2, 14-15  entry C          line   138 file /theoryfs2/ds/metcalf/miniconda2/envs/tf2gpu/share/psi4/basis/cc-pvdz.gbs
    atoms 3-5         entry N          line   168 file /theoryfs2/ds/metcalf/miniconda2/envs/tf2gpu/share/psi4/basis/cc-pvdz.gbs
    atoms 6-13, 18-20 entry H          line    22 file /theoryfs2/ds/metcalf/miniconda2/envs/tf2gpu/share/psi4/basis/cc-pvdz.gbs
    atoms 16-17       entry O          line   198 file /theoryfs2/ds/metcalf/miniconda2/envs/tf2gpu/share/psi4/basis/cc-pvdz.gbs

         ---------------------------------------------------------
                                   SCF
               by Justin Turney, Rob Parrish, Andy Simmonett
                          and Daniel G. A. Smith
                              RHF Reference
                        1 Threads,    500 MiB Core
         ---------------------------------------------------------

  ==> Geometry <==

    Molecular point group: c1
    Full point group: C1

    Geometry (in Angstrom), charge = 0, multiplicity = 1:

       Center              X                  Y                   Z               Mass
    ------------   -----------------  -----------------  -----------------  -----------------
         C           -1.915806846944    -1.819296865004    -0.635984912939    12.000000000000
         C           -1.109806846944    -1.025296865004     1.595015087061    12.000000000000
         N           -0.577806846944     0.078703134996     1.104015087061    14.003074004430
         N           -1.705806846944    -1.929296865004     0.816015087061    14.003074004430
         N           -1.031806846944    -1.240296865004     2.894015087061    14.003074004430
         H           -0.539806846944     0.258703134996     0.102015087061     1.007825032230
         H           -0.135806846944     0.744703134996     1.713015087061     1.007825032230
         H           -2.106806846944    -2.739296865004     1.268015087061     1.007825032230
         H           -1.501806846944    -2.029296865004     3.296015087061     1.007825032230
         H           -0.600806846944    -0.554296865004     3.496015087061     1.007825032230
         H           -2.244806846944    -0.807296865004    -0.883984912939     1.007825032230
         H           -2.718806846944    -2.499296865004    -0.925984912939     1.007825032230
         H           -1.026316846944    -2.060259865004    -1.236604912939     1.007825032230
         C            2.237193153056     1.305703134996    -2.722984912939    12.000000000000
         C            1.550193153056     1.472703134996    -1.377984912939    12.000000000000
         O            0.310193153056     1.283703134996    -1.297984912939    15.994914619570
         O            2.254193153056     1.840703134996    -0.408984912939    15.994914619570
         H            1.868193153056     2.073703134996    -3.406984912939     1.007825032230
         H            1.974193153056     0.344703134996    -3.158984912939     1.007825032230
         H            3.329225153056     1.415336134996    -2.649174912939     1.007825032230

  Running in c1 symmetry.

  Rotational constants: A =      0.08807  B =      0.02042  C =      0.01735 [cm^-1]
  Rotational constants: A =   2640.32292  B =    612.09754  C =    520.20336 [MHz]
  Nuclear repulsion =  447.401594081888675

  Charge       = 0
  Multiplicity = 1
  Electrons    = 72
  Nalpha       = 36
  Nbeta        = 36

  ==> Algorithm <==

  SCF Algorithm Type is PK.
  DIIS enabled.
  MOM disabled.
  Fractional occupation disabled.
  Guess Type is SAD.
  Energy threshold   = 1.00e-06
  Density threshold  = 1.00e-10
  Integral threshold = 0.00e+00

  ==> Primary Basis <==

  Basis Set: CC-PVDZ
    Blend: CC-PVDZ
    Number of shells: 87
    Number of basis function: 181
    Number of Cartesian functions: 190
    Spherical Harmonics?: true
    Max angular momentum: 2

  ==> Pre-Iterations <==

   -------------------------------------------------------
    Irrep   Nso     Nmo     Nalpha   Nbeta   Ndocc  Nsocc
   -------------------------------------------------------
     A        181     181       0       0       0       0
   -------------------------------------------------------
    Total     181     181      36      36      36       0
   -------------------------------------------------------

  ==> Integral Setup <==

  Using integral reordering PK algorithm.
  Sizing the integral batches needed.
  Building batch lookup table.
   Calculation information:
      Number of atoms:                  20
      Number of AO shells:              87
      Number of primitives:            253
      Number of atomic orbitals:       190
      Number of basis functions:       181

      Integral cutoff                 1.00e-12
      Number of threads:                 1

	Batch   1 pq = [       0,    9405] index = [             0,44231715] size =     44231715
	Batch   2 pq = [    9405,   13301] index = [      44231715,88464951] size =     44233236
	Batch   3 pq = [   13301,   16471] index = [      88464951,135655156] size =     47190205
  Task number: 13
  Buffer size: 11059200
  Buffer per thread: 2
  We computed 5612133 shell quartets total.
  Whereas there are 7328706 unique shell quartets.

  ==> DiskJK: Disk-Based J/K Matrices <==

    J tasked:                  Yes
    K tasked:                  Yes
    wK tasked:                  No
    Memory [MiB]:              375
    Schwarz Cutoff:          1E-12

    OpenMP threads:              1

  Minimum eigenvalue in the overlap matrix is 3.9327333232E-03.
  Using Symmetric Orthogonalization.

  SCF Guess: Superposition of Atomic Densities via on-the-fly atomic UHF.

  ==> Iterations <==

                        Total Energy        Delta E     RMS |[F,P]|

   @RHF iter SAD:  -469.59534375827650   -4.69595e+02   0.00000e+00
   @RHF iter   1:  -470.67378019095514   -1.07844e+00   4.30233e-03 DIIS
   @RHF iter   2:  -470.90508429879395   -2.31304e-01   2.27856e-03 DIIS
   @RHF iter   3:  -470.96668549666879   -6.16012e-02   3.99288e-04 DIIS
   @RHF iter   4:  -470.97005001838545   -3.36452e-03   1.43056e-04 DIIS
   @RHF iter   5:  -470.97046562886652   -4.15610e-04   2.79702e-05 DIIS
   @RHF iter   6:  -470.97048839786959   -2.27690e-05   1.42904e-05 DIIS
   @RHF iter   7:  -470.97049240692110   -4.00905e-06   3.60238e-06 DIIS
   @RHF iter   8:  -470.97049301052391   -6.03603e-07   1.69936e-06 DIIS
   @RHF iter   9:  -470.97049311094645   -1.00423e-07   6.04996e-07 DIIS
   @RHF iter  10:  -470.97049313092339   -1.99769e-08   2.09882e-07 DIIS
   @RHF iter  11:  -470.97049313304103   -2.11764e-09   5.67134e-08 DIIS
   @RHF iter  12:  -470.97049313314562   -1.04592e-10   1.96213e-08 DIIS
   @RHF iter  13:  -470.97049313315824   -1.26192e-11   5.25491e-09 DIIS
   @RHF iter  14:  -470.97049313315841   -1.70530e-13   1.53003e-09 DIIS
   @RHF iter  15:  -470.97049313315915   -7.38964e-13   6.65040e-10 DIIS
   @RHF iter  16:  -470.97049313316131   -2.16005e-12   2.42163e-10 DIIS
   @RHF iter  17:  -470.97049313315875    2.55795e-12   1.00746e-10 DIIS
   @RHF iter  18:  -470.97049313316097   -2.21689e-12   3.91681e-11 DIIS
  Energy and wave function converged.

  ==> Post-Iterations <==

    Orbital Energies [Eh]
    ---------------------

    Doubly Occupied:

       1A    -20.396886     2A    -20.382891     3A    -15.666952
       4A    -15.663177     5A    -15.626969     6A    -11.455393
       7A    -11.319022     8A    -11.241339     9A    -11.152220
      10A     -1.411380    11A     -1.276942    12A     -1.276629
      13A     -1.244978    14A     -1.163634    15A     -1.015690
      16A     -0.904485    17A     -0.900457    18A     -0.843270
      19A     -0.812988    20A     -0.728938    21A     -0.703650
      22A     -0.693202    23A     -0.670860    24A     -0.619305
      25A     -0.615607    26A     -0.598065    27A     -0.529295
      28A     -0.520322    29A     -0.515351    30A     -0.479140
      31A     -0.459487    32A     -0.455689    33A     -0.423009
      34A     -0.314818    35A     -0.297154    36A     -0.293018

    Virtual:

      37A      0.101208    38A      0.140987    39A      0.156966
      40A      0.162389    41A      0.193278    42A      0.228164
      43A      0.235449    44A      0.246337    45A      0.267925
      46A      0.293836    47A      0.303519    48A      0.326394
      49A      0.356620    50A      0.375895    51A      0.407196
      52A      0.456452    53A      0.464015    54A      0.474344
      55A      0.563210    56A      0.573945    57A      0.599321
      58A      0.634769    59A      0.638993    60A      0.655163
      61A      0.658976    62A      0.669617    63A      0.686544
      64A      0.715883    65A      0.730742    66A      0.779434
      67A      0.795126    68A      0.811860    69A      0.819536
      70A      0.830840    71A      0.844012    72A      0.863705
      73A      0.872355    74A      0.903471    75A      0.908845
      76A      0.918612    77A      0.932813    78A      0.938835
      79A      0.941793    80A      0.970924    81A      0.988873
      82A      0.989458    83A      1.019403    84A      1.039117
      85A      1.069159    86A      1.099656    87A      1.112007
      88A      1.126576    89A      1.172000    90A      1.224572
      91A      1.237237    92A      1.245397    93A      1.250161
      94A      1.278968    95A      1.300723    96A      1.336028
      97A      1.347195    98A      1.373796    99A      1.416353
     100A      1.443255   101A      1.455637   102A      1.466060
     103A      1.478874   104A      1.531960   105A      1.558879
     106A      1.602962   107A      1.606180   108A      1.625001
     109A      1.625743   110A      1.648256   111A      1.681086
     112A      1.712901   113A      1.740120   114A      1.748257
     115A      1.759038   116A      1.775228   117A      1.835309
     118A      1.845889   119A      1.870805   120A      1.884253
     121A      1.894125   122A      1.912664   123A      1.937901
     124A      1.940401   125A      1.968390   126A      1.977932
     127A      1.990680   128A      2.014241   129A      2.020414
     130A      2.069452   131A      2.106509   132A      2.139574
     133A      2.153088   134A      2.169091   135A      2.177056
     136A      2.218309   137A      2.252853   138A      2.266950
     139A      2.295518   140A      2.316270   141A      2.333392
     142A      2.378406   143A      2.397873   144A      2.416389
     145A      2.448870   146A      2.459473   147A      2.491895
     148A      2.498778   149A      2.543794   150A      2.575265
     151A      2.586798   152A      2.622876   153A      2.654119
     154A      2.693618   155A      2.713273   156A      2.724601
     157A      2.762477   158A      2.817622   159A      2.834472
     160A      2.869835   161A      2.880145   162A      2.893795
     163A      2.916028   164A      2.931462   165A      2.990813
     166A      3.004168   167A      3.113578   168A      3.146284
     169A      3.162462   170A      3.198486   171A      3.227570
     172A      3.228500   173A      3.301667   174A      3.500370
     175A      3.657929   176A      3.684024   177A      3.703539
     178A      3.797443   179A      3.937119   180A      3.961054
     181A      4.072037

    Final Occupation by Irrep:
              A
    DOCC [    36 ]

  @RHF Final Energy:  -470.97049313316097

   => Energetics <=

    Nuclear Repulsion Energy =            447.4015940818886747
    One-Electron Energy =               -1531.3997459184799936
    Two-Electron Energy =                 613.0276587034302338
    Total Energy =                       -470.9704931331609714

Computation Completed

Properties will be evaluated at   0.000000,   0.000000,   0.000000 [a0]

Properties computed using the SCF density matrix

  Nuclear Dipole Moment: [e a0]
     X:    -3.4498      Y:    -5.4626      Z:    -2.2596

  Electronic Dipole Moment: [e a0]
     X:    -0.3525      Y:     1.2485      Z:     5.6500

  Dipole Moment: [e a0]
     X:    -3.8023      Y:    -4.2141      Z:     3.3904     Total:     6.6115

  Dipole Moment: [D]
     X:    -9.6646      Y:   -10.7113      Z:     8.6176     Total:    16.8047

*** tstop() called on ds3 at Tue Apr 28 00:41:53 2020
Module time:
	user time   =      43.38 seconds =       0.72 minutes
	system time =      23.75 seconds =       0.40 minutes
	total time  =         65 seconds =       1.08 minutes
Total time:
	user time   =      43.38 seconds =       0.72 minutes
	system time =      23.75 seconds =       0.40 minutes
	total time  =         65 seconds =       1.08 minutes
                                     G D M A

                                 by Anthony Stone

                           version 2.2.06, 22 June 2011

               Distributed Multipoles from Gaussian wavefunctions

Starting at 0:41:53 on 28 Apr 2020

Using SCF density matrix from file ./SSI/SSI-138ARG-142GLU-1-dimer.test.8507.fchk

                         Distributed Multipole Analysis

Standard DMA

Positions and radii in angstrom
Multipole moments in atomic units, ea_0^k for rank k

C          x = -1.915807  y = -1.819297  z = -0.635985 angstrom
           Maximum rank =  0   Radius =  0.650 angstrom
                   Q00  =  -0.117546

C          x = -1.109807  y = -1.025297  z =  1.595015 angstrom
           Maximum rank =  0   Radius =  0.650 angstrom
                   Q00  =   1.062530

N          x = -0.577807  y =  0.078703  z =  1.104015 angstrom
           Maximum rank =  0   Radius =  0.650 angstrom
                   Q00  =  -0.584139

N          x = -1.705807  y = -1.929297  z =  0.816015 angstrom
           Maximum rank =  0   Radius =  0.650 angstrom
                   Q00  =  -0.492702

N          x = -1.031807  y = -1.240297  z =  2.894015 angstrom
           Maximum rank =  0   Radius =  0.650 angstrom
                   Q00  =  -0.577800

H          x = -0.539807  y =  0.258703  z =  0.102015 angstrom
           Maximum rank =  0   Radius =  0.325 angstrom
                   Q00  =   0.320640

H          x = -0.135807  y =  0.744703  z =  1.713015 angstrom
           Maximum rank =  0   Radius =  0.325 angstrom
                   Q00  =   0.259349

H          x = -2.106807  y = -2.739297  z =  1.268015 angstrom
           Maximum rank =  0   Radius =  0.325 angstrom
                   Q00  =   0.201980

H          x = -1.501807  y = -2.029297  z =  3.296015 angstrom
           Maximum rank =  0   Radius =  0.325 angstrom
                   Q00  =   0.233856

H          x = -0.600807  y = -0.554297  z =  3.496015 angstrom
           Maximum rank =  0   Radius =  0.325 angstrom
                   Q00  =   0.255858

H          x = -2.244807  y = -0.807297  z = -0.883985 angstrom
           Maximum rank =  0   Radius =  0.325 angstrom
                   Q00  =   0.133761

H          x = -2.718807  y = -2.499297  z = -0.925985 angstrom
           Maximum rank =  0   Radius =  0.325 angstrom
                   Q00  =   0.130898

H          x = -1.026317  y = -2.060260  z = -1.236605 angstrom
           Maximum rank =  0   Radius =  0.325 angstrom
                   Q00  =   0.132538

C          x =  2.237193  y =  1.305703  z = -2.722985 angstrom
           Maximum rank =  0   Radius =  0.650 angstrom
                   Q00  =  -0.270606

C          x =  1.550193  y =  1.472703  z = -1.377985 angstrom
           Maximum rank =  0   Radius =  0.650 angstrom
                   Q00  =   0.931134

O          x =  0.310193  y =  1.283703  z = -1.297985 angstrom
           Maximum rank =  0   Radius =  0.650 angstrom
                   Q00  =  -0.960185

O          x =  2.254193  y =  1.840703  z = -0.408985 angstrom
           Maximum rank =  0   Radius =  0.650 angstrom
                   Q00  =  -0.897988

H          x =  1.868193  y =  2.073703  z = -3.406985 angstrom
           Maximum rank =  0   Radius =  0.325 angstrom
                   Q00  =   0.093325

H          x =  1.974193  y =  0.344703  z = -3.158985 angstrom
           Maximum rank =  0   Radius =  0.325 angstrom
                   Q00  =   0.066862

H          x =  3.329225  y =  1.415336  z = -2.649175 angstrom
           Maximum rank =  0   Radius =  0.325 angstrom
                   Q00  =   0.078234

Total multipoles referred to origin at
           x =   0.000000,  y =    0.000000,  z =    0.000000 angstrom
                   Q00  =  -0.000000

Finished at 0:41:53 on 28 Apr 2020

  DMA results are available in the Python driver through the
	  variable('DMA DISTRIBUTED MULTIPOLES')
  and
	  variable('DMA TOTAL MULTIPOLES')
  commands.

    Psi4 stopped on: Tuesday, 28 April 2020 12:41AM
    Psi4 wall time for execution: 0:01:05.22

*** Psi4 exiting successfully. Buy a developer a beer!
