                               Psi4 1.3.2 release

  ==> Input File <==

--------------------------------------------------------------------------
import numpy as np
set {scf_type pk
basis cc-pvdz
d_convergence 10
gdma_switch   0
gdma_limit    0
gdma_origin   [ 0.0,  0.0,  0.0 ]
}
molecule test {
    units Angstrom
    -1 1
    --
    -1 1
    C                2.425533020930887     1.864655066331232     0.087877349930666
    C                1.806533020930887     1.383655066331232    -1.211122650069335
    O                0.582533020930887     1.128655066331232    -1.234122650069334
    O                2.537533020930887     1.272655066331232    -2.219122650069334
    H                1.720533020930887     1.688655066331232     0.903877349930666
    H                2.590533020930887     2.940655066331232     0.006877349930666
    H                3.380573020930887     1.365905066331232     0.309545349930666
    C               -0.713466979069113    -0.445344933668768     1.219877349930665
    C               -0.779466979069113    -0.637344933668768     2.736877349930666
    C               -1.726466979069113    -1.284344933668768     0.470877349930666
    O               -2.886466979069113    -1.387344933668768     0.869877349930666
    N               -1.303466979069113    -1.887344933668768    -0.623122650069334
    H               -0.902466979069113     0.599655066331232     0.977877349930666
    H                0.285533020930887    -0.689344933668768     0.865877349930666
    H               -1.795466979069113    -0.412344933668768     3.068877349930666
    H               -1.970466979069113    -2.416344933668768    -1.166122650069334
    H               -0.323466979069113    -1.801344933668768    -0.887122650069334
    H               -0.055746979069113     0.043315066331232     3.209037349930666
    H               -0.583746979069113    -1.680931933668768     3.024317349930666

}
e, wfn = energy('scf', return_wfn=True)
gdma(wfn)
dmavals = variable('DMA DISTRIBUTED MULTIPOLES')
charges = np.array(dmavals)
print(charges)
np.save('SSI-182ASP-186ASN-1-dimer.npy', np.array(charges))--------------------------------------------------------------------------

*** tstart() called on ds3
*** at Mon Apr 27 08:54:52 2020

   => Loading Basis Set <=

    Name: CC-PVDZ
    Role: ORBITAL
    Keyword: BASIS
    atoms 1-2, 8-10  entry C          line   138 file /theoryfs2/ds/metcalf/miniconda2/envs/tf2gpu/share/psi4/basis/cc-pvdz.gbs
    atoms 3-4, 11    entry O          line   198 file /theoryfs2/ds/metcalf/miniconda2/envs/tf2gpu/share/psi4/basis/cc-pvdz.gbs
    atoms 5-7, 13-19 entry H          line    22 file /theoryfs2/ds/metcalf/miniconda2/envs/tf2gpu/share/psi4/basis/cc-pvdz.gbs
    atoms 12         entry N          line   168 file /theoryfs2/ds/metcalf/miniconda2/envs/tf2gpu/share/psi4/basis/cc-pvdz.gbs

         ---------------------------------------------------------
                                   SCF
               by Justin Turney, Rob Parrish, Andy Simmonett
                          and Daniel G. A. Smith
                              RHF Reference
                        1 Threads,    500 MiB Core
         ---------------------------------------------------------

  ==> Geometry <==

    Molecular point group: c1
    Full point group: C1

    Geometry (in Angstrom), charge = -1, multiplicity = 1:

       Center              X                  Y                   Z               Mass
    ------------   -----------------  -----------------  -----------------  -----------------
         C            2.425533020931     1.864655066331     0.087877349931    12.000000000000
         C            1.806533020931     1.383655066331    -1.211122650069    12.000000000000
         O            0.582533020931     1.128655066331    -1.234122650069    15.994914619570
         O            2.537533020931     1.272655066331    -2.219122650069    15.994914619570
         H            1.720533020931     1.688655066331     0.903877349931     1.007825032230
         H            2.590533020931     2.940655066331     0.006877349931     1.007825032230
         H            3.380573020931     1.365905066331     0.309545349931     1.007825032230
         C           -0.713466979069    -0.445344933669     1.219877349931    12.000000000000
         C           -0.779466979069    -0.637344933669     2.736877349931    12.000000000000
         C           -1.726466979069    -1.284344933669     0.470877349931    12.000000000000
         O           -2.886466979069    -1.387344933669     0.869877349931    15.994914619570
         N           -1.303466979069    -1.887344933669    -0.623122650069    14.003074004430
         H           -0.902466979069     0.599655066331     0.977877349931     1.007825032230
         H            0.285533020931    -0.689344933669     0.865877349931     1.007825032230
         H           -1.795466979069    -0.412344933669     3.068877349931     1.007825032230
         H           -1.970466979069    -2.416344933669    -1.166122650069     1.007825032230
         H           -0.323466979069    -1.801344933669    -0.887122650069     1.007825032230
         H           -0.055746979069     0.043315066331     3.209037349931     1.007825032230
         H           -0.583746979069    -1.680931933669     3.024317349931     1.007825032230

  Running in c1 symmetry.

  Rotational constants: A =      0.08436  B =      0.02082  C =      0.01766 [cm^-1]
  Rotational constants: A =   2529.14238  B =    624.25016  C =    529.38713 [MHz]
  Nuclear repulsion =  430.355574713647457

  Charge       = -1
  Multiplicity = 1
  Electrons    = 72
  Nalpha       = 36
  Nbeta        = 36

  ==> Algorithm <==

  SCF Algorithm Type is PK.
  DIIS enabled.
  MOM disabled.
  Fractional occupation disabled.
  Guess Type is SAD.
  Energy threshold   = 1.00e-06
  Density threshold  = 1.00e-10
  Integral threshold = 0.00e+00

  ==> Primary Basis <==

  Basis Set: CC-PVDZ
    Blend: CC-PVDZ
    Number of shells: 84
    Number of basis function: 176
    Number of Cartesian functions: 185
    Spherical Harmonics?: true
    Max angular momentum: 2

  ==> Pre-Iterations <==

   -------------------------------------------------------
    Irrep   Nso     Nmo     Nalpha   Nbeta   Ndocc  Nsocc
   -------------------------------------------------------
     A        176     176       0       0       0       0
   -------------------------------------------------------
    Total     176     176      36      36      36       0
   -------------------------------------------------------

  ==> Integral Setup <==

  Using integral reordering PK algorithm.
  Sizing the integral batches needed.
  Building batch lookup table.
   Calculation information:
      Number of atoms:                  19
      Number of AO shells:              84
      Number of primitives:            248
      Number of atomic orbitals:       185
      Number of basis functions:       176

      Integral cutoff                 1.00e-12
      Number of threads:                 1

	Batch   1 pq = [       0,    9405] index = [             0,44231715] size =     44231715
	Batch   2 pq = [    9405,   13301] index = [      44231715,88464951] size =     44233236
	Batch   3 pq = [   13301,   15576] index = [      88464951,121313676] size =     32848725
  Task number: 11
  Buffer size: 11059200
  Buffer per thread: 2
  We computed 5045221 shell quartets total.
  Whereas there are 6374235 unique shell quartets.

  ==> DiskJK: Disk-Based J/K Matrices <==

    J tasked:                  Yes
    K tasked:                  Yes
    wK tasked:                  No
    Memory [MiB]:              375
    Schwarz Cutoff:          1E-12

    OpenMP threads:              1

  Minimum eigenvalue in the overlap matrix is 3.4100648971E-03.
  Using Symmetric Orthogonalization.

  SCF Guess: Superposition of Atomic Densities via on-the-fly atomic UHF.

  ==> Iterations <==

                        Total Energy        Delta E     RMS |[F,P]|

   @RHF iter SAD:  -472.46272446036465   -4.72463e+02   0.00000e+00
   @RHF iter   1:  -473.93448232966801   -1.47176e+00   4.85153e-03 DIIS
   @RHF iter   2:  -474.19407631154871   -2.59594e-01   2.82243e-03 DIIS
   @RHF iter   3:  -474.28182885885724   -8.77525e-02   4.42990e-04 DIIS
   @RHF iter   4:  -474.28570090291686   -3.87204e-03   1.75584e-04 DIIS
   @RHF iter   5:  -474.28635332889792   -6.52426e-04   3.54588e-05 DIIS
   @RHF iter   6:  -474.28638775144651   -3.44225e-05   1.84496e-05 DIIS
   @RHF iter   7:  -474.28639537131477   -7.61987e-06   5.02100e-06 DIIS
   @RHF iter   8:  -474.28639655698402   -1.18567e-06   2.11134e-06 DIIS
   @RHF iter   9:  -474.28639674410203   -1.87118e-07   7.71676e-07 DIIS
   @RHF iter  10:  -474.28639676732382   -2.32218e-08   2.46365e-07 DIIS
   @RHF iter  11:  -474.28639676908864   -1.76482e-09   9.00617e-08 DIIS
   @RHF iter  12:  -474.28639676926758   -1.78943e-10   2.78731e-08 DIIS
   @RHF iter  13:  -474.28639676929276   -2.51816e-11   8.36669e-09 DIIS
   @RHF iter  14:  -474.28639676929430   -1.53477e-12   2.85915e-09 DIIS
   @RHF iter  15:  -474.28639676929419    1.13687e-13   1.23439e-09 DIIS
   @RHF iter  16:  -474.28639676929441   -2.27374e-13   5.61109e-10 DIIS
   @RHF iter  17:  -474.28639676929589   -1.47793e-12   2.45935e-10 DIIS
   @RHF iter  18:  -474.28639676929606   -1.70530e-13   7.17852e-11 DIIS
  Energy and wave function converged.

  ==> Post-Iterations <==

    Orbital Energies [Eh]
    ---------------------

    Doubly Occupied:

       1A    -20.385720     2A    -20.273097     3A    -20.265021
       4A    -15.468325     5A    -11.223535     6A    -11.125732
       7A    -11.118631     8A    -11.108133     9A    -11.060781
      10A     -1.250595    11A     -1.160463    12A     -1.096376
      13A     -1.045602    14A     -0.926964    15A     -0.807706
      16A     -0.772013    17A     -0.661891    18A     -0.602871
      19A     -0.546590    20A     -0.511208    21A     -0.502724
      22A     -0.472913    23A     -0.446446    24A     -0.422957
      25A     -0.419154    26A     -0.414956    27A     -0.408083
      28A     -0.384204    29A     -0.370668    30A     -0.351044
      31A     -0.314830    32A     -0.290716    33A     -0.286496
      34A     -0.194701    35A     -0.180481    36A     -0.171034

    Virtual:

      37A      0.286824    38A      0.303044    39A      0.331451
      40A      0.339885    41A      0.351223    42A      0.364297
      43A      0.373131    44A      0.386316    45A      0.404367
      46A      0.423741    47A      0.445732    48A      0.477381
      49A      0.505413    50A      0.553427    51A      0.578564
      52A      0.581223    53A      0.672867    54A      0.680909
      55A      0.705030    56A      0.725248    57A      0.760001
      58A      0.781661    59A      0.805223    60A      0.807716
      61A      0.856634    62A      0.869564    63A      0.897714
      64A      0.913727    65A      0.934327    66A      0.951236
      67A      0.965595    68A      0.974228    69A      0.996184
      70A      1.001337    71A      1.005271    72A      1.021406
      73A      1.026877    74A      1.031106    75A      1.042267
      76A      1.059299    77A      1.075390    78A      1.090936
      79A      1.097339    80A      1.138055    81A      1.144855
      82A      1.158874    83A      1.171190    84A      1.219508
      85A      1.235681    86A      1.245468    87A      1.329097
      88A      1.338536    89A      1.398473    90A      1.424501
      91A      1.444913    92A      1.474518    93A      1.503265
      94A      1.506593    95A      1.537834    96A      1.546616
      97A      1.570603    98A      1.585095    99A      1.595001
     100A      1.612297   101A      1.621233   102A      1.652711
     103A      1.691464   104A      1.712213   105A      1.735889
     106A      1.770689   107A      1.790112   108A      1.829911
     109A      1.837605   110A      1.845583   111A      1.902158
     112A      1.934932   113A      1.988416   114A      1.999294
     115A      2.011320   116A      2.027175   117A      2.039894
     118A      2.045492   119A      2.051435   120A      2.070972
     121A      2.095447   122A      2.098130   123A      2.117888
     124A      2.130970   125A      2.148247   126A      2.179688
     127A      2.194578   128A      2.201488   129A      2.232214
     130A      2.257983   131A      2.317017   132A      2.346208
     133A      2.349570   134A      2.401278   135A      2.409168
     136A      2.426429   137A      2.448982   138A      2.513979
     139A      2.552153   140A      2.564349   141A      2.590835
     142A      2.635977   143A      2.651706   144A      2.668500
     145A      2.682022   146A      2.706809   147A      2.729427
     148A      2.764326   149A      2.783776   150A      2.862402
     151A      2.877997   152A      2.917298   153A      2.953598
     154A      2.957494   155A      2.988188   156A      3.003298
     157A      3.013992   158A      3.086547   159A      3.101905
     160A      3.214704   161A      3.236322   162A      3.256003
     163A      3.268188   164A      3.286728   165A      3.351477
     166A      3.431195   167A      3.627048   168A      3.631228
     169A      3.641510   170A      3.768450   171A      3.824056
     172A      3.983509   173A      4.019554   174A      4.054154
     175A      4.082229   176A      4.188279

    Final Occupation by Irrep:
              A
    DOCC [    36 ]

  @RHF Final Energy:  -474.28639676929606

   => Energetics <=

    Nuclear Repulsion Energy =            430.3555747136474565
    One-Electron Energy =               -1515.1986202767016039
    Two-Electron Energy =                 610.5566487937580860
    Total Energy =                       -474.2863967692960614

Computation Completed

Properties will be evaluated at   0.000000,   0.000000,   0.000000 [a0]

Properties computed using the SCF density matrix

  Nuclear Dipole Moment: [e a0]
     X:     2.2040      Y:    -0.3291      Z:     9.6576

  Electronic Dipole Moment: [e a0]
     X:    -3.1813      Y:    -1.5259      Z:    -7.4026

  Dipole Moment: [e a0]
     X:    -0.9772      Y:    -1.8550      Z:     2.2550     Total:     3.0791

  Dipole Moment: [D]
     X:    -2.4839      Y:    -4.7150      Z:     5.7316     Total:     7.8264

*** tstop() called on ds3 at Mon Apr 27 08:57:07 2020
Module time:
	user time   =      38.00 seconds =       0.63 minutes
	system time =      18.19 seconds =       0.30 minutes
	total time  =        135 seconds =       2.25 minutes
Total time:
	user time   =      38.00 seconds =       0.63 minutes
	system time =      18.19 seconds =       0.30 minutes
	total time  =        135 seconds =       2.25 minutes
                                     G D M A

                                 by Anthony Stone

                           version 2.2.06, 22 June 2011

               Distributed Multipoles from Gaussian wavefunctions

Starting at 8:57:7 on 27 Apr 2020

Using SCF density matrix from file ./SSI/SSI-182ASP-186ASN-1-dimer.test.1258.fchk

                         Distributed Multipole Analysis

Standard DMA

Positions and radii in angstrom
Multipole moments in atomic units, ea_0^k for rank k

C          x =  2.425533  y =  1.864655  z =  0.087877 angstrom
           Maximum rank =  0   Radius =  0.650 angstrom
                   Q00  =  -0.286171

C          x =  1.806533  y =  1.383655  z = -1.211123 angstrom
           Maximum rank =  0   Radius =  0.650 angstrom
                   Q00  =   0.967033

O          x =  0.582533  y =  1.128655  z = -1.234123 angstrom
           Maximum rank =  0   Radius =  0.650 angstrom
                   Q00  =  -0.935490

O          x =  2.537533  y =  1.272655  z = -2.219123 angstrom
           Maximum rank =  0   Radius =  0.650 angstrom
                   Q00  =  -0.928573

H          x =  1.720533  y =  1.688655  z =  0.903877 angstrom
           Maximum rank =  0   Radius =  0.325 angstrom
                   Q00  =   0.050881

H          x =  2.590533  y =  2.940655  z =  0.006877 angstrom
           Maximum rank =  0   Radius =  0.325 angstrom
                   Q00  =   0.083778

H          x =  3.380573  y =  1.365905  z =  0.309545 angstrom
           Maximum rank =  0   Radius =  0.325 angstrom
                   Q00  =   0.062700

C          x = -0.713467  y = -0.445345  z =  1.219877 angstrom
           Maximum rank =  0   Radius =  0.650 angstrom
                   Q00  =  -0.092529

C          x = -0.779467  y = -0.637345  z =  2.736877 angstrom
           Maximum rank =  0   Radius =  0.650 angstrom
                   Q00  =  -0.239477

C          x = -1.726467  y = -1.284345  z =  0.470877 angstrom
           Maximum rank =  0   Radius =  0.650 angstrom
                   Q00  =   0.863436

O          x = -2.886467  y = -1.387345  z =  0.869877 angstrom
           Maximum rank =  0   Radius =  0.650 angstrom
                   Q00  =  -0.854852

N          x = -1.303467  y = -1.887345  z = -0.623123 angstrom
           Maximum rank =  0   Radius =  0.650 angstrom
                   Q00  =  -0.533467

H          x = -0.902467  y =  0.599655  z =  0.977877 angstrom
           Maximum rank =  0   Radius =  0.325 angstrom
                   Q00  =   0.126076

H          x =  0.285533  y = -0.689345  z =  0.865877 angstrom
           Maximum rank =  0   Radius =  0.325 angstrom
                   Q00  =   0.055800

H          x = -1.795467  y = -0.412345  z =  3.068877 angstrom
           Maximum rank =  0   Radius =  0.325 angstrom
                   Q00  =   0.094508

H          x = -1.970467  y = -2.416345  z = -1.166123 angstrom
           Maximum rank =  0   Radius =  0.325 angstrom
                   Q00  =   0.197018

H          x = -0.323467  y = -1.801345  z = -0.887123 angstrom
           Maximum rank =  0   Radius =  0.325 angstrom
                   Q00  =   0.233462

H          x = -0.055747  y =  0.043315  z =  3.209037 angstrom
           Maximum rank =  0   Radius =  0.325 angstrom
                   Q00  =   0.072902

H          x = -0.583747  y = -1.680932  z =  3.024317 angstrom
           Maximum rank =  0   Radius =  0.325 angstrom
                   Q00  =   0.062968

Total multipoles referred to origin at
           x =   0.000000,  y =    0.000000,  z =    0.000000 angstrom
                   Q00  =  -1.000000

Finished at 8:57:7 on 27 Apr 2020

  DMA results are available in the Python driver through the
	  variable('DMA DISTRIBUTED MULTIPOLES')
  and
	  variable('DMA TOTAL MULTIPOLES')
  commands.

    Psi4 stopped on: Monday, 27 April 2020 08:57AM
    Psi4 wall time for execution: 0:02:14.80

*** Psi4 exiting successfully. Buy a developer a beer!
