                               Psi4 1.3.2 release

  ==> Input File <==

--------------------------------------------------------------------------
import numpy as np
set {scf_type pk
basis cc-pvdz
d_convergence 10
gdma_switch   0
gdma_limit    0
gdma_origin   [ 0.0,  0.0,  0.0 ]
}
molecule test {
    units Angstrom
    0 1
    --
    0 1
    C                2.031066012889377     0.205097839983278     2.498452819683959
    C               -1.490933987110623    -0.128902160016722     0.031452819683959
    C               -0.791933987110623    -1.258902160016722     0.448452819683959
    C               -0.975933987110623     1.119097839983278     0.336452819683959
    C                0.369066012889377    -1.139902160016722     1.207452819683959
    C                0.130066012889377     1.251097839983278     1.179452819683959
    C                0.842066012889377     0.096097839983278     1.589452819683959
    O               -2.638933987110623    -0.339902160016722    -0.755547180316041
    H               -1.152933987110623    -2.243902160016721     0.185452819683959
    H               -2.833933987110623    -1.274902160016722    -0.870547180316041
    H               -1.502933987110623     1.993097839983278    -0.011547180316041
    H                0.871066012889377    -2.039902160016722     1.524452819683959
    H                0.474066012889377     2.235097839983278     1.472452819683959
    H                1.721066012889377    -0.122902160016722     3.489452819683959
    H                2.329066012889377     1.251097839983278     2.577452819683959
    H                2.897836012889377    -0.397502160016722     2.189302819683959
    C                1.012066012889377     0.854097839983278    -2.743547180316041
    C                1.524066012889377    -0.567902160016722    -2.983547180316040
    H                0.833066012889377     1.359097839983278    -3.692547180316041
    H                0.082066012889377     0.821097839983278    -2.179547180316041
    H                1.746066012889377     1.400097839983278    -2.151547180316041
    H                1.766066012889377    -1.035902160016722    -2.034547180316042
    H                2.389596012889377    -0.537272160016722    -3.661722180316040
    H                0.713376012889377    -1.131322160016722    -3.468657180316041

}
e, wfn = energy('scf', return_wfn=True)
gdma(wfn)
dmavals = variable('DMA DISTRIBUTED MULTIPOLES')
charges = np.array(dmavals)
print(charges)
np.save('SSI-197TYR-201LEU-1-dimer.npy', np.array(charges))--------------------------------------------------------------------------

*** tstart() called on ds3
*** at Mon Apr 27 21:02:16 2020

   => Loading Basis Set <=

    Name: CC-PVDZ
    Role: ORBITAL
    Keyword: BASIS
    atoms 1-7, 17-18  entry C          line   138 file /theoryfs2/ds/metcalf/miniconda2/envs/tf2gpu/share/psi4/basis/cc-pvdz.gbs
    atoms 8           entry O          line   198 file /theoryfs2/ds/metcalf/miniconda2/envs/tf2gpu/share/psi4/basis/cc-pvdz.gbs
    atoms 9-16, 19-24 entry H          line    22 file /theoryfs2/ds/metcalf/miniconda2/envs/tf2gpu/share/psi4/basis/cc-pvdz.gbs

         ---------------------------------------------------------
                                   SCF
               by Justin Turney, Rob Parrish, Andy Simmonett
                          and Daniel G. A. Smith
                              RHF Reference
                        1 Threads,    500 MiB Core
         ---------------------------------------------------------

  ==> Geometry <==

    Molecular point group: c1
    Full point group: C1

    Geometry (in Angstrom), charge = 0, multiplicity = 1:

       Center              X                  Y                   Z               Mass
    ------------   -----------------  -----------------  -----------------  -----------------
         C            2.031066012889     0.205097839983     2.498452819684    12.000000000000
         C           -1.490933987111    -0.128902160017     0.031452819684    12.000000000000
         C           -0.791933987111    -1.258902160017     0.448452819684    12.000000000000
         C           -0.975933987111     1.119097839983     0.336452819684    12.000000000000
         C            0.369066012889    -1.139902160017     1.207452819684    12.000000000000
         C            0.130066012889     1.251097839983     1.179452819684    12.000000000000
         C            0.842066012889     0.096097839983     1.589452819684    12.000000000000
         O           -2.638933987111    -0.339902160017    -0.755547180316    15.994914619570
         H           -1.152933987111    -2.243902160017     0.185452819684     1.007825032230
         H           -2.833933987111    -1.274902160017    -0.870547180316     1.007825032230
         H           -1.502933987111     1.993097839983    -0.011547180316     1.007825032230
         H            0.871066012889    -2.039902160017     1.524452819684     1.007825032230
         H            0.474066012889     2.235097839983     1.472452819684     1.007825032230
         H            1.721066012889    -0.122902160017     3.489452819684     1.007825032230
         H            2.329066012889     1.251097839983     2.577452819684     1.007825032230
         H            2.897836012889    -0.397502160017     2.189302819684     1.007825032230
         C            1.012066012889     0.854097839983    -2.743547180316    12.000000000000
         C            1.524066012889    -0.567902160017    -2.983547180316    12.000000000000
         H            0.833066012889     1.359097839983    -3.692547180316     1.007825032230
         H            0.082066012889     0.821097839983    -2.179547180316     1.007825032230
         H            1.746066012889     1.400097839983    -2.151547180316     1.007825032230
         H            1.766066012889    -1.035902160017    -2.034547180316     1.007825032230
         H            2.389596012889    -0.537272160017    -3.661722180316     1.007825032230
         H            0.713376012889    -1.131322160017    -3.468657180316     1.007825032230

  Running in c1 symmetry.

  Rotational constants: A =      0.04119  B =      0.03094  C =      0.02297 [cm^-1]
  Rotational constants: A =   1234.97797  B =    927.66283  C =    688.49541 [MHz]
  Nuclear repulsion =  506.781618034711016

  Charge       = 0
  Multiplicity = 1
  Electrons    = 76
  Nalpha       = 38
  Nbeta        = 38

  ==> Algorithm <==

  SCF Algorithm Type is PK.
  DIIS enabled.
  MOM disabled.
  Fractional occupation disabled.
  Guess Type is SAD.
  Energy threshold   = 1.00e-06
  Density threshold  = 1.00e-10
  Integral threshold = 0.00e+00

  ==> Primary Basis <==

  Basis Set: CC-PVDZ
    Blend: CC-PVDZ
    Number of shells: 102
    Number of basis function: 210
    Number of Cartesian functions: 220
    Spherical Harmonics?: true
    Max angular momentum: 2

  ==> Pre-Iterations <==

   -------------------------------------------------------
    Irrep   Nso     Nmo     Nalpha   Nbeta   Ndocc  Nsocc
   -------------------------------------------------------
     A        210     210       0       0       0       0
   -------------------------------------------------------
    Total     210     210      38      38      38       0
   -------------------------------------------------------

  ==> Integral Setup <==

  Using integral reordering PK algorithm.
  Sizing the integral batches needed.
  Building batch lookup table.
   Calculation information:
      Number of atoms:                  24
      Number of AO shells:             102
      Number of primitives:            290
      Number of atomic orbitals:       220
      Number of basis functions:       210

      Integral cutoff                 1.00e-12
      Number of threads:                 1

	Batch   1 pq = [       0,    9405] index = [             0,44231715] size =     44231715
	Batch   2 pq = [    9405,   13301] index = [      44231715,88464951] size =     44233236
	Batch   3 pq = [   13301,   16290] index = [      88464951,132690195] size =     44225244
	Batch   4 pq = [   16290,   18810] index = [     132690195,176917455] size =     44227260
	Batch   5 pq = [   18810,   21030] index = [     176917455,221140965] size =     44223510
	Batch   6 pq = [   21030,   22155] index = [     221140965,245433090] size =     24292125
  Task number: 23
  Buffer size: 11059200
  Buffer per thread: 2
  We computed 13264688 shell quartets total.
  Whereas there are 13799631 unique shell quartets.

  ==> DiskJK: Disk-Based J/K Matrices <==

    J tasked:                  Yes
    K tasked:                  Yes
    wK tasked:                  No
    Memory [MiB]:              375
    Schwarz Cutoff:          1E-12

    OpenMP threads:              1

  Minimum eigenvalue in the overlap matrix is 3.5492721434E-04.
  Using Symmetric Orthogonalization.

  SCF Guess: Superposition of Atomic Densities via on-the-fly atomic UHF.

  ==> Iterations <==

                        Total Energy        Delta E     RMS |[F,P]|

   @RHF iter SAD:  -422.61066769458239   -4.22611e+02   0.00000e+00
   @RHF iter   1:  -423.59415262935289   -9.83485e-01   2.98883e-03 DIIS
   @RHF iter   2:  -423.80968597080636   -2.15533e-01   1.27992e-03 DIIS
   @RHF iter   3:  -423.84539543138180   -3.57095e-02   2.88316e-04 DIIS
   @RHF iter   4:  -423.84830182281041   -2.90639e-03   1.21558e-04 DIIS
   @RHF iter   5:  -423.84867999178311   -3.78169e-04   2.12576e-05 DIIS
   @RHF iter   6:  -423.84869817759716   -1.81858e-05   6.52831e-06 DIIS
   @RHF iter   7:  -423.84869990375125   -1.72615e-06   2.06507e-06 DIIS
   @RHF iter   8:  -423.84870011937926   -2.15628e-07   7.72580e-07 DIIS
   @RHF iter   9:  -423.84870014846234   -2.90831e-08   2.44577e-07 DIIS
   @RHF iter  10:  -423.84870015218792   -3.72557e-09   8.37597e-08 DIIS
   @RHF iter  11:  -423.84870015293166   -7.43739e-10   3.77035e-08 DIIS
   @RHF iter  12:  -423.84870015310571   -1.74055e-10   1.76794e-08 DIIS
   @RHF iter  13:  -423.84870015314846   -4.27463e-11   7.73896e-09 DIIS
   @RHF iter  14:  -423.84870015315312   -4.66116e-12   2.20509e-09 DIIS
   @RHF iter  15:  -423.84870015315482   -1.70530e-12   6.72626e-10 DIIS
   @RHF iter  16:  -423.84870015315545   -6.25278e-13   2.51092e-10 DIIS
   @RHF iter  17:  -423.84870015315425    1.19371e-12   1.18089e-10 DIIS
   @RHF iter  18:  -423.84870015315516   -9.09495e-13   5.81263e-11 DIIS
  Energy and wave function converged.

  ==> Post-Iterations <==

    Orbital Energies [Eh]
    ---------------------

    Doubly Occupied:

       1A    -20.580307     2A    -11.301646     3A    -11.244877
       4A    -11.239304     5A    -11.237377     6A    -11.236599
       7A    -11.235884     8A    -11.230349     9A    -11.209654
      10A    -11.203440    11A     -1.380260    12A     -1.154688
      13A     -1.043269    14A     -1.019159    15A     -1.008009
      16A     -0.929599    17A     -0.844290    18A     -0.825037
      19A     -0.800772    20A     -0.726762    21A     -0.667467
      22A     -0.643264    23A     -0.612837    24A     -0.594462
      25A     -0.588095    26A     -0.587514    27A     -0.579535
      28A     -0.566263    29A     -0.562948    30A     -0.531678
      31A     -0.502326    32A     -0.487329    33A     -0.483736
      34A     -0.480912    35A     -0.472697    36A     -0.466610
      37A     -0.339984    38A     -0.307200

    Virtual:

      39A      0.126736    40A      0.150178    41A      0.173465
      42A      0.181674    43A      0.204147    44A      0.211097
      45A      0.219409    46A      0.247776    47A      0.257444
      48A      0.262030    49A      0.269046    50A      0.272322
      51A      0.276721    52A      0.289626    53A      0.298675
      54A      0.320608    55A      0.366676    56A      0.371137
      57A      0.400829    58A      0.429355    59A      0.453877
      60A      0.479891    61A      0.492314    62A      0.504943
      63A      0.585885    64A      0.594871    65A      0.609321
      66A      0.610986    67A      0.628344    68A      0.643891
      69A      0.655495    70A      0.656877    71A      0.676064
      72A      0.689378    73A      0.707150    74A      0.727871
      75A      0.733612    76A      0.762793    77A      0.769603
      78A      0.774228    79A      0.784721    80A      0.797809
      81A      0.819272    82A      0.835047    83A      0.840756
      84A      0.867796    85A      0.870524    86A      0.877309
      87A      0.885561    88A      0.892192    89A      0.897025
      90A      0.904984    91A      0.913445    92A      0.920022
      93A      0.927643    94A      0.933858    95A      0.937382
      96A      0.947117    97A      0.956168    98A      0.975365
      99A      0.999934   100A      1.017482   101A      1.038708
     102A      1.066906   103A      1.106422   104A      1.126447
     105A      1.138586   106A      1.160716   107A      1.164302
     108A      1.181598   109A      1.201890   110A      1.232216
     111A      1.252889   112A      1.268538   113A      1.280950
     114A      1.283103   115A      1.294038   116A      1.317539
     117A      1.325588   118A      1.353298   119A      1.357393
     120A      1.397080   121A      1.475651   122A      1.493353
     123A      1.501486   124A      1.505120   125A      1.525151
     126A      1.555434   127A      1.575038   128A      1.616111
     129A      1.632647   130A      1.667940   131A      1.685140
     132A      1.692973   133A      1.703558   134A      1.733439
     135A      1.743292   136A      1.781859   137A      1.800778
     138A      1.813451   139A      1.854006   140A      1.866479
     141A      1.879692   142A      1.887384   143A      1.891273
     144A      1.901437   145A      1.905928   146A      1.909711
     147A      1.936045   148A      1.942538   149A      1.946455
     150A      1.952553   151A      1.959038   152A      1.964941
     153A      1.977012   154A      1.979347   155A      1.983240
     156A      1.996904   157A      2.035153   158A      2.040682
     159A      2.056906   160A      2.080288   161A      2.087205
     162A      2.106416   163A      2.118236   164A      2.147449
     165A      2.150756   166A      2.187018   167A      2.209203
     168A      2.217329   169A      2.254141   170A      2.274363
     171A      2.288377   172A      2.303794   173A      2.320525
     174A      2.347627   175A      2.385605   176A      2.390653
     177A      2.447200   178A      2.458777   179A      2.473824
     180A      2.486439   181A      2.491734   182A      2.532930
     183A      2.545445   184A      2.584279   185A      2.595360
     186A      2.606730   187A      2.648459   188A      2.734637
     189A      2.765636   190A      2.779012   191A      2.790548
     192A      2.805830   193A      2.813070   194A      2.839915
     195A      2.842281   196A      2.874391   197A      2.891701
     198A      2.949831   199A      2.974318   200A      2.986084
     201A      2.994520   202A      3.063026   203A      3.123049
     204A      3.236967   205A      3.286189   206A      3.331679
     207A      3.553277   208A      3.610082   209A      3.979561
     210A      4.164638

    Final Occupation by Irrep:
              A
    DOCC [    38 ]

  @RHF Final Energy:  -423.84870015315516

   => Energetics <=

    Nuclear Repulsion Energy =            506.7816180347110162
    One-Electron Energy =               -1579.4083551077383163
    Two-Electron Energy =                 648.7780369198720791
    Total Energy =                       -423.8487001531551641

Computation Completed

Properties will be evaluated at   0.000000,   0.000000,   0.000000 [a0]

Properties computed using the SCF density matrix

  Nuclear Dipole Moment: [e a0]
     X:     9.6747      Y:     0.2571      Z:    -6.2210

  Electronic Dipole Moment: [e a0]
     X:    -9.4355      Y:    -0.7442      Z:     6.5744

  Dipole Moment: [e a0]
     X:     0.2392      Y:    -0.4871      Z:     0.3534     Total:     0.6476

  Dipole Moment: [D]
     X:     0.6080      Y:    -1.2380      Z:     0.8982     Total:     1.6460

*** tstop() called on ds3 at Mon Apr 27 21:05:21 2020
Module time:
	user time   =      96.84 seconds =       1.61 minutes
	system time =      36.15 seconds =       0.60 minutes
	total time  =        185 seconds =       3.08 minutes
Total time:
	user time   =      96.84 seconds =       1.61 minutes
	system time =      36.15 seconds =       0.60 minutes
	total time  =        185 seconds =       3.08 minutes
                                     G D M A

                                 by Anthony Stone

                           version 2.2.06, 22 June 2011

               Distributed Multipoles from Gaussian wavefunctions

Starting at 21:5:21 on 27 Apr 2020

Using SCF density matrix from file ./SSI/SSI-197TYR-201LEU-1-dimer.test.21652.fchk

                         Distributed Multipole Analysis

Standard DMA

Positions and radii in angstrom
Multipole moments in atomic units, ea_0^k for rank k

C          x =  2.031066  y =  0.205098  z =  2.498453 angstrom
           Maximum rank =  0   Radius =  0.650 angstrom
                   Q00  =  -0.202530

C          x = -1.490934  y = -0.128902  z =  0.031453 angstrom
           Maximum rank =  0   Radius =  0.650 angstrom
                   Q00  =   0.260291

C          x = -0.791934  y = -1.258902  z =  0.448453 angstrom
           Maximum rank =  0   Radius =  0.650 angstrom
                   Q00  =  -0.057895

C          x = -0.975934  y =  1.119098  z =  0.336453 angstrom
           Maximum rank =  0   Radius =  0.650 angstrom
                   Q00  =  -0.058349

C          x =  0.369066  y = -1.139902  z =  1.207453 angstrom
           Maximum rank =  0   Radius =  0.650 angstrom
                   Q00  =  -0.060597

C          x =  0.130066  y =  1.251098  z =  1.179453 angstrom
           Maximum rank =  0   Radius =  0.650 angstrom
                   Q00  =  -0.062384

C          x =  0.842066  y =  0.096098  z =  1.589453 angstrom
           Maximum rank =  0   Radius =  0.650 angstrom
                   Q00  =  -0.128565

O          x = -2.638934  y = -0.339902  z = -0.755547 angstrom
           Maximum rank =  0   Radius =  0.650 angstrom
                   Q00  =  -0.677532

H          x = -1.152934  y = -2.243902  z =  0.185453 angstrom
           Maximum rank =  0   Radius =  0.325 angstrom
                   Q00  =   0.068196

H          x = -2.833934  y = -1.274902  z = -0.870547 angstrom
           Maximum rank =  0   Radius =  0.325 angstrom
                   Q00  =   0.410500

H          x = -1.502934  y =  1.993098  z = -0.011547 angstrom
           Maximum rank =  0   Radius =  0.325 angstrom
                   Q00  =   0.083501

H          x =  0.871066  y = -2.039902  z =  1.524453 angstrom
           Maximum rank =  0   Radius =  0.325 angstrom
                   Q00  =   0.065137

H          x =  0.474066  y =  2.235098  z =  1.472453 angstrom
           Maximum rank =  0   Radius =  0.325 angstrom
                   Q00  =   0.071610

H          x =  1.721066  y = -0.122902  z =  3.489453 angstrom
           Maximum rank =  0   Radius =  0.325 angstrom
                   Q00  =   0.099034

H          x =  2.329066  y =  1.251098  z =  2.577453 angstrom
           Maximum rank =  0   Radius =  0.325 angstrom
                   Q00  =   0.096890

H          x =  2.897836  y = -0.397502  z =  2.189303 angstrom
           Maximum rank =  0   Radius =  0.325 angstrom
                   Q00  =   0.100360

C          x =  1.012066  y =  0.854098  z = -2.743547 angstrom
           Maximum rank =  0   Radius =  0.650 angstrom
                   Q00  =  -0.244440

C          x =  1.524066  y = -0.567902  z = -2.983547 angstrom
           Maximum rank =  0   Radius =  0.650 angstrom
                   Q00  =  -0.224230

H          x =  0.833066  y =  1.359098  z = -3.692547 angstrom
           Maximum rank =  0   Radius =  0.325 angstrom
                   Q00  =   0.072332

H          x =  0.082066  y =  0.821098  z = -2.179547 angstrom
           Maximum rank =  0   Radius =  0.325 angstrom
                   Q00  =   0.087117

H          x =  1.746066  y =  1.400098  z = -2.151547 angstrom
           Maximum rank =  0   Radius =  0.325 angstrom
                   Q00  =   0.073535

H          x =  1.766066  y = -1.035902  z = -2.034547 angstrom
           Maximum rank =  0   Radius =  0.325 angstrom
                   Q00  =   0.085677

H          x =  2.389596  y = -0.537272  z = -3.661722 angstrom
           Maximum rank =  0   Radius =  0.325 angstrom
                   Q00  =   0.073020

H          x =  0.713376  y = -1.131322  z = -3.468657 angstrom
           Maximum rank =  0   Radius =  0.325 angstrom
                   Q00  =   0.069324

Total multipoles referred to origin at
           x =   0.000000,  y =    0.000000,  z =    0.000000 angstrom
                   Q00  =  -0.000000

Finished at 21:5:21 on 27 Apr 2020

  DMA results are available in the Python driver through the
	  variable('DMA DISTRIBUTED MULTIPOLES')
  and
	  variable('DMA TOTAL MULTIPOLES')
  commands.

    Psi4 stopped on: Monday, 27 April 2020 09:05PM
    Psi4 wall time for execution: 0:03:05.49

*** Psi4 exiting successfully. Buy a developer a beer!
