                               Psi4 1.3.2 release

  ==> Input File <==

--------------------------------------------------------------------------
import numpy as np
set {scf_type pk
basis cc-pvdz
d_convergence 10
gdma_switch   0
gdma_limit    0
gdma_origin   [ 0.0,  0.0,  0.0 ]
}
molecule test {
    units Angstrom
    0 1
    --
    0 1
    C               -2.417998011722286    -1.747843529556214    -0.716463104841431
    C               -0.768998011722286    -0.282843529556214     0.487536895158569
    C               -1.560998011722286    -0.512843529556214    -0.631463104841431
    C                0.026001988277714     0.852156470443786     0.572536895158569
    C                0.031001988277714     1.773156470443786    -0.468463104841431
    C               -1.547998011722286     0.416156470443786    -1.671463104841431
    C               -0.756998011722286     1.557156470443786    -1.592463104841431
    O                0.808001988277714     2.889156470443786    -0.384463104841431
    H               -0.770998011722286    -0.992843529556214     1.304536895158569
    H                0.636001988277714     1.020156470443786     1.449536895158569
    H               -3.244998011722286    -1.547843529556214    -1.400463104841431
    H               -2.853998011722286    -1.934843529556214     0.266536895158569
    H               -2.165998011722286     0.255156470443786    -2.545463104841431
    H                1.293001988277714     2.927156470443787     0.448536895158569
    H               -0.763998011722286     2.289156470443786    -2.386463104841431
    H               -1.883408011722286    -2.651323529556214    -1.045000104841431
    C                2.487001988277714    -1.650843529556214     1.680536895158569
    C                2.891001988277714    -3.023843529556213     2.207536895158569
    H                1.748001988277714    -1.185843529556214     2.334536895158569
    H                3.360001988277714    -1.000843529556214     1.615536895158569
    H                2.065001988277714    -1.746843529556214     0.680536895158569
    H                3.734001988277714    -3.375843529556214     1.610536895158569
    H                2.073301988277714    -3.749413529556214     2.085417895158569
    H                3.215541988277714    -2.967963529556214     3.257085895158569

}
e, wfn = energy('scf', return_wfn=True)
gdma(wfn)
dmavals = variable('DMA DISTRIBUTED MULTIPOLES')
charges = np.array(dmavals)
print(charges)
np.save('SSI-119TYR-174ILE-1-dimer.npy', np.array(charges))--------------------------------------------------------------------------

*** tstart() called on ds3
*** at Mon Apr 27 14:00:36 2020

   => Loading Basis Set <=

    Name: CC-PVDZ
    Role: ORBITAL
    Keyword: BASIS
    atoms 1-7, 17-18  entry C          line   138 file /theoryfs2/ds/metcalf/miniconda2/envs/tf2gpu/share/psi4/basis/cc-pvdz.gbs
    atoms 8           entry O          line   198 file /theoryfs2/ds/metcalf/miniconda2/envs/tf2gpu/share/psi4/basis/cc-pvdz.gbs
    atoms 9-16, 19-24 entry H          line    22 file /theoryfs2/ds/metcalf/miniconda2/envs/tf2gpu/share/psi4/basis/cc-pvdz.gbs

         ---------------------------------------------------------
                                   SCF
               by Justin Turney, Rob Parrish, Andy Simmonett
                          and Daniel G. A. Smith
                              RHF Reference
                        1 Threads,    500 MiB Core
         ---------------------------------------------------------

  ==> Geometry <==

    Molecular point group: c1
    Full point group: C1

    Geometry (in Angstrom), charge = 0, multiplicity = 1:

       Center              X                  Y                   Z               Mass
    ------------   -----------------  -----------------  -----------------  -----------------
         C           -2.417998011722    -1.747843529556    -0.716463104841    12.000000000000
         C           -0.768998011722    -0.282843529556     0.487536895159    12.000000000000
         C           -1.560998011722    -0.512843529556    -0.631463104841    12.000000000000
         C            0.026001988278     0.852156470444     0.572536895159    12.000000000000
         C            0.031001988278     1.773156470444    -0.468463104841    12.000000000000
         C           -1.547998011722     0.416156470444    -1.671463104841    12.000000000000
         C           -0.756998011722     1.557156470444    -1.592463104841    12.000000000000
         O            0.808001988278     2.889156470444    -0.384463104841    15.994914619570
         H           -0.770998011722    -0.992843529556     1.304536895159     1.007825032230
         H            0.636001988278     1.020156470444     1.449536895159     1.007825032230
         H           -3.244998011722    -1.547843529556    -1.400463104841     1.007825032230
         H           -2.853998011722    -1.934843529556     0.266536895159     1.007825032230
         H           -2.165998011722     0.255156470444    -2.545463104841     1.007825032230
         H            1.293001988278     2.927156470444     0.448536895159     1.007825032230
         H           -0.763998011722     2.289156470444    -2.386463104841     1.007825032230
         H           -1.883408011722    -2.651323529556    -1.045000104841     1.007825032230
         C            2.487001988278    -1.650843529556     1.680536895159    12.000000000000
         C            2.891001988278    -3.023843529556     2.207536895159    12.000000000000
         H            1.748001988278    -1.185843529556     2.334536895159     1.007825032230
         H            3.360001988278    -1.000843529556     1.615536895159     1.007825032230
         H            2.065001988278    -1.746843529556     0.680536895159     1.007825032230
         H            3.734001988278    -3.375843529556     1.610536895159     1.007825032230
         H            2.073301988278    -3.749413529556     2.085417895159     1.007825032230
         H            3.215541988278    -2.967963529556     3.257085895159     1.007825032230

  Running in c1 symmetry.

  Rotational constants: A =      0.04455  B =      0.02257  C =      0.01588 [cm^-1]
  Rotational constants: A =   1335.55536  B =    676.64255  C =    475.98613 [MHz]
  Nuclear repulsion =  489.622578305081618

  Charge       = 0
  Multiplicity = 1
  Electrons    = 76
  Nalpha       = 38
  Nbeta        = 38

  ==> Algorithm <==

  SCF Algorithm Type is PK.
  DIIS enabled.
  MOM disabled.
  Fractional occupation disabled.
  Guess Type is SAD.
  Energy threshold   = 1.00e-06
  Density threshold  = 1.00e-10
  Integral threshold = 0.00e+00

  ==> Primary Basis <==

  Basis Set: CC-PVDZ
    Blend: CC-PVDZ
    Number of shells: 102
    Number of basis function: 210
    Number of Cartesian functions: 220
    Spherical Harmonics?: true
    Max angular momentum: 2

  ==> Pre-Iterations <==

   -------------------------------------------------------
    Irrep   Nso     Nmo     Nalpha   Nbeta   Ndocc  Nsocc
   -------------------------------------------------------
     A        210     210       0       0       0       0
   -------------------------------------------------------
    Total     210     210      38      38      38       0
   -------------------------------------------------------

  ==> Integral Setup <==

  Using integral reordering PK algorithm.
  Sizing the integral batches needed.
  Building batch lookup table.
   Calculation information:
      Number of atoms:                  24
      Number of AO shells:             102
      Number of primitives:            290
      Number of atomic orbitals:       220
      Number of basis functions:       210

      Integral cutoff                 1.00e-12
      Number of threads:                 1

	Batch   1 pq = [       0,    9405] index = [             0,44231715] size =     44231715
	Batch   2 pq = [    9405,   13301] index = [      44231715,88464951] size =     44233236
	Batch   3 pq = [   13301,   16290] index = [      88464951,132690195] size =     44225244
	Batch   4 pq = [   16290,   18810] index = [     132690195,176917455] size =     44227260
	Batch   5 pq = [   18810,   21030] index = [     176917455,221140965] size =     44223510
	Batch   6 pq = [   21030,   22155] index = [     221140965,245433090] size =     24292125
  Task number: 23
  Buffer size: 11059200
  Buffer per thread: 2
  We computed 11213391 shell quartets total.
  Whereas there are 13799631 unique shell quartets.

  ==> DiskJK: Disk-Based J/K Matrices <==

    J tasked:                  Yes
    K tasked:                  Yes
    wK tasked:                  No
    Memory [MiB]:              375
    Schwarz Cutoff:          1E-12

    OpenMP threads:              1

  Minimum eigenvalue in the overlap matrix is 3.2003188272E-04.
  Using Symmetric Orthogonalization.

  SCF Guess: Superposition of Atomic Densities via on-the-fly atomic UHF.

  ==> Iterations <==

                        Total Energy        Delta E     RMS |[F,P]|

   @RHF iter SAD:  -422.71298574864920   -4.22713e+02   0.00000e+00
   @RHF iter   1:  -423.60018278352925   -8.87197e-01   2.99007e-03 DIIS
   @RHF iter   2:  -423.81792484630762   -2.17742e-01   1.26596e-03 DIIS
   @RHF iter   3:  -423.85332489854932   -3.54001e-02   2.85217e-04 DIIS
   @RHF iter   4:  -423.85621100387442   -2.88611e-03   1.18644e-04 DIIS
   @RHF iter   5:  -423.85657346289446   -3.62459e-04   2.06713e-05 DIIS
   @RHF iter   6:  -423.85659094276775   -1.74799e-05   6.34352e-06 DIIS
   @RHF iter   7:  -423.85659256355984   -1.62079e-06   2.06883e-06 DIIS
   @RHF iter   8:  -423.85659278612883   -2.22569e-07   7.67079e-07 DIIS
   @RHF iter   9:  -423.85659282230682   -3.61780e-08   3.12666e-07 DIIS
   @RHF iter  10:  -423.85659282927458   -6.96775e-09   1.31062e-07 DIIS
   @RHF iter  11:  -423.85659283140961   -2.13504e-09   5.91266e-08 DIIS
   @RHF iter  12:  -423.85659283182565   -4.16037e-10   2.79295e-08 DIIS
   @RHF iter  13:  -423.85659283189545   -6.98037e-11   8.07725e-09 DIIS
   @RHF iter  14:  -423.85659283190074   -5.28644e-12   2.17047e-09 DIIS
   @RHF iter  15:  -423.85659283189989    8.52651e-13   7.02946e-10 DIIS
   @RHF iter  16:  -423.85659283190301   -3.12639e-12   2.50915e-10 DIIS
   @RHF iter  17:  -423.85659283190063    2.38742e-12   1.13131e-10 DIIS
   @RHF iter  18:  -423.85659283190478   -4.14957e-12   5.82270e-11 DIIS
  Energy and wave function converged.

  ==> Post-Iterations <==

    Orbital Energies [Eh]
    ---------------------

    Doubly Occupied:

       1A    -20.581937     2A    -11.297722     3A    -11.237236
       4A    -11.236732     5A    -11.231497     6A    -11.231286
       7A    -11.228829     8A    -11.227315     9A    -11.220765
      10A    -11.218063    11A     -1.398530    12A     -1.151436
      13A     -1.037008    14A     -1.020909    15A     -1.017610
      16A     -0.925230    17A     -0.844011    18A     -0.838655
      19A     -0.801368    20A     -0.731214    21A     -0.668003
      22A     -0.640444    23A     -0.606682    24A     -0.599753
      25A     -0.599247    26A     -0.586251    27A     -0.585507
      28A     -0.570129    29A     -0.565364    30A     -0.525221
      31A     -0.504212    32A     -0.497197    33A     -0.488318
      34A     -0.485069    35A     -0.483714    36A     -0.466279
      37A     -0.338271    38A     -0.300945

    Virtual:

      39A      0.131013    40A      0.156123    41A      0.170562
      42A      0.181526    43A      0.197870    44A      0.211689
      45A      0.220806    46A      0.241601    47A      0.249476
      48A      0.256600    49A      0.261063    50A      0.279342
      51A      0.285479    52A      0.289207    53A      0.295049
      54A      0.318167    55A      0.370921    56A      0.381257
      57A      0.403212    58A      0.431403    59A      0.457292
      60A      0.486286    61A      0.498320    62A      0.507862
      63A      0.595416    64A      0.596324    65A      0.601229
      66A      0.612126    67A      0.635569    68A      0.651630
      69A      0.663054    70A      0.669501    71A      0.684000
      72A      0.695585    73A      0.700986    74A      0.719149
      75A      0.736088    76A      0.740093    77A      0.765222
      78A      0.773918    79A      0.778956    80A      0.785391
      81A      0.811261    82A      0.818413    83A      0.846005
      84A      0.862822    85A      0.875496    86A      0.881228
      87A      0.887714    88A      0.891436    89A      0.893648
      90A      0.897957    91A      0.901510    92A      0.916139
      93A      0.924255    94A      0.932042    95A      0.935813
      96A      0.943114    97A      0.946901    98A      0.963823
      99A      0.984210   100A      1.015445   101A      1.034897
     102A      1.055628   103A      1.119485   104A      1.127727
     105A      1.136512   106A      1.148331   107A      1.149613
     108A      1.189574   109A      1.201911   110A      1.222103
     111A      1.247807   112A      1.257832   113A      1.270152
     114A      1.288261   115A      1.299742   116A      1.312256
     117A      1.327539   118A      1.360062   119A      1.365036
     120A      1.385896   121A      1.468765   122A      1.474961
     123A      1.494401   124A      1.503933   125A      1.529821
     126A      1.550688   127A      1.589383   128A      1.616539
     129A      1.623337   130A      1.680066   131A      1.686480
     132A      1.693190   133A      1.708836   134A      1.734684
     135A      1.751610   136A      1.783492   137A      1.805423
     138A      1.808111   139A      1.865248   140A      1.872416
     141A      1.876177   142A      1.889624   143A      1.900549
     144A      1.903287   145A      1.913602   146A      1.915179
     147A      1.921790   148A      1.938149   149A      1.943079
     150A      1.947289   151A      1.951009   152A      1.961781
     153A      1.966151   154A      1.975209   155A      1.992184
     156A      2.006707   157A      2.040064   158A      2.051025
     159A      2.064906   160A      2.066181   161A      2.072524
     162A      2.098580   163A      2.122069   164A      2.139231
     165A      2.149269   166A      2.173112   167A      2.211780
     168A      2.230931   169A      2.261410   170A      2.275741
     171A      2.297819   172A      2.309386   173A      2.319730
     174A      2.336368   175A      2.370225   176A      2.423732
     177A      2.445083   178A      2.456150   179A      2.461397
     180A      2.479864   181A      2.499606   182A      2.535411
     183A      2.541018   184A      2.559801   185A      2.574876
     186A      2.602598   187A      2.648018   188A      2.755044
     189A      2.757885   190A      2.772166   191A      2.785109
     192A      2.796547   193A      2.809711   194A      2.844689
     195A      2.852043   196A      2.860342   197A      2.901842
     198A      2.944142   199A      2.959319   200A      2.968492
     201A      3.003924   202A      3.094555   203A      3.113758
     204A      3.251652   205A      3.285087   206A      3.347348
     207A      3.578063   208A      3.677029   209A      3.978469
     210A      4.192055

    Final Occupation by Irrep:
              A
    DOCC [    38 ]

  @RHF Final Energy:  -423.85659283190478

   => Energetics <=

    Nuclear Repulsion Energy =            489.6225783050816176
    One-Electron Energy =               -1544.9824245225399864
    Two-Electron Energy =                 631.5032533855536485
    Total Energy =                       -423.8565928319047771

Computation Completed

Properties will be evaluated at   0.000000,   0.000000,   0.000000 [a0]

Properties computed using the SCF density matrix

  Nuclear Dipole Moment: [e a0]
     X:     6.0426      Y:   -13.7313      Z:     7.1936

  Electronic Dipole Moment: [e a0]
     X:    -5.9725      Y:    13.4360      Z:    -6.7441

  Dipole Moment: [e a0]
     X:     0.0700      Y:    -0.2953      Z:     0.4495     Total:     0.5424

  Dipole Moment: [D]
     X:     0.1780      Y:    -0.7505      Z:     1.1426     Total:     1.3786

*** tstop() called on ds3 at Mon Apr 27 14:02:35 2020
Module time:
	user time   =      83.70 seconds =       1.40 minutes
	system time =      40.02 seconds =       0.67 minutes
	total time  =        119 seconds =       1.98 minutes
Total time:
	user time   =      83.70 seconds =       1.40 minutes
	system time =      40.02 seconds =       0.67 minutes
	total time  =        119 seconds =       1.98 minutes
                                     G D M A

                                 by Anthony Stone

                           version 2.2.06, 22 June 2011

               Distributed Multipoles from Gaussian wavefunctions

Starting at 14:2:35 on 27 Apr 2020

Using SCF density matrix from file ./SSI/SSI-119TYR-174ILE-1-dimer.test.8500.fchk

                         Distributed Multipole Analysis

Standard DMA

Positions and radii in angstrom
Multipole moments in atomic units, ea_0^k for rank k

C          x = -2.417998  y = -1.747844  z = -0.716463 angstrom
           Maximum rank =  0   Radius =  0.650 angstrom
                   Q00  =  -0.191237

C          x = -0.768998  y = -0.282844  z =  0.487537 angstrom
           Maximum rank =  0   Radius =  0.650 angstrom
                   Q00  =   0.024330

C          x = -1.560998  y = -0.512844  z = -0.631463 angstrom
           Maximum rank =  0   Radius =  0.650 angstrom
                   Q00  =  -0.136662

C          x =  0.026002  y =  0.852156  z =  0.572537 angstrom
           Maximum rank =  0   Radius =  0.650 angstrom
                   Q00  =  -0.181054

C          x =  0.031002  y =  1.773156  z = -0.468463 angstrom
           Maximum rank =  0   Radius =  0.650 angstrom
                   Q00  =   0.312228

C          x = -1.547998  y =  0.416156  z = -1.671463 angstrom
           Maximum rank =  0   Radius =  0.650 angstrom
                   Q00  =  -0.013978

C          x = -0.756998  y =  1.557156  z = -1.592463 angstrom
           Maximum rank =  0   Radius =  0.650 angstrom
                   Q00  =  -0.113884

O          x =  0.808002  y =  2.889156  z = -0.384463 angstrom
           Maximum rank =  0   Radius =  0.650 angstrom
                   Q00  =  -0.678726

H          x = -0.770998  y = -0.992844  z =  1.304537 angstrom
           Maximum rank =  0   Radius =  0.325 angstrom
                   Q00  =   0.066788

H          x =  0.636002  y =  1.020156  z =  1.449537 angstrom
           Maximum rank =  0   Radius =  0.325 angstrom
                   Q00  =   0.071271

H          x = -3.244998  y = -1.547844  z = -1.400463 angstrom
           Maximum rank =  0   Radius =  0.325 angstrom
                   Q00  =   0.094805

H          x = -2.853998  y = -1.934844  z =  0.266537 angstrom
           Maximum rank =  0   Radius =  0.325 angstrom
                   Q00  =   0.094093

H          x = -2.165998  y =  0.255156  z = -2.545463 angstrom
           Maximum rank =  0   Radius =  0.325 angstrom
                   Q00  =   0.063856

H          x =  1.293002  y =  2.927156  z =  0.448537 angstrom
           Maximum rank =  0   Radius =  0.325 angstrom
                   Q00  =   0.406711

H          x = -0.763998  y =  2.289156  z = -2.386463 angstrom
           Maximum rank =  0   Radius =  0.325 angstrom
                   Q00  =   0.080840

H          x = -1.883408  y = -2.651324  z = -1.045000 angstrom
           Maximum rank =  0   Radius =  0.325 angstrom
                   Q00  =   0.099814

C          x =  2.487002  y = -1.650844  z =  1.680537 angstrom
           Maximum rank =  0   Radius =  0.650 angstrom
                   Q00  =  -0.235126

C          x =  2.891002  y = -3.023844  z =  2.207537 angstrom
           Maximum rank =  0   Radius =  0.650 angstrom
                   Q00  =  -0.234871

H          x =  1.748002  y = -1.185844  z =  2.334537 angstrom
           Maximum rank =  0   Radius =  0.325 angstrom
                   Q00  =   0.069206

H          x =  3.360002  y = -1.000844  z =  1.615537 angstrom
           Maximum rank =  0   Radius =  0.325 angstrom
                   Q00  =   0.077073

H          x =  2.065002  y = -1.746844  z =  0.680537 angstrom
           Maximum rank =  0   Radius =  0.325 angstrom
                   Q00  =   0.088507

H          x =  3.734002  y = -3.375844  z =  1.610537 angstrom
           Maximum rank =  0   Radius =  0.325 angstrom
                   Q00  =   0.078180

H          x =  2.073302  y = -3.749414  z =  2.085418 angstrom
           Maximum rank =  0   Radius =  0.325 angstrom
                   Q00  =   0.079008

H          x =  3.215542  y = -2.967964  z =  3.257086 angstrom
           Maximum rank =  0   Radius =  0.325 angstrom
                   Q00  =   0.078827

Total multipoles referred to origin at
           x =   0.000000,  y =    0.000000,  z =    0.000000 angstrom
                   Q00  =  -0.000000

Finished at 14:2:35 on 27 Apr 2020

  DMA results are available in the Python driver through the
	  variable('DMA DISTRIBUTED MULTIPOLES')
  and
	  variable('DMA TOTAL MULTIPOLES')
  commands.

    Psi4 stopped on: Monday, 27 April 2020 02:02PM
    Psi4 wall time for execution: 0:01:59.18

*** Psi4 exiting successfully. Buy a developer a beer!
