                               Psi4 1.3.2 release

  ==> Input File <==

--------------------------------------------------------------------------
import numpy as np
set {scf_type pk
basis cc-pvdz
d_convergence 10
gdma_switch   0
gdma_limit    0
gdma_origin   [ 0.0,  0.0,  0.0 ]
}
molecule test {
    units Angstrom
    0 1
    --
    0 1
    C                2.919548837839771    -1.678175108048801    -3.513123372003631
    C                1.478548837839771     1.397824891951199    -1.740123372003630
    C                1.581548837839771     0.268824891951199    -2.556123372003630
    C                2.571548837839771     1.811824891951199    -0.981123372003630
    C                2.781548837839771    -0.449175108048801    -2.636123372003631
    C                3.765548837839771     1.098824891951199    -1.042123372003630
    C                3.864548837839771    -0.027175108048801    -1.862123372003630
    H                0.542548837839771     1.932824891951199    -1.680123372003630
    H                0.702548837839771    -0.046175108048801    -3.096123372003631
    H                2.492548837839771     2.685824891951199    -0.347123372003630
    H                4.613548837839771     1.412824891951199    -0.448123372003630
    H                2.847548837839771    -2.565175108048801    -2.884123372003631
    H                3.899548837839771    -1.660175108048801    -3.961123372003630
    H                4.791548837839771    -0.575175108048801    -1.886123372003630
    H                2.185782837839771    -1.754624108048801    -4.329054372003629
    C               -3.143451162160229     0.931824891951199     3.890876627996369
    C               -1.105451162160229    -0.137175108048801     0.930876627996369
    C               -2.285451162160229    -0.236175108048801     1.714876627996370
    C               -2.150451162160229     0.684824891951199     2.806876627996369
    C               -0.941451162160229     1.286824891951199     2.651876627996369
    C               -0.902451162160229    -0.903175108048801    -0.208123372003630
    C               -1.899451162160229    -1.790175108048801    -0.578123372003630
    C               -3.078451162160230    -1.912175108048801     0.175876627996370
    C               -3.283451162160229    -1.140175108048801     1.320876627996370
    N               -0.309451162160229     0.799824891951199     1.532876627996370
    H                0.017548837839771    -0.833175108048801    -0.766123372003630
    H               -1.762451162160229    -2.414175108048801    -1.453123372003631
    H                0.618548837839771     1.078824891951199     1.230876627996370
    H               -3.833451162160229    -2.626175108048801    -0.132123372003630
    H               -0.533451162160229     2.037824891951199     3.322876627996370
    H               -4.178451162160229    -1.267175108048801     1.915876627996370
    H               -2.608451162160229     1.227824891951199     4.793876627996370
    H               -3.656451162160229    -0.005175108048801     4.114876627996369
    H               -3.896671162160229     1.697957891951199     3.654866627996370

}
e, wfn = energy('scf', return_wfn=True)
gdma(wfn)
dmavals = variable('DMA DISTRIBUTED MULTIPOLES')
charges = np.array(dmavals)
print(charges)
np.save('SSI-064PHE-125TRP-1-dimer.npy', np.array(charges))--------------------------------------------------------------------------

*** tstart() called on ds3
*** at Tue Apr 28 08:00:30 2020

   => Loading Basis Set <=

    Name: CC-PVDZ
    Role: ORBITAL
    Keyword: BASIS
    atoms 1-7, 16-24  entry C          line   138 file /theoryfs2/ds/metcalf/miniconda2/envs/tf2gpu/share/psi4/basis/cc-pvdz.gbs
    atoms 8-15, 26-34 entry H          line    22 file /theoryfs2/ds/metcalf/miniconda2/envs/tf2gpu/share/psi4/basis/cc-pvdz.gbs
    atoms 25          entry N          line   168 file /theoryfs2/ds/metcalf/miniconda2/envs/tf2gpu/share/psi4/basis/cc-pvdz.gbs

         ---------------------------------------------------------
                                   SCF
               by Justin Turney, Rob Parrish, Andy Simmonett
                          and Daniel G. A. Smith
                              RHF Reference
                        1 Threads,    500 MiB Core
         ---------------------------------------------------------

  ==> Geometry <==

    Molecular point group: c1
    Full point group: C1

    Geometry (in Angstrom), charge = 0, multiplicity = 1:

       Center              X                  Y                   Z               Mass
    ------------   -----------------  -----------------  -----------------  -----------------
         C            2.919548837840    -1.678175108049    -3.513123372004    12.000000000000
         C            1.478548837840     1.397824891951    -1.740123372004    12.000000000000
         C            1.581548837840     0.268824891951    -2.556123372004    12.000000000000
         C            2.571548837840     1.811824891951    -0.981123372004    12.000000000000
         C            2.781548837840    -0.449175108049    -2.636123372004    12.000000000000
         C            3.765548837840     1.098824891951    -1.042123372004    12.000000000000
         C            3.864548837840    -0.027175108049    -1.862123372004    12.000000000000
         H            0.542548837840     1.932824891951    -1.680123372004     1.007825032230
         H            0.702548837840    -0.046175108049    -3.096123372004     1.007825032230
         H            2.492548837840     2.685824891951    -0.347123372004     1.007825032230
         H            4.613548837840     1.412824891951    -0.448123372004     1.007825032230
         H            2.847548837840    -2.565175108049    -2.884123372004     1.007825032230
         H            3.899548837840    -1.660175108049    -3.961123372004     1.007825032230
         H            4.791548837840    -0.575175108049    -1.886123372004     1.007825032230
         H            2.185782837840    -1.754624108049    -4.329054372004     1.007825032230
         C           -3.143451162160     0.931824891951     3.890876627996    12.000000000000
         C           -1.105451162160    -0.137175108049     0.930876627996    12.000000000000
         C           -2.285451162160    -0.236175108049     1.714876627996    12.000000000000
         C           -2.150451162160     0.684824891951     2.806876627996    12.000000000000
         C           -0.941451162160     1.286824891951     2.651876627996    12.000000000000
         C           -0.902451162160    -0.903175108049    -0.208123372004    12.000000000000
         C           -1.899451162160    -1.790175108049    -0.578123372004    12.000000000000
         C           -3.078451162160    -1.912175108049     0.175876627996    12.000000000000
         C           -3.283451162160    -1.140175108049     1.320876627996    12.000000000000
         N           -0.309451162160     0.799824891951     1.532876627996    14.003074004430
         H            0.017548837840    -0.833175108049    -0.766123372004     1.007825032230
         H           -1.762451162160    -2.414175108049    -1.453123372004     1.007825032230
         H            0.618548837840     1.078824891951     1.230876627996     1.007825032230
         H           -3.833451162160    -2.626175108049    -0.132123372004     1.007825032230
         H           -0.533451162160     2.037824891951     3.322876627996     1.007825032230
         H           -4.178451162160    -1.267175108049     1.915876627996     1.007825032230
         H           -2.608451162160     1.227824891951     4.793876627996     1.007825032230
         H           -3.656451162160    -0.005175108049     4.114876627996     1.007825032230
         H           -3.896671162160     1.697957891951     3.654866627996     1.007825032230

  Running in c1 symmetry.

  Rotational constants: A =      0.02857  B =      0.00770  C =      0.00634 [cm^-1]
  Rotational constants: A =    856.61529  B =    230.69629  C =    190.04818 [MHz]
  Nuclear repulsion = 1065.218292613659742

  Charge       = 0
  Multiplicity = 1
  Electrons    = 120
  Nalpha       = 60
  Nbeta        = 60

  ==> Algorithm <==

  SCF Algorithm Type is PK.
  DIIS enabled.
  MOM disabled.
  Fractional occupation disabled.
  Guess Type is SAD.
  Energy threshold   = 1.00e-06
  Density threshold  = 1.00e-10
  Integral threshold = 0.00e+00

  ==> Primary Basis <==

  Basis Set: CC-PVDZ
    Blend: CC-PVDZ
    Number of shells: 153
    Number of basis function: 323
    Number of Cartesian functions: 340
    Spherical Harmonics?: true
    Max angular momentum: 2

  ==> Pre-Iterations <==

   -------------------------------------------------------
    Irrep   Nso     Nmo     Nalpha   Nbeta   Ndocc  Nsocc
   -------------------------------------------------------
     A        323     323       0       0       0       0
   -------------------------------------------------------
    Total     323     323      60      60      60       0
   -------------------------------------------------------

  ==> Integral Setup <==

  Using integral reordering PK algorithm.
  Sizing the integral batches needed.
  Building batch lookup table.
   Calculation information:
      Number of atoms:                  34
      Number of AO shells:             153
      Number of primitives:            459
      Number of atomic orbitals:       340
      Number of basis functions:       323

      Integral cutoff                 1.00e-12
      Number of threads:                 1

	Batch   1 pq = [       0,    9405] index = [             0,44231715] size =     44231715
	Batch   2 pq = [    9405,   13301] index = [      44231715,88464951] size =     44233236
	Batch   3 pq = [   13301,   16290] index = [      88464951,132690195] size =     44225244
	Batch   4 pq = [   16290,   18810] index = [     132690195,176917455] size =     44227260
	Batch   5 pq = [   18810,   21030] index = [     176917455,221140965] size =     44223510
	Batch   6 pq = [   21030,   23037] index = [     221140965,265363203] size =     44222238
	Batch   7 pq = [   23037,   24883] index = [     265363203,309594286] size =     44231083
	Batch   8 pq = [   24883,   26601] index = [     309594286,353819901] size =     44225615
	Batch   9 pq = [   26601,   28214] index = [     353819901,398029005] size =     44209104
	Batch  10 pq = [   28214,   29740] index = [     398029005,442248670] size =     44219665
	Batch  11 pq = [   29740,   31191] index = [     442248670,486454836] size =     44206166
	Batch  12 pq = [   31191,   32578] index = [     486454836,530679331] size =     44224495
	Batch  13 pq = [   32578,   33908] index = [     530679331,574893186] size =     44213855
	Batch  14 pq = [   33908,   35188] index = [     574893186,619115266] size =     44222080
	Batch  15 pq = [   35188,   36423] index = [     619115266,663335676] size =     44220410
	Batch  16 pq = [   36423,   37617] index = [     663335676,707538153] size =     44202477
	Batch  17 pq = [   37617,   38775] index = [     707538153,751769700] size =     44231547
	Batch  18 pq = [   38775,   39899] index = [     751769700,795985050] size =     44215350
	Batch  19 pq = [   39899,   40992] index = [     795985050,840192528] size =     44207478
	Batch  20 pq = [   40992,   42057] index = [     840192528,884416653] size =     44224125
	Batch  21 pq = [   42057,   43095] index = [     884416653,928611060] size =     44194407
	Batch  22 pq = [   43095,   44109] index = [     928611060,972823995] size =     44212935
	Batch  23 pq = [   44109,   45100] index = [     972823995,1017027550] size =     44203555
	Batch  24 pq = [   45100,   46070] index = [    1017027550,1061245485] size =     44217935
	Batch  25 pq = [   46070,   47020] index = [    1061245485,1105463710] size =     44218225
	Batch  26 pq = [   47020,   47951] index = [    1105463710,1149673176] size =     44209466
	Batch  27 pq = [   47951,   48864] index = [    1149673176,1193869680] size =     44196504
	Batch  28 pq = [   48864,   49761] index = [    1193869680,1238103441] size =     44233761
	Batch  29 pq = [   49761,   50642] index = [    1238103441,1282331403] size =     44227962
	Batch  30 pq = [   50642,   51508] index = [    1282331403,1326562786] size =     44231383
	Batch  31 pq = [   51508,   52326] index = [    1326562786,1369031301] size =     42468515
  Task number: 124
  Buffer size: 11059200
  Buffer per thread: 2
  We computed 68928722 shell quartets total.
  Whereas there are 69401871 unique shell quartets.

  ==> DiskJK: Disk-Based J/K Matrices <==

    J tasked:                  Yes
    K tasked:                  Yes
    wK tasked:                  No
    Memory [MiB]:              375
    Schwarz Cutoff:          1E-12

    OpenMP threads:              1

  Minimum eigenvalue in the overlap matrix is 2.3375428681E-04.
  Using Symmetric Orthogonalization.

  SCF Guess: Superposition of Atomic Densities via on-the-fly atomic UHF.

  ==> Iterations <==

                        Total Energy        Delta E     RMS |[F,P]|

   @RHF iter SAD:  -669.52452381061778   -6.69525e+02   0.00000e+00
   @RHF iter   1:  -669.95546048992856   -4.30937e-01   2.13523e-03 DIIS
   @RHF iter   2:  -670.24376059761482   -2.88300e-01   9.15435e-04 DIIS
   @RHF iter   3:  -670.29030048328912   -4.65399e-02   2.51444e-04 DIIS
   @RHF iter   4:  -670.29480870206658   -4.50822e-03   1.11596e-04 DIIS
   @RHF iter   5:  -670.29553107189793   -7.22370e-04   1.64780e-05 DIIS
   @RHF iter   6:  -670.29556142590241   -3.03540e-05   7.34759e-06 DIIS
   @RHF iter   7:  -670.29556760186847   -6.17597e-06   2.78879e-06 DIIS
   @RHF iter   8:  -670.29556909248515   -1.49062e-06   1.17062e-06 DIIS
   @RHF iter   9:  -670.29556940162206   -3.09137e-07   5.05838e-07 DIIS
   @RHF iter  10:  -670.29556946491755   -6.32955e-08   2.19837e-07 DIIS
   @RHF iter  11:  -670.29556948060463   -1.56871e-08   9.55684e-08 DIIS
   @RHF iter  12:  -670.29556948318384   -2.57921e-09   3.71586e-08 DIIS
   @RHF iter  13:  -670.29556948346760   -2.83762e-10   1.11528e-08 DIIS
   @RHF iter  14:  -670.29556948349523   -2.76259e-11   4.20342e-09 DIIS
   @RHF iter  15:  -670.29556948349364    1.59162e-12   1.61562e-09 DIIS
   @RHF iter  16:  -670.29556948350944   -1.58025e-11   8.02361e-10 DIIS
   @RHF iter  17:  -670.29556948349716    1.22782e-11   3.84872e-10 DIIS
   @RHF iter  18:  -670.29556948350137   -4.20641e-12   1.55025e-10 DIIS
   @RHF iter  19:  -670.29556948350375   -2.38742e-12   6.19394e-11 DIIS
  Energy and wave function converged.

  ==> Post-Iterations <==

    Orbital Energies [Eh]
    ---------------------

    Doubly Occupied:

       1A    -15.595120     2A    -11.259161     3A    -11.257608
       4A    -11.252782     5A    -11.246180     6A    -11.244564
       7A    -11.241523     8A    -11.239511     9A    -11.239140
      10A    -11.235285    11A    -11.226861    12A    -11.224481
      13A    -11.222906    14A    -11.221381    15A    -11.217789
      16A    -11.215787    17A    -11.212051    18A     -1.290042
      19A     -1.159487    20A     -1.122080    21A     -1.069681
      22A     -1.051164    23A     -1.019372    24A     -0.991584
      25A     -0.982341    26A     -0.939814    27A     -0.927360
      28A     -0.834159    29A     -0.832253    30A     -0.804845
      31A     -0.798350    32A     -0.747586    33A     -0.714307
      34A     -0.699331    35A     -0.657764    36A     -0.639188
      37A     -0.637899    38A     -0.636308    39A     -0.598652
      40A     -0.590307    41A     -0.586928    42A     -0.585875
      43A     -0.582632    44A     -0.571557    45A     -0.562833
      46A     -0.548479    47A     -0.542831    48A     -0.535126
      49A     -0.521667    50A     -0.497078    51A     -0.493276
      52A     -0.489410    53A     -0.488134    54A     -0.465378
      55A     -0.455863    56A     -0.368217    57A     -0.339107
      58A     -0.331527    59A     -0.289839    60A     -0.270147

    Virtual:

      61A      0.124486    62A      0.125920    63A      0.132708
      64A      0.170183    65A      0.174773    66A      0.185657
      67A      0.192554    68A      0.207683    69A      0.210895
      70A      0.219392    71A      0.226534    72A      0.232872
      73A      0.246677    74A      0.247478    75A      0.259548
      76A      0.261365    77A      0.269740    78A      0.277188
      79A      0.287502    80A      0.293146    81A      0.307037
      82A      0.316424    83A      0.352606    84A      0.367314
      85A      0.378633    86A      0.389096    87A      0.413176
      88A      0.428522    89A      0.444723    90A      0.448253
      91A      0.452180    92A      0.468865    93A      0.477695
      94A      0.480257    95A      0.489707    96A      0.510564
      97A      0.518946    98A      0.550736    99A      0.594675
     100A      0.600868   101A      0.617165   102A      0.628108
     103A      0.640938   104A      0.644857   105A      0.660772
     106A      0.668951   107A      0.688188   108A      0.691109
     109A      0.697803   110A      0.700548   111A      0.709974
     112A      0.717572   113A      0.720211   114A      0.729097
     115A      0.733638   116A      0.739235   117A      0.743056
     118A      0.743605   119A      0.750524   120A      0.751297
     121A      0.756071   122A      0.764559   123A      0.768832
     124A      0.780877   125A      0.784085   126A      0.792806
     127A      0.798214   128A      0.812146   129A      0.827763
     130A      0.832250   131A      0.842050   132A      0.852433
     133A      0.857554   134A      0.865686   135A      0.873629
     136A      0.879359   137A      0.881435   138A      0.884239
     139A      0.890843   140A      0.893324   141A      0.902563
     142A      0.917918   143A      0.920503   144A      0.925727
     145A      0.934328   146A      0.940577   147A      0.952799
     148A      0.956263   149A      0.975645   150A      0.979584
     151A      0.986754   152A      0.992903   153A      1.009638
     154A      1.027954   155A      1.046962   156A      1.059047
     157A      1.081685   158A      1.089444   159A      1.095986
     160A      1.120759   161A      1.132551   162A      1.138899
     163A      1.144405   164A      1.148276   165A      1.152956
     166A      1.157431   167A      1.175058   168A      1.186563
     169A      1.200869   170A      1.216875   171A      1.222648
     172A      1.229366   173A      1.234849   174A      1.238844
     175A      1.244433   176A      1.250241   177A      1.256415
     178A      1.274198   179A      1.279451   180A      1.284171
     181A      1.295176   182A      1.302201   183A      1.314406
     184A      1.318567   185A      1.330457   186A      1.335349
     187A      1.347068   188A      1.369469   189A      1.383646
     190A      1.411189   191A      1.427745   192A      1.453818
     193A      1.498751   194A      1.513465   195A      1.534488
     196A      1.558113   197A      1.566956   198A      1.580474
     199A      1.585963   200A      1.611272   201A      1.635969
     202A      1.648221   203A      1.651990   204A      1.664525
     205A      1.692680   206A      1.694235   207A      1.708234
     208A      1.730411   209A      1.739237   210A      1.745393
     211A      1.756250   212A      1.766432   213A      1.784344
     214A      1.788456   215A      1.794015   216A      1.806322
     217A      1.816270   218A      1.825170   219A      1.840214
     220A      1.843633   221A      1.877839   222A      1.887158
     223A      1.889536   224A      1.902365   225A      1.904606
     226A      1.909201   227A      1.912621   228A      1.915611
     229A      1.922977   230A      1.930229   231A      1.933184
     232A      1.943287   233A      1.946219   234A      1.948870
     235A      1.955573   236A      1.960025   237A      1.971132
     238A      1.984513   239A      1.986845   240A      2.012344
     241A      2.015340   242A      2.025909   243A      2.032749
     244A      2.049906   245A      2.055222   246A      2.067646
     247A      2.077697   248A      2.089512   249A      2.093523
     250A      2.108380   251A      2.112697   252A      2.123762
     253A      2.132901   254A      2.135939   255A      2.147664
     256A      2.155589   257A      2.159043   258A      2.163149
     259A      2.173726   260A      2.176708   261A      2.178153
     262A      2.192659   263A      2.233070   264A      2.245556
     265A      2.266674   266A      2.271347   267A      2.278952
     268A      2.291943   269A      2.297745   270A      2.315858
     271A      2.317929   272A      2.322118   273A      2.338487
     274A      2.342679   275A      2.369314   276A      2.407484
     277A      2.414603   278A      2.451847   279A      2.453090
     280A      2.470083   281A      2.477254   282A      2.480744
     283A      2.531629   284A      2.560852   285A      2.601528
     286A      2.618698   287A      2.627409   288A      2.649042
     289A      2.674455   290A      2.693877   291A      2.714740
     292A      2.724554   293A      2.740305   294A      2.766860
     295A      2.770091   296A      2.773045   297A      2.779336
     298A      2.796852   299A      2.801559   300A      2.815507
     301A      2.835452   302A      2.842977   303A      2.866223
     304A      2.867111   305A      2.888759   306A      2.922405
     307A      2.972171   308A      2.984514   309A      3.010193
     310A      3.019880   311A      3.041525   312A      3.056045
     313A      3.084380   314A      3.123285   315A      3.154337
     316A      3.188132   317A      3.208990   318A      3.285701
     319A      3.315371   320A      3.386870   321A      3.754274
     322A      3.944201   323A      3.954280

    Final Occupation by Irrep:
              A
    DOCC [    60 ]

  @RHF Final Energy:  -670.29556948350375

   => Energetics <=

    Nuclear Repulsion Energy =           1065.2182926136597416
    One-Electron Energy =               -3021.7839171072614590
    Two-Electron Energy =                1286.2700550100978489
    Total Energy =                       -670.2955694835038685

Computation Completed

Properties will be evaluated at   0.000000,   0.000000,   0.000000 [a0]

Properties computed using the SCF density matrix

  Nuclear Dipole Moment: [e a0]
     X:     2.1030      Y:    -1.5710      Z:    -1.8326

  Electronic Dipole Moment: [e a0]
     X:    -1.2533      Y:     1.8682      Z:     1.7611

  Dipole Moment: [e a0]
     X:     0.8498      Y:     0.2972      Z:    -0.0715     Total:     0.9031

  Dipole Moment: [D]
     X:     2.1599      Y:     0.7554      Z:    -0.1816     Total:     2.2953

*** tstop() called on ds3 at Tue Apr 28 08:56:07 2020
Module time:
	user time   =     646.67 seconds =      10.78 minutes
	system time =     249.11 seconds =       4.15 minutes
	total time  =       3337 seconds =      55.62 minutes
Total time:
	user time   =     646.67 seconds =      10.78 minutes
	system time =     249.11 seconds =       4.15 minutes
	total time  =       3337 seconds =      55.62 minutes
                                     G D M A

                                 by Anthony Stone

                           version 2.2.06, 22 June 2011

               Distributed Multipoles from Gaussian wavefunctions

Starting at 8:56:7 on 28 Apr 2020

Using SCF density matrix from file ./SSI/SSI-064PHE-125TRP-1-dimer.test.8519.fchk

                         Distributed Multipole Analysis

Standard DMA

Positions and radii in angstrom
Multipole moments in atomic units, ea_0^k for rank k

C          x =  2.919549  y = -1.678175  z = -3.513123 angstrom
           Maximum rank =  0   Radius =  0.650 angstrom
                   Q00  =  -0.211809

C          x =  1.478549  y =  1.397825  z = -1.740123 angstrom
           Maximum rank =  0   Radius =  0.650 angstrom
                   Q00  =  -0.082447

C          x =  1.581549  y =  0.268825  z = -2.556123 angstrom
           Maximum rank =  0   Radius =  0.650 angstrom
                   Q00  =  -0.065909

C          x =  2.571549  y =  1.811825  z = -0.981123 angstrom
           Maximum rank =  0   Radius =  0.650 angstrom
                   Q00  =  -0.101131

C          x =  2.781549  y = -0.449175  z = -2.636123 angstrom
           Maximum rank =  0   Radius =  0.650 angstrom
                   Q00  =  -0.090477

C          x =  3.765549  y =  1.098825  z = -1.042123 angstrom
           Maximum rank =  0   Radius =  0.650 angstrom
                   Q00  =  -0.075559

C          x =  3.864549  y = -0.027175  z = -1.862123 angstrom
           Maximum rank =  0   Radius =  0.650 angstrom
                   Q00  =  -0.013965

H          x =  0.542549  y =  1.932825  z = -1.680123 angstrom
           Maximum rank =  0   Radius =  0.325 angstrom
                   Q00  =   0.074068

H          x =  0.702549  y = -0.046175  z = -3.096123 angstrom
           Maximum rank =  0   Radius =  0.325 angstrom
                   Q00  =   0.063558

H          x =  2.492549  y =  2.685825  z = -0.347123 angstrom
           Maximum rank =  0   Radius =  0.325 angstrom
                   Q00  =   0.059695

H          x =  4.613549  y =  1.412825  z = -0.448123 angstrom
           Maximum rank =  0   Radius =  0.325 angstrom
                   Q00  =   0.068455

H          x =  2.847549  y = -2.565175  z = -2.884123 angstrom
           Maximum rank =  0   Radius =  0.325 angstrom
                   Q00  =   0.107256

H          x =  3.899549  y = -1.660175  z = -3.961123 angstrom
           Maximum rank =  0   Radius =  0.325 angstrom
                   Q00  =   0.103790

H          x =  4.791549  y = -0.575175  z = -1.886123 angstrom
           Maximum rank =  0   Radius =  0.325 angstrom
                   Q00  =   0.059433

H          x =  2.185783  y = -1.754624  z = -4.329054 angstrom
           Maximum rank =  0   Radius =  0.325 angstrom
                   Q00  =   0.104101

C          x = -3.143451  y =  0.931825  z =  3.890877 angstrom
           Maximum rank =  0   Radius =  0.650 angstrom
                   Q00  =  -0.213922

C          x = -1.105451  y = -0.137175  z =  0.930877 angstrom
           Maximum rank =  0   Radius =  0.650 angstrom
                   Q00  =   0.275917

C          x = -2.285451  y = -0.236175  z =  1.714877 angstrom
           Maximum rank =  0   Radius =  0.650 angstrom
                   Q00  =  -0.053487

C          x = -2.150451  y =  0.684825  z =  2.806877 angstrom
           Maximum rank =  0   Radius =  0.650 angstrom
                   Q00  =  -0.121807

C          x = -0.941451  y =  1.286825  z =  2.651877 angstrom
           Maximum rank =  0   Radius =  0.650 angstrom
                   Q00  =   0.075843

C          x = -0.902451  y = -0.903175  z = -0.208123 angstrom
           Maximum rank =  0   Radius =  0.650 angstrom
                   Q00  =  -0.127620

C          x = -1.899451  y = -1.790175  z = -0.578123 angstrom
           Maximum rank =  0   Radius =  0.650 angstrom
                   Q00  =  -0.032774

C          x = -3.078451  y = -1.912175  z =  0.175877 angstrom
           Maximum rank =  0   Radius =  0.650 angstrom
                   Q00  =  -0.106250

C          x = -3.283451  y = -1.140175  z =  1.320877 angstrom
           Maximum rank =  0   Radius =  0.650 angstrom
                   Q00  =  -0.101708

N          x = -0.309451  y =  0.799825  z =  1.532877 angstrom
           Maximum rank =  0   Radius =  0.650 angstrom
                   Q00  =  -0.498789

H          x =  0.017549  y = -0.833175  z = -0.766123 angstrom
           Maximum rank =  0   Radius =  0.325 angstrom
                   Q00  =   0.094331

H          x = -1.762451  y = -2.414175  z = -1.453123 angstrom
           Maximum rank =  0   Radius =  0.325 angstrom
                   Q00  =   0.058037

H          x =  0.618549  y =  1.078825  z =  1.230877 angstrom
           Maximum rank =  0   Radius =  0.325 angstrom
                   Q00  =   0.226638

H          x = -3.833451  y = -2.626175  z = -0.132123 angstrom
           Maximum rank =  0   Radius =  0.325 angstrom
                   Q00  =   0.058241

H          x = -0.533451  y =  2.037825  z =  3.322877 angstrom
           Maximum rank =  0   Radius =  0.325 angstrom
                   Q00  =   0.098061

H          x = -4.178451  y = -1.267175  z =  1.915877 angstrom
           Maximum rank =  0   Radius =  0.325 angstrom
                   Q00  =   0.068864

H          x = -2.608451  y =  1.227825  z =  4.793877 angstrom
           Maximum rank =  0   Radius =  0.325 angstrom
                   Q00  =   0.101417

H          x = -3.656451  y = -0.005175  z =  4.114877 angstrom
           Maximum rank =  0   Radius =  0.325 angstrom
                   Q00  =   0.101584

H          x = -3.896671  y =  1.697958  z =  3.654867 angstrom
           Maximum rank =  0   Radius =  0.325 angstrom
                   Q00  =   0.098363

Total multipoles referred to origin at
           x =   0.000000,  y =    0.000000,  z =    0.000000 angstrom
                   Q00  =  -0.000000

Finished at 8:56:8 on 28 Apr 2020

  DMA results are available in the Python driver through the
	  variable('DMA DISTRIBUTED MULTIPOLES')
  and
	  variable('DMA TOTAL MULTIPOLES')
  commands.

    Psi4 stopped on: Tuesday, 28 April 2020 08:56AM
    Psi4 wall time for execution: 0:55:37.67

*** Psi4 exiting successfully. Buy a developer a beer!
