                               Psi4 1.3.2 release

  ==> Input File <==

--------------------------------------------------------------------------
import numpy as np
set {scf_type pk
basis cc-pvdz
d_convergence 10
gdma_switch   0
gdma_limit    0
gdma_origin   [ 0.0,  0.0,  0.0 ]
}
molecule test {
    units Angstrom
    0 1
    --
    0 1
    C                3.493627641971693    -0.392944493547577     2.595447156226169
    C                0.901627641971693     0.271055506452423    -0.115552843773830
    C                1.745627641971693     0.467055506452423     0.980447156226170
    C                0.845627641971693    -0.942944493547577    -0.762552843773830
    C                2.519627641971693    -0.597944493547577     1.458447156226169
    C                1.547627641971693    -2.023944493547578    -0.262552843773831
    C                2.417627641971693    -1.831944493547577     0.841447156226170
    H                0.329627641971693     1.104055506452423    -0.496552843773830
    H                1.791627641971693     1.425055506452423     1.461447156226169
    H                0.211627641971693    -1.062944493547577    -1.630552843773830
    H                1.486627641971693    -2.973944493547577    -0.762552843773830
    H                3.835627641971692     0.643055506452423     2.567447156226169
    H                4.364627641971693    -1.029944493547577     2.446447156226169
    H                3.012627641971692    -2.660944493547577     1.197447156226169
    H                3.076397641971693    -0.598624493547577     3.592247156226170
    C               -2.338372358028308     1.604055506452423     0.221447156226170
    C               -3.929372358028307     1.492055506452423    -1.999552843773831
    S               -2.664372358028308     0.564055506452423    -1.215552843773831
    H               -3.232372358028307     1.698055506452423     0.836447156226169
    H               -1.554372358028307     1.149055506452423     0.825447156226169
    H               -2.013372358028307     2.591055506452423    -0.108552843773830
    H               -4.125372358028308     1.064055506452423    -2.981552843773831
    H               -3.553372358028307     2.503055506452422    -2.148552843773831
    H               -4.878442358028306     1.538765506452423    -1.445402843773831

}
e, wfn = energy('scf', return_wfn=True)
gdma(wfn)
dmavals = variable('DMA DISTRIBUTED MULTIPOLES')
charges = np.array(dmavals)
print(charges)
np.save('SSI-184PHE-238MET-1-dimer.npy', np.array(charges))--------------------------------------------------------------------------

*** tstart() called on ds3
*** at Mon Apr 27 08:46:48 2020

   => Loading Basis Set <=

    Name: CC-PVDZ
    Role: ORBITAL
    Keyword: BASIS
    atoms 1-7, 16-17  entry C          line   138 file /theoryfs2/ds/metcalf/miniconda2/envs/tf2gpu/share/psi4/basis/cc-pvdz.gbs
    atoms 8-15, 19-24 entry H          line    22 file /theoryfs2/ds/metcalf/miniconda2/envs/tf2gpu/share/psi4/basis/cc-pvdz.gbs
    atoms 18          entry S          line   598 file /theoryfs2/ds/metcalf/miniconda2/envs/tf2gpu/share/psi4/basis/cc-pvdz.gbs

         ---------------------------------------------------------
                                   SCF
               by Justin Turney, Rob Parrish, Andy Simmonett
                          and Daniel G. A. Smith
                              RHF Reference
                        1 Threads,    500 MiB Core
         ---------------------------------------------------------

  ==> Geometry <==

    Molecular point group: c1
    Full point group: C1

    Geometry (in Angstrom), charge = 0, multiplicity = 1:

       Center              X                  Y                   Z               Mass
    ------------   -----------------  -----------------  -----------------  -----------------
         C            3.493627641972    -0.392944493548     2.595447156226    12.000000000000
         C            0.901627641972     0.271055506452    -0.115552843774    12.000000000000
         C            1.745627641972     0.467055506452     0.980447156226    12.000000000000
         C            0.845627641972    -0.942944493548    -0.762552843774    12.000000000000
         C            2.519627641972    -0.597944493548     1.458447156226    12.000000000000
         C            1.547627641972    -2.023944493548    -0.262552843774    12.000000000000
         C            2.417627641972    -1.831944493548     0.841447156226    12.000000000000
         H            0.329627641972     1.104055506452    -0.496552843774     1.007825032230
         H            1.791627641972     1.425055506452     1.461447156226     1.007825032230
         H            0.211627641972    -1.062944493548    -1.630552843774     1.007825032230
         H            1.486627641972    -2.973944493548    -0.762552843774     1.007825032230
         H            3.835627641972     0.643055506452     2.567447156226     1.007825032230
         H            4.364627641972    -1.029944493548     2.446447156226     1.007825032230
         H            3.012627641972    -2.660944493548     1.197447156226     1.007825032230
         H            3.076397641972    -0.598624493548     3.592247156226     1.007825032230
         C           -2.338372358028     1.604055506452     0.221447156226    12.000000000000
         C           -3.929372358028     1.492055506452    -1.999552843774    12.000000000000
         S           -2.664372358028     0.564055506452    -1.215552843774    31.972071174400
         H           -3.232372358028     1.698055506452     0.836447156226     1.007825032230
         H           -1.554372358028     1.149055506452     0.825447156226     1.007825032230
         H           -2.013372358028     2.591055506452    -0.108552843774     1.007825032230
         H           -4.125372358028     1.064055506452    -2.981552843774     1.007825032230
         H           -3.553372358028     2.503055506452    -2.148552843774     1.007825032230
         H           -4.878442358028     1.538765506452    -1.445402843774     1.007825032230

  Running in c1 symmetry.

  Rotational constants: A =      0.09008  B =      0.01275  C =      0.01155 [cm^-1]
  Rotational constants: A =   2700.44643  B =    382.14187  C =    346.40960 [MHz]
  Nuclear repulsion =  549.307963981082253

  Charge       = 0
  Multiplicity = 1
  Electrons    = 84
  Nalpha       = 42
  Nbeta        = 42

  ==> Algorithm <==

  SCF Algorithm Type is PK.
  DIIS enabled.
  MOM disabled.
  Fractional occupation disabled.
  Guess Type is SAD.
  Energy threshold   = 1.00e-06
  Density threshold  = 1.00e-10
  Integral threshold = 0.00e+00

  ==> Primary Basis <==

  Basis Set: CC-PVDZ
    Blend: CC-PVDZ
    Number of shells: 104
    Number of basis function: 214
    Number of Cartesian functions: 224
    Spherical Harmonics?: true
    Max angular momentum: 2

  ==> Pre-Iterations <==

   -------------------------------------------------------
    Irrep   Nso     Nmo     Nalpha   Nbeta   Ndocc  Nsocc
   -------------------------------------------------------
     A        214     214       0       0       0       0
   -------------------------------------------------------
    Total     214     214      42      42      42       0
   -------------------------------------------------------

  ==> Integral Setup <==

  Using integral reordering PK algorithm.
  Sizing the integral batches needed.
  Building batch lookup table.
   Calculation information:
      Number of atoms:                  24
      Number of AO shells:             104
      Number of primitives:            318
      Number of atomic orbitals:       224
      Number of basis functions:       214

      Integral cutoff                 1.00e-12
      Number of threads:                 1

	Batch   1 pq = [       0,    9405] index = [             0,44231715] size =     44231715
	Batch   2 pq = [    9405,   13301] index = [      44231715,88464951] size =     44233236
	Batch   3 pq = [   13301,   16290] index = [      88464951,132690195] size =     44225244
	Batch   4 pq = [   16290,   18810] index = [     132690195,176917455] size =     44227260
	Batch   5 pq = [   18810,   21030] index = [     176917455,221140965] size =     44223510
	Batch   6 pq = [   21030,   23005] index = [     221140965,264626515] size =     43485550
  Task number: 24
  Buffer size: 11059200
  Buffer per thread: 2
  We computed 11653406 shell quartets total.
  Whereas there are 14908530 unique shell quartets.

  ==> DiskJK: Disk-Based J/K Matrices <==

    J tasked:                  Yes
    K tasked:                  Yes
    wK tasked:                  No
    Memory [MiB]:              375
    Schwarz Cutoff:          1E-12

    OpenMP threads:              1

  Minimum eigenvalue in the overlap matrix is 3.2460363374E-04.
  Using Symmetric Orthogonalization.

  SCF Guess: Superposition of Atomic Densities via on-the-fly atomic UHF.

  ==> Iterations <==

                        Total Energy        Delta E     RMS |[F,P]|

   @RHF iter SAD:  -745.50339043361373   -7.45503e+02   0.00000e+00
   @RHF iter   1:  -746.30232892451340   -7.98938e-01   2.50662e-03 DIIS
   @RHF iter   2:  -746.48579641975664   -1.83467e-01   9.77925e-04 DIIS
   @RHF iter   3:  -746.51041811444122   -2.46217e-02   2.44465e-04 DIIS
   @RHF iter   4:  -746.51293999542224   -2.52188e-03   4.79481e-05 DIIS
   @RHF iter   5:  -746.51301809376150   -7.80983e-05   1.40286e-05 DIIS
   @RHF iter   6:  -746.51302421213109   -6.11837e-06   4.09137e-06 DIIS
   @RHF iter   7:  -746.51302483403981   -6.21909e-07   1.38807e-06 DIIS
   @RHF iter   8:  -746.51302491742888   -8.33891e-08   4.03146e-07 DIIS
   @RHF iter   9:  -746.51302493394689   -1.65180e-08   1.68612e-07 DIIS
   @RHF iter  10:  -746.51302493758271   -3.63582e-09   7.89191e-08 DIIS
   @RHF iter  11:  -746.51302493852177   -9.39053e-10   3.26442e-08 DIIS
   @RHF iter  12:  -746.51302493868184   -1.60071e-10   1.16110e-08 DIIS
   @RHF iter  13:  -746.51302493869355   -1.17097e-11   4.72466e-09 DIIS
   @RHF iter  14:  -746.51302493869719   -3.63798e-12   1.14830e-09 DIIS
   @RHF iter  15:  -746.51302493869605    1.13687e-12   4.40481e-10 DIIS
   @RHF iter  16:  -746.51302493869514    9.09495e-13   1.89885e-10 DIIS
   @RHF iter  17:  -746.51302493869696   -1.81899e-12   9.12058e-11 DIIS
  Energy and wave function converged.

  ==> Post-Iterations <==

    Orbital Energies [Eh]
    ---------------------

    Doubly Occupied:

       1A    -91.934218     2A    -11.253535     3A    -11.252702
       4A    -11.237672     5A    -11.232780     6A    -11.229452
       7A    -11.228827     8A    -11.228293     9A    -11.227912
      10A    -11.223239    11A     -8.939028    12A     -6.621166
      13A     -6.619543    14A     -6.617271    15A     -1.148916
      16A     -1.070663    17A     -1.042924    18A     -1.004590
      19A     -0.953508    20A     -0.928989    21A     -0.825258
      22A     -0.804479    23A     -0.788964    24A     -0.688129
      25A     -0.630153    26A     -0.626981    27A     -0.606493
      28A     -0.601369    29A     -0.580233    30A     -0.573559
      31A     -0.570321    32A     -0.561372    33A     -0.559376
      34A     -0.533648    35A     -0.501810    36A     -0.485020
      37A     -0.482346    38A     -0.474541    39A     -0.428091
      40A     -0.330951    41A     -0.325281    42A     -0.321562

    Virtual:

      43A      0.134875    44A      0.145432    45A      0.176210
      46A      0.186239    47A      0.194889    48A      0.210603
      49A      0.226781    50A      0.231878    51A      0.240916
      52A      0.245056    53A      0.258047    54A      0.269802
      55A      0.273127    56A      0.281968    57A      0.284791
      58A      0.294909    59A      0.302920    60A      0.317533
      61A      0.369088    62A      0.379449    63A      0.459454
      64A      0.468161    65A      0.480101    66A      0.491179
      67A      0.516995    68A      0.562834    69A      0.575673
      70A      0.587800    71A      0.606716    72A      0.616314
      73A      0.638933    74A      0.643254    75A      0.672985
      76A      0.688253    77A      0.704006    78A      0.712745
      79A      0.714899    80A      0.738450    81A      0.742539
      82A      0.746581    83A      0.754003    84A      0.761471
      85A      0.775713    86A      0.781005    87A      0.784927
      88A      0.800009    89A      0.818393    90A      0.827467
      91A      0.840326    92A      0.855533    93A      0.864893
      94A      0.876106    95A      0.877174    96A      0.880156
      97A      0.887923    98A      0.891432    99A      0.895272
     100A      0.903653   101A      0.907860   102A      0.912023
     103A      0.919988   104A      0.925549   105A      0.939152
     106A      0.950978   107A      0.958063   108A      0.964140
     109A      1.006202   110A      1.010916   111A      1.035407
     112A      1.067820   113A      1.121938   114A      1.140167
     115A      1.158067   116A      1.169460   117A      1.180006
     118A      1.198576   119A      1.229398   120A      1.242233
     121A      1.258650   122A      1.263084   123A      1.289356
     124A      1.301255   125A      1.306466   126A      1.310116
     127A      1.323566   128A      1.331237   129A      1.351081
     130A      1.372569   131A      1.415394   132A      1.423278
     133A      1.477409   134A      1.505182   135A      1.511765
     136A      1.524455   137A      1.552845   138A      1.603909
     139A      1.673517   140A      1.681924   141A      1.694602
     142A      1.706434   143A      1.737149   144A      1.758758
     145A      1.767340   146A      1.791564   147A      1.812871
     148A      1.872647   149A      1.877516   150A      1.885902
     151A      1.891516   152A      1.893979   153A      1.899723
     154A      1.910193   155A      1.916715   156A      1.926300
     157A      1.933812   158A      1.941860   159A      1.954516
     160A      1.965541   161A      1.971374   162A      1.979454
     163A      1.988242   164A      2.000065   165A      2.014119
     166A      2.018984   167A      2.036880   168A      2.046614
     169A      2.060865   170A      2.067197   171A      2.071237
     172A      2.110515   173A      2.149917   174A      2.159404
     175A      2.181762   176A      2.183282   177A      2.195691
     178A      2.230548   179A      2.250026   180A      2.263130
     181A      2.286540   182A      2.301811   183A      2.305320
     184A      2.310268   185A      2.339097   186A      2.407794
     187A      2.442563   188A      2.445776   189A      2.466088
     190A      2.472502   191A      2.484530   192A      2.493583
     193A      2.548213   194A      2.624686   195A      2.730549
     196A      2.742566   197A      2.755213   198A      2.761981
     199A      2.769075   200A      2.774344   201A      2.789585
     202A      2.802046   203A      2.810697   204A      2.831505
     205A      2.849085   206A      2.856362   207A      2.871924
     208A      2.978171   209A      3.016967   210A      3.022964
     211A      3.156735   212A      3.204439   213A      3.305902
     214A      3.965699

    Final Occupation by Irrep:
              A
    DOCC [    42 ]

  @RHF Final Energy:  -746.51302493869696

   => Energetics <=

    Nuclear Repulsion Energy =            549.3079639810822528
    One-Electron Energy =               -2111.0516473067591505
    Two-Electron Energy =                 815.2306583869800534
    Total Energy =                       -746.5130249386969581

Computation Completed

Properties will be evaluated at   0.000000,   0.000000,   0.000000 [a0]

Properties computed using the SCF density matrix

  Nuclear Dipole Moment: [e a0]
     X:    -1.2408      Y:     5.0677      Z:     3.1115

  Electronic Dipole Moment: [e a0]
     X:     1.0353      Y:    -4.5204      Z:    -2.9121

  Dipole Moment: [e a0]
     X:    -0.2054      Y:     0.5473      Z:     0.1994     Total:     0.6177

  Dipole Moment: [D]
     X:    -0.5222      Y:     1.3911      Z:     0.5068     Total:     1.5699

*** tstop() called on ds3 at Mon Apr 27 08:54:50 2020
Module time:
	user time   =     103.64 seconds =       1.73 minutes
	system time =      35.33 seconds =       0.59 minutes
	total time  =        482 seconds =       8.03 minutes
Total time:
	user time   =     103.64 seconds =       1.73 minutes
	system time =      35.33 seconds =       0.59 minutes
	total time  =        482 seconds =       8.03 minutes
                                     G D M A

                                 by Anthony Stone

                           version 2.2.06, 22 June 2011

               Distributed Multipoles from Gaussian wavefunctions

Starting at 8:54:50 on 27 Apr 2020

Using SCF density matrix from file ./SSI/SSI-184PHE-238MET-1-dimer.test.1131.fchk

                         Distributed Multipole Analysis

Standard DMA

Positions and radii in angstrom
Multipole moments in atomic units, ea_0^k for rank k

C          x =  3.493628  y = -0.392944  z =  2.595447 angstrom
           Maximum rank =  0   Radius =  0.650 angstrom
                   Q00  =  -0.206267

C          x =  0.901628  y =  0.271056  z = -0.115553 angstrom
           Maximum rank =  0   Radius =  0.650 angstrom
                   Q00  =   0.023454

C          x =  1.745628  y =  0.467056  z =  0.980447 angstrom
           Maximum rank =  0   Radius =  0.650 angstrom
                   Q00  =  -0.093454

C          x =  0.845628  y = -0.942944  z = -0.762553 angstrom
           Maximum rank =  0   Radius =  0.650 angstrom
                   Q00  =  -0.079999

C          x =  2.519628  y = -0.597944  z =  1.458447 angstrom
           Maximum rank =  0   Radius =  0.650 angstrom
                   Q00  =  -0.104994

C          x =  1.547628  y = -2.023944  z = -0.262553 angstrom
           Maximum rank =  0   Radius =  0.650 angstrom
                   Q00  =  -0.079756

C          x =  2.417628  y = -1.831944  z =  0.841447 angstrom
           Maximum rank =  0   Radius =  0.650 angstrom
                   Q00  =  -0.069467

H          x =  0.329628  y =  1.104056  z = -0.496553 angstrom
           Maximum rank =  0   Radius =  0.325 angstrom
                   Q00  =   0.063281

H          x =  1.791628  y =  1.425056  z =  1.461447 angstrom
           Maximum rank =  0   Radius =  0.325 angstrom
                   Q00  =   0.056601

H          x =  0.211628  y = -1.062944  z = -1.630553 angstrom
           Maximum rank =  0   Radius =  0.325 angstrom
                   Q00  =   0.070705

H          x =  1.486628  y = -2.973944  z = -0.762553 angstrom
           Maximum rank =  0   Radius =  0.325 angstrom
                   Q00  =   0.066950

H          x =  3.835628  y =  0.643056  z =  2.567447 angstrom
           Maximum rank =  0   Radius =  0.325 angstrom
                   Q00  =   0.095732

H          x =  4.364628  y = -1.029944  z =  2.446447 angstrom
           Maximum rank =  0   Radius =  0.325 angstrom
                   Q00  =   0.099145

H          x =  3.012628  y = -2.660944  z =  1.197447 angstrom
           Maximum rank =  0   Radius =  0.325 angstrom
                   Q00  =   0.057288

H          x =  3.076398  y = -0.598624  z =  3.592247 angstrom
           Maximum rank =  0   Radius =  0.325 angstrom
                   Q00  =   0.104094

C          x = -2.338372  y =  1.604056  z =  0.221447 angstrom
           Maximum rank =  0   Radius =  0.650 angstrom
                   Q00  =  -0.361007

C          x = -3.929372  y =  1.492056  z = -1.999553 angstrom
           Maximum rank =  0   Radius =  0.650 angstrom
                   Q00  =  -0.346110

S          x = -2.664372  y =  0.564056  z = -1.215553 angstrom
           Maximum rank =  0   Radius =  0.650 angstrom
                   Q00  =   0.122210

H          x = -3.232372  y =  1.698056  z =  0.836447 angstrom
           Maximum rank =  0   Radius =  0.325 angstrom
                   Q00  =   0.092065

H          x = -1.554372  y =  1.149056  z =  0.825447 angstrom
           Maximum rank =  0   Radius =  0.325 angstrom
                   Q00  =   0.130018

H          x = -2.013372  y =  2.591056  z = -0.108553 angstrom
           Maximum rank =  0   Radius =  0.325 angstrom
                   Q00  =   0.080228

H          x = -4.125372  y =  1.064056  z = -2.981553 angstrom
           Maximum rank =  0   Radius =  0.325 angstrom
                   Q00  =   0.117651

H          x = -3.553372  y =  2.503056  z = -2.148553 angstrom
           Maximum rank =  0   Radius =  0.325 angstrom
                   Q00  =   0.075806

H          x = -4.878442  y =  1.538766  z = -1.445403 angstrom
           Maximum rank =  0   Radius =  0.325 angstrom
                   Q00  =   0.085827

Total multipoles referred to origin at
           x =   0.000000,  y =    0.000000,  z =    0.000000 angstrom
                   Q00  =  -0.000000

Finished at 8:54:50 on 27 Apr 2020

  DMA results are available in the Python driver through the
	  variable('DMA DISTRIBUTED MULTIPOLES')
  and
	  variable('DMA TOTAL MULTIPOLES')
  commands.

    Psi4 stopped on: Monday, 27 April 2020 08:54AM
    Psi4 wall time for execution: 0:08:01.59

*** Psi4 exiting successfully. Buy a developer a beer!
