                               Psi4 1.3.2 release

  ==> Input File <==

--------------------------------------------------------------------------
import numpy as np
set {scf_type pk
basis cc-pvdz
d_convergence 10
gdma_switch   0
gdma_limit    0
gdma_origin   [ 0.0,  0.0,  0.0 ]
}
molecule test {
    units Angstrom
    0 1
    --
    0 1
    C                3.192507251523145    -0.290509704583416     0.930833225023757
    C                2.957507251523145     0.033490295416584     2.410833225023757
    C                3.528507251523145     0.935490295416584     0.095833225023757
    H                4.006507251523145    -1.011509704583416     0.851833225023757
    H                2.291507251523145    -0.741509704583416     0.513833225023757
    H                2.208507251523145     0.825490295416584     2.480833225023757
    H                2.674507251523145     1.614490295416584     0.126833225023757
    H                4.373507251523145     1.477490295416584     0.508833225023757
    H                3.887307251523144     0.366800295416584     2.894963225023757
    H                2.545347251523145    -0.855649704583416     2.910383225023757
    H                3.745917251523144     0.690537295416584    -0.954276774976243
    C               -2.685492748476855     0.250490295416584     1.595833225023757
    C                0.004507251523145     0.197490295416584    -1.124166774976243
    C               -0.642492748476855     0.403490295416584     0.107833225023757
    C               -0.683492748476855    -0.393509704583416    -2.183166774976243
    C               -1.978492748476855     0.024490295416584     0.280833225023757
    C               -2.014492748476856    -0.769509704583416    -2.012166774976243
    C               -2.656492748476855    -0.559509704583416    -0.787166774976243
    H                1.026507251523145     0.514490295416584    -1.267166774976243
    H               -0.109492748476855     0.870490295416584     0.923833225023757
    H               -0.192492748476855    -0.547509704583416    -3.135166774976243
    H               -2.555492748476855    -1.222509704583416    -2.834166774976243
    H               -2.057492748476855    -0.145509704583416     2.389833225023757
    H               -3.631492748476856    -0.294509704583416     1.598833225023757
    H               -3.691492748476855    -0.850509704583416    -0.673166774976243
    H               -2.877643748476855     1.310931295416584     1.816153225023757

}
e, wfn = energy('scf', return_wfn=True)
gdma(wfn)
dmavals = variable('DMA DISTRIBUTED MULTIPOLES')
charges = np.array(dmavals)
print(charges)
np.save('SSI-058GLN-067PHE-1-dimer.npy', np.array(charges))--------------------------------------------------------------------------

*** tstart() called on ds3
*** at Tue Apr 28 21:43:51 2020

   => Loading Basis Set <=

    Name: CC-PVDZ
    Role: ORBITAL
    Keyword: BASIS
    atoms 1-3, 12-18  entry C          line   138 file /theoryfs2/ds/metcalf/miniconda2/envs/tf2gpu/share/psi4/basis/cc-pvdz.gbs
    atoms 4-11, 19-26 entry H          line    22 file /theoryfs2/ds/metcalf/miniconda2/envs/tf2gpu/share/psi4/basis/cc-pvdz.gbs

         ---------------------------------------------------------
                                   SCF
               by Justin Turney, Rob Parrish, Andy Simmonett
                          and Daniel G. A. Smith
                              RHF Reference
                        1 Threads,    500 MiB Core
         ---------------------------------------------------------

  ==> Geometry <==

    Molecular point group: c1
    Full point group: C1

    Geometry (in Angstrom), charge = 0, multiplicity = 1:

       Center              X                  Y                   Z               Mass
    ------------   -----------------  -----------------  -----------------  -----------------
         C            3.192507251523    -0.290509704583     0.930833225024    12.000000000000
         C            2.957507251523     0.033490295417     2.410833225024    12.000000000000
         C            3.528507251523     0.935490295417     0.095833225024    12.000000000000
         H            4.006507251523    -1.011509704583     0.851833225024     1.007825032230
         H            2.291507251523    -0.741509704583     0.513833225024     1.007825032230
         H            2.208507251523     0.825490295417     2.480833225024     1.007825032230
         H            2.674507251523     1.614490295417     0.126833225024     1.007825032230
         H            4.373507251523     1.477490295417     0.508833225024     1.007825032230
         H            3.887307251523     0.366800295417     2.894963225024     1.007825032230
         H            2.545347251523    -0.855649704583     2.910383225024     1.007825032230
         H            3.745917251523     0.690537295417    -0.954276774976     1.007825032230
         C           -2.685492748477     0.250490295417     1.595833225024    12.000000000000
         C            0.004507251523     0.197490295417    -1.124166774976    12.000000000000
         C           -0.642492748477     0.403490295417     0.107833225024    12.000000000000
         C           -0.683492748477    -0.393509704583    -2.183166774976    12.000000000000
         C           -1.978492748477     0.024490295417     0.280833225024    12.000000000000
         C           -2.014492748477    -0.769509704583    -2.012166774976    12.000000000000
         C           -2.656492748477    -0.559509704583    -0.787166774976    12.000000000000
         H            1.026507251523     0.514490295417    -1.267166774976     1.007825032230
         H           -0.109492748477     0.870490295417     0.923833225024     1.007825032230
         H           -0.192492748477    -0.547509704583    -3.135166774976     1.007825032230
         H           -2.555492748477    -1.222509704583    -2.834166774976     1.007825032230
         H           -2.057492748477    -0.145509704583     2.389833225024     1.007825032230
         H           -3.631492748477    -0.294509704583     1.598833225024     1.007825032230
         H           -3.691492748477    -0.850509704583    -0.673166774976     1.007825032230
         H           -2.877643748477     1.310931295417     1.816153225024     1.007825032230

  Running in c1 symmetry.

  Rotational constants: A =      0.06165  B =      0.01899  C =      0.01535 [cm^-1]
  Rotational constants: A =   1848.09239  B =    569.15935  C =    460.20987 [MHz]
  Nuclear repulsion =  483.407045630649634

  Charge       = 0
  Multiplicity = 1
  Electrons    = 76
  Nalpha       = 38
  Nbeta        = 38

  ==> Algorithm <==

  SCF Algorithm Type is PK.
  DIIS enabled.
  MOM disabled.
  Fractional occupation disabled.
  Guess Type is SAD.
  Energy threshold   = 1.00e-06
  Density threshold  = 1.00e-10
  Integral threshold = 0.00e+00

  ==> Primary Basis <==

  Basis Set: CC-PVDZ
    Blend: CC-PVDZ
    Number of shells: 108
    Number of basis function: 220
    Number of Cartesian functions: 230
    Spherical Harmonics?: true
    Max angular momentum: 2

  ==> Pre-Iterations <==

   -------------------------------------------------------
    Irrep   Nso     Nmo     Nalpha   Nbeta   Ndocc  Nsocc
   -------------------------------------------------------
     A        220     220       0       0       0       0
   -------------------------------------------------------
    Total     220     220      38      38      38       0
   -------------------------------------------------------

  ==> Integral Setup <==

  Using integral reordering PK algorithm.
  Sizing the integral batches needed.
  Building batch lookup table.
   Calculation information:
      Number of atoms:                  26
      Number of AO shells:             108
      Number of primitives:            300
      Number of atomic orbitals:       230
      Number of basis functions:       220

      Integral cutoff                 1.00e-12
      Number of threads:                 1

	Batch   1 pq = [       0,    9405] index = [             0,44231715] size =     44231715
	Batch   2 pq = [    9405,   13301] index = [      44231715,88464951] size =     44233236
	Batch   3 pq = [   13301,   16290] index = [      88464951,132690195] size =     44225244
	Batch   4 pq = [   16290,   18810] index = [     132690195,176917455] size =     44227260
	Batch   5 pq = [   18810,   21030] index = [     176917455,221140965] size =     44223510
	Batch   6 pq = [   21030,   23037] index = [     221140965,265363203] size =     44222238
	Batch   7 pq = [   23037,   24310] index = [     265363203,295500205] size =     30137002
  Task number: 27
  Buffer size: 11059200
  Buffer per thread: 2
  We computed 14993946 shell quartets total.
  Whereas there are 17325441 unique shell quartets.

  ==> DiskJK: Disk-Based J/K Matrices <==

    J tasked:                  Yes
    K tasked:                  Yes
    wK tasked:                  No
    Memory [MiB]:              375
    Schwarz Cutoff:          1E-12

    OpenMP threads:              1

  Minimum eigenvalue in the overlap matrix is 3.0635056930E-04.
  Using Symmetric Orthogonalization.

  SCF Guess: Superposition of Atomic Densities via on-the-fly atomic UHF.

  ==> Iterations <==

                        Total Energy        Delta E     RMS |[F,P]|

   @RHF iter SAD:  -386.83437843718519   -3.86834e+02   0.00000e+00
   @RHF iter   1:  -387.77437808503839   -9.40000e-01   2.73377e-03 DIIS
   @RHF iter   2:  -387.99215399987764   -2.17776e-01   1.14160e-03 DIIS
   @RHF iter   3:  -388.02657802107410   -3.44240e-02   2.48876e-04 DIIS
   @RHF iter   4:  -388.02945437913570   -2.87636e-03   5.07823e-05 DIIS
   @RHF iter   5:  -388.02953923236629   -8.48532e-05   1.65212e-05 DIIS
   @RHF iter   6:  -388.02954771872311   -8.48636e-06   4.82738e-06 DIIS
   @RHF iter   7:  -388.02954854523909   -8.26516e-07   1.17396e-06 DIIS
   @RHF iter   8:  -388.02954860397620   -5.87371e-08   2.79668e-07 DIIS
   @RHF iter   9:  -388.02954861077922   -6.80302e-09   1.06407e-07 DIIS
   @RHF iter  10:  -388.02954861218620   -1.40699e-09   5.35503e-08 DIIS
   @RHF iter  11:  -388.02954861258428   -3.98074e-10   2.12964e-08 DIIS
   @RHF iter  12:  -388.02954861266363   -7.93534e-11   7.98691e-09 DIIS
   @RHF iter  13:  -388.02954861267165   -8.01492e-12   3.39235e-09 DIIS
   @RHF iter  14:  -388.02954861267352   -1.87583e-12   8.71407e-10 DIIS
   @RHF iter  15:  -388.02954861266977    3.75167e-12   3.41470e-10 DIIS
   @RHF iter  16:  -388.02954861267153   -1.76215e-12   1.52566e-10 DIIS
   @RHF iter  17:  -388.02954861267403   -2.50111e-12   6.55924e-11 DIIS
  Energy and wave function converged.

  ==> Post-Iterations <==

    Orbital Energies [Eh]
    ---------------------

    Doubly Occupied:

       1A    -11.242229     2A    -11.237462     3A    -11.236634
       4A    -11.233314     5A    -11.232131     6A    -11.231327
       7A    -11.230143     8A    -11.219577     9A    -11.218670
      10A    -11.216777    11A     -1.149608    12A     -1.054870
      13A     -1.043620    14A     -1.008209    15A     -0.931244
      16A     -0.925799    17A     -0.825243    18A     -0.797410
      19A     -0.793803    20A     -0.690233    21A     -0.633040
      22A     -0.630374    23A     -0.626035    24A     -0.595896
      25A     -0.579417    26A     -0.574926    27A     -0.562964
      28A     -0.550367    29A     -0.537659    30A     -0.532055
      31A     -0.485835    32A     -0.484370    33A     -0.481608
      34A     -0.473509    35A     -0.470132    36A     -0.467691
      37A     -0.329691    38A     -0.322475

    Virtual:

      39A      0.132545    40A      0.139982    41A      0.168209
      42A      0.195193    43A      0.199330    44A      0.219769
      45A      0.224678    46A      0.232152    47A      0.244869
      48A      0.255382    49A      0.260321    50A      0.271900
      51A      0.282340    52A      0.286855    53A      0.295926
      54A      0.302143    55A      0.322001    56A      0.333044
      57A      0.364691    58A      0.369186    59A      0.389330
      60A      0.424299    61A      0.453995    62A      0.464994
      63A      0.477904    64A      0.503397    65A      0.562955
      66A      0.581145    67A      0.595628    68A      0.612254
      69A      0.618185    70A      0.627448    71A      0.641148
      72A      0.669547    73A      0.685463    74A      0.697709
      75A      0.708072    76A      0.722111    77A      0.738540
      78A      0.743435    79A      0.745981    80A      0.756776
      81A      0.775329    82A      0.784009    83A      0.787784
      84A      0.798765    85A      0.817666    86A      0.831044
      87A      0.847099    88A      0.860405    89A      0.867021
      90A      0.876158    91A      0.882461    92A      0.884842
      93A      0.891577    94A      0.894854    95A      0.905868
      96A      0.908992    97A      0.916046    98A      0.921516
      99A      0.929009   100A      0.930280   101A      0.948004
     102A      0.958697   103A      0.973786   104A      0.988814
     105A      0.998985   106A      1.022372   107A      1.049451
     108A      1.065998   109A      1.121369   110A      1.123998
     111A      1.133559   112A      1.149638   113A      1.159282
     114A      1.169661   115A      1.199283   116A      1.214623
     117A      1.240579   118A      1.247880   119A      1.252318
     120A      1.282759   121A      1.302068   122A      1.305363
     123A      1.322760   124A      1.330610   125A      1.370875
     126A      1.411245   127A      1.466093   128A      1.488859
     129A      1.520560   130A      1.527552   131A      1.534128
     132A      1.555065   133A      1.614442   134A      1.637251
     135A      1.673810   136A      1.678987   137A      1.688095
     138A      1.697512   139A      1.701183   140A      1.733229
     141A      1.745460   142A      1.758932   143A      1.788370
     144A      1.810100   145A      1.846712   146A      1.856818
     147A      1.867288   148A      1.876116   149A      1.896336
     150A      1.897642   151A      1.905476   152A      1.913107
     153A      1.917380   154A      1.927809   155A      1.935106
     156A      1.946262   157A      1.950322   158A      1.953631
     159A      1.960585   160A      1.967859   161A      1.982755
     162A      1.984673   163A      1.995091   164A      1.999583
     165A      2.009621   166A      2.022751   167A      2.046631
     168A      2.052589   169A      2.055484   170A      2.073602
     171A      2.107937   172A      2.126842   173A      2.131092
     174A      2.150774   175A      2.152853   176A      2.182120
     177A      2.188148   178A      2.205443   179A      2.246911
     180A      2.271407   181A      2.283255   182A      2.284714
     183A      2.302466   184A      2.308567   185A      2.323315
     186A      2.331991   187A      2.346299   188A      2.356393
     189A      2.449468   190A      2.473245   191A      2.492135
     192A      2.514527   193A      2.531520   194A      2.534979
     195A      2.592252   196A      2.614171   197A      2.622826
     198A      2.630644   199A      2.727415   200A      2.749499
     201A      2.755795   202A      2.769061   203A      2.774414
     204A      2.783779   205A      2.797460   206A      2.808777
     207A      2.830717   208A      2.848528   209A      2.864270
     210A      2.927089   211A      2.965951   212A      2.969953
     213A      2.988704   214A      3.008695   215A      3.023692
     216A      3.065176   217A      3.155024   218A      3.190446
     219A      3.293480   220A      3.948095

    Final Occupation by Irrep:
              A
    DOCC [    38 ]

  @RHF Final Energy:  -388.02954861267403

   => Energetics <=

    Nuclear Repulsion Energy =            483.4070456306496339
    One-Electron Energy =               -1481.1604923849708939
    Two-Electron Energy =                 609.7238981416471688
    Total Energy =                       -388.0295486126740343

Computation Completed

Properties will be evaluated at   0.000000,   0.000000,   0.000000 [a0]

Properties computed using the SCF density matrix

  Nuclear Dipole Moment: [e a0]
     X:    10.9159      Y:     1.8763      Z:     7.6425

  Electronic Dipole Moment: [e a0]
     X:   -10.9876      Y:    -1.8815      Z:    -7.5516

  Dipole Moment: [e a0]
     X:    -0.0717      Y:    -0.0051      Z:     0.0909     Total:     0.1159

  Dipole Moment: [D]
     X:    -0.1823      Y:    -0.0130      Z:     0.2310     Total:     0.2946

*** tstop() called on ds3 at Tue Apr 28 21:46:32 2020
Module time:
	user time   =     102.73 seconds =       1.71 minutes
	system time =      44.75 seconds =       0.75 minutes
	total time  =        161 seconds =       2.68 minutes
Total time:
	user time   =     102.73 seconds =       1.71 minutes
	system time =      44.75 seconds =       0.75 minutes
	total time  =        161 seconds =       2.68 minutes
                                     G D M A

                                 by Anthony Stone

                           version 2.2.06, 22 June 2011

               Distributed Multipoles from Gaussian wavefunctions

Starting at 21:46:32 on 28 Apr 2020

Using SCF density matrix from file ./SSI/SSI-058GLN-067PHE-1-dimer.test.27866.fchk

                         Distributed Multipole Analysis

Standard DMA

Positions and radii in angstrom
Multipole moments in atomic units, ea_0^k for rank k

C          x =  3.192507  y = -0.290510  z =  0.930833 angstrom
           Maximum rank =  0   Radius =  0.650 angstrom
                   Q00  =  -0.084719

C          x =  2.957507  y =  0.033490  z =  2.410833 angstrom
           Maximum rank =  0   Radius =  0.650 angstrom
                   Q00  =  -0.246237

C          x =  3.528507  y =  0.935490  z =  0.095833 angstrom
           Maximum rank =  0   Radius =  0.650 angstrom
                   Q00  =  -0.240369

H          x =  4.006507  y = -1.011510  z =  0.851833 angstrom
           Maximum rank =  0   Radius =  0.325 angstrom
                   Q00  =   0.047959

H          x =  2.291507  y = -0.741510  z =  0.513833 angstrom
           Maximum rank =  0   Radius =  0.325 angstrom
                   Q00  =   0.054545

H          x =  2.208507  y =  0.825490  z =  2.480833 angstrom
           Maximum rank =  0   Radius =  0.325 angstrom
                   Q00  =   0.071392

H          x =  2.674507  y =  1.614490  z =  0.126833 angstrom
           Maximum rank =  0   Radius =  0.325 angstrom
                   Q00  =   0.068286

H          x =  4.373507  y =  1.477490  z =  0.508833 angstrom
           Maximum rank =  0   Radius =  0.325 angstrom
                   Q00  =   0.078661

H          x =  3.887307  y =  0.366800  z =  2.894963 angstrom
           Maximum rank =  0   Radius =  0.325 angstrom
                   Q00  =   0.080361

H          x =  2.545347  y = -0.855650  z =  2.910383 angstrom
           Maximum rank =  0   Radius =  0.325 angstrom
                   Q00  =   0.085878

H          x =  3.745917  y =  0.690537  z = -0.954277 angstrom
           Maximum rank =  0   Radius =  0.325 angstrom
                   Q00  =   0.083739

C          x = -2.685493  y =  0.250490  z =  1.595833 angstrom
           Maximum rank =  0   Radius =  0.650 angstrom
                   Q00  =  -0.206118

C          x =  0.004507  y =  0.197490  z = -1.124167 angstrom
           Maximum rank =  0   Radius =  0.650 angstrom
                   Q00  =  -0.081342

C          x = -0.642493  y =  0.403490  z =  0.107833 angstrom
           Maximum rank =  0   Radius =  0.650 angstrom
                   Q00  =  -0.099093

C          x = -0.683493  y = -0.393510  z = -2.183167 angstrom
           Maximum rank =  0   Radius =  0.650 angstrom
                   Q00  =  -0.077244

C          x = -1.978493  y =  0.024490  z =  0.280833 angstrom
           Maximum rank =  0   Radius =  0.650 angstrom
                   Q00  =  -0.100625

C          x = -2.014493  y = -0.769510  z = -2.012167 angstrom
           Maximum rank =  0   Radius =  0.650 angstrom
                   Q00  =  -0.043255

C          x = -2.656493  y = -0.559510  z = -0.787167 angstrom
           Maximum rank =  0   Radius =  0.650 angstrom
                   Q00  =  -0.007561

H          x =  1.026507  y =  0.514490  z = -1.267167 angstrom
           Maximum rank =  0   Radius =  0.325 angstrom
                   Q00  =   0.068891

H          x = -0.109493  y =  0.870490  z =  0.923833 angstrom
           Maximum rank =  0   Radius =  0.325 angstrom
                   Q00  =   0.056795

H          x = -0.192493  y = -0.547510  z = -3.135167 angstrom
           Maximum rank =  0   Radius =  0.325 angstrom
                   Q00  =   0.061975

H          x = -2.555493  y = -1.222510  z = -2.834167 angstrom
           Maximum rank =  0   Radius =  0.325 angstrom
                   Q00  =   0.065657

H          x = -2.057493  y = -0.145510  z =  2.389833 angstrom
           Maximum rank =  0   Radius =  0.325 angstrom
                   Q00  =   0.100726

H          x = -3.631493  y = -0.294510  z =  1.598833 angstrom
           Maximum rank =  0   Radius =  0.325 angstrom
                   Q00  =   0.098475

H          x = -3.691493  y = -0.850510  z = -0.673167 angstrom
           Maximum rank =  0   Radius =  0.325 angstrom
                   Q00  =   0.058986

H          x = -2.877644  y =  1.310931  z =  1.816153 angstrom
           Maximum rank =  0   Radius =  0.325 angstrom
                   Q00  =   0.104236

Total multipoles referred to origin at
           x =   0.000000,  y =    0.000000,  z =    0.000000 angstrom
                   Q00  =  -0.000000

Finished at 21:46:32 on 28 Apr 2020

  DMA results are available in the Python driver through the
	  variable('DMA DISTRIBUTED MULTIPOLES')
  and
	  variable('DMA TOTAL MULTIPOLES')
  commands.

    Psi4 stopped on: Tuesday, 28 April 2020 09:46PM
    Psi4 wall time for execution: 0:02:40.99

*** Psi4 exiting successfully. Buy a developer a beer!
