                               Psi4 1.3.2 release

  ==> Input File <==

--------------------------------------------------------------------------
import numpy as np
set {scf_type pk
basis cc-pvdz
d_convergence 10
gdma_switch   0
gdma_limit    0
gdma_origin   [ 0.0,  0.0,  0.0 ]
}
molecule test {
    units Angstrom
    0 1
    --
    0 1
    C               -1.579739418776077    -2.109348481182264    -1.006489939232556
    C               -2.305739418776077    -3.081348481182265    -1.934489939232556
    H               -2.087739418776077    -1.145348481182264    -0.985489939232556
    H               -1.563739418776077    -2.521348481182265     0.002510060767444
    H               -0.553739418776077    -1.971348481182264    -1.345489939232556
    H               -3.346739418776077    -3.150348481182265    -1.616489939232556
    H               -1.875739418776077    -4.063348481182265    -1.764489939232556
    H               -2.268669418776077    -2.834716481182265    -3.005839939232556
    C               -1.070739418776077     2.515651518817735     1.040510060767444
    C                0.013260581223923     0.263651518817736     1.373510060767444
    C               -0.019739418776077     1.488651518817736     0.702510060767444
    C                0.979260581223923    -0.684348481182264     1.042510060767444
    C                1.933260581223923    -0.407348481182264     0.056510060767444
    C                0.916260581223923     1.740651518817736    -0.315489939232556
    C                1.903260581223923     0.810651518817736    -0.623489939232556
    H               -0.705739418776077     0.041651518817736     2.136510060767443
    H                0.990260581223923    -1.637348481182264     1.554510060767444
    H               -0.624739418776077     3.509651518817736     1.052510060767444
    H               -1.425739418776077     2.310651518817736     2.050510060767444
    H                2.688260581223923    -1.143348481182264    -0.189489939232556
    H                0.895260581223923     2.684651518817735    -0.843489939232556
    H                2.640260581223923     1.027651518817736    -1.385489939232556
    H               -1.921919418776077     2.500554518817736     0.343900060767444

}
e, wfn = energy('scf', return_wfn=True)
gdma(wfn)
dmavals = variable('DMA DISTRIBUTED MULTIPOLES')
charges = np.array(dmavals)
print(charges)
np.save('SSI-008ILE-033PHE-1-dimer.npy', np.array(charges))--------------------------------------------------------------------------

*** tstart() called on ds3
*** at Mon Apr 27 08:11:19 2020

   => Loading Basis Set <=

    Name: CC-PVDZ
    Role: ORBITAL
    Keyword: BASIS
    atoms 1-2, 9-15  entry C          line   138 file /theoryfs2/ds/metcalf/miniconda2/envs/tf2gpu/share/psi4/basis/cc-pvdz.gbs
    atoms 3-8, 16-23 entry H          line    22 file /theoryfs2/ds/metcalf/miniconda2/envs/tf2gpu/share/psi4/basis/cc-pvdz.gbs

         ---------------------------------------------------------
                                   SCF
               by Justin Turney, Rob Parrish, Andy Simmonett
                          and Daniel G. A. Smith
                              RHF Reference
                        1 Threads,    500 MiB Core
         ---------------------------------------------------------

  ==> Geometry <==

    Molecular point group: c1
    Full point group: C1

    Geometry (in Angstrom), charge = 0, multiplicity = 1:

       Center              X                  Y                   Z               Mass
    ------------   -----------------  -----------------  -----------------  -----------------
         C           -1.579739418776    -2.109348481182    -1.006489939233    12.000000000000
         C           -2.305739418776    -3.081348481182    -1.934489939233    12.000000000000
         H           -2.087739418776    -1.145348481182    -0.985489939233     1.007825032230
         H           -1.563739418776    -2.521348481182     0.002510060767     1.007825032230
         H           -0.553739418776    -1.971348481182    -1.345489939233     1.007825032230
         H           -3.346739418776    -3.150348481182    -1.616489939233     1.007825032230
         H           -1.875739418776    -4.063348481182    -1.764489939233     1.007825032230
         H           -2.268669418776    -2.834716481182    -3.005839939233     1.007825032230
         C           -1.070739418776     2.515651518818     1.040510060767    12.000000000000
         C            0.013260581224     0.263651518818     1.373510060767    12.000000000000
         C           -0.019739418776     1.488651518818     0.702510060767    12.000000000000
         C            0.979260581224    -0.684348481182     1.042510060767    12.000000000000
         C            1.933260581224    -0.407348481182     0.056510060767    12.000000000000
         C            0.916260581224     1.740651518818    -0.315489939233    12.000000000000
         C            1.903260581224     0.810651518818    -0.623489939233    12.000000000000
         H           -0.705739418776     0.041651518818     2.136510060767     1.007825032230
         H            0.990260581224    -1.637348481182     1.554510060767     1.007825032230
         H           -0.624739418776     3.509651518818     1.052510060767     1.007825032230
         H           -1.425739418776     2.310651518818     2.050510060767     1.007825032230
         H            2.688260581224    -1.143348481182    -0.189489939233     1.007825032230
         H            0.895260581224     2.684651518818    -0.843489939233     1.007825032230
         H            2.640260581224     1.027651518818    -1.385489939233     1.007825032230
         H           -1.921919418776     2.500554518818     0.343900060767     1.007825032230

  Running in c1 symmetry.

  Rotational constants: A =      0.06269  B =      0.02660  C =      0.02267 [cm^-1]
  Rotational constants: A =   1879.48813  B =    797.32565  C =    679.60298 [MHz]
  Nuclear repulsion =  408.850798132605348

  Charge       = 0
  Multiplicity = 1
  Electrons    = 68
  Nalpha       = 34
  Nbeta        = 34

  ==> Algorithm <==

  SCF Algorithm Type is PK.
  DIIS enabled.
  MOM disabled.
  Fractional occupation disabled.
  Guess Type is SAD.
  Energy threshold   = 1.00e-06
  Density threshold  = 1.00e-10
  Integral threshold = 0.00e+00

  ==> Primary Basis <==

  Basis Set: CC-PVDZ
    Blend: CC-PVDZ
    Number of shells: 96
    Number of basis function: 196
    Number of Cartesian functions: 205
    Spherical Harmonics?: true
    Max angular momentum: 2

  ==> Pre-Iterations <==

   -------------------------------------------------------
    Irrep   Nso     Nmo     Nalpha   Nbeta   Ndocc  Nsocc
   -------------------------------------------------------
     A        196     196       0       0       0       0
   -------------------------------------------------------
    Total     196     196      34      34      34       0
   -------------------------------------------------------

  ==> Integral Setup <==

  Using integral reordering PK algorithm.
  Sizing the integral batches needed.
  Building batch lookup table.
   Calculation information:
      Number of atoms:                  23
      Number of AO shells:              96
      Number of primitives:            268
      Number of atomic orbitals:       205
      Number of basis functions:       196

      Integral cutoff                 1.00e-12
      Number of threads:                 1

	Batch   1 pq = [       0,    9405] index = [             0,44231715] size =     44231715
	Batch   2 pq = [    9405,   13301] index = [      44231715,88464951] size =     44233236
	Batch   3 pq = [   13301,   16290] index = [      88464951,132690195] size =     44225244
	Batch   4 pq = [   16290,   18810] index = [     132690195,176917455] size =     44227260
	Batch   5 pq = [   18810,   19306] index = [     176917455,186370471] size =      9453016
  Task number: 17
  Buffer size: 11059200
  Buffer per thread: 2
  We computed 9604587 shell quartets total.
  Whereas there are 10841496 unique shell quartets.

  ==> DiskJK: Disk-Based J/K Matrices <==

    J tasked:                  Yes
    K tasked:                  Yes
    wK tasked:                  No
    Memory [MiB]:              375
    Schwarz Cutoff:          1E-12

    OpenMP threads:              1

  Minimum eigenvalue in the overlap matrix is 3.2241809064E-04.
  Using Symmetric Orthogonalization.

  SCF Guess: Superposition of Atomic Densities via on-the-fly atomic UHF.

  ==> Iterations <==

                        Total Energy        Delta E     RMS |[F,P]|

   @RHF iter SAD:  -347.81988505111644   -3.47820e+02   0.00000e+00
   @RHF iter   1:  -348.76703768775826   -9.47153e-01   2.88986e-03 DIIS
   @RHF iter   2:  -348.95922922534703   -1.92192e-01   1.19185e-03 DIIS
   @RHF iter   3:  -348.98897399587827   -2.97448e-02   2.56521e-04 DIIS
   @RHF iter   4:  -348.99142260727132   -2.44861e-03   5.27244e-05 DIIS
   @RHF iter   5:  -348.99149517292346   -7.25657e-05   1.79186e-05 DIIS
   @RHF iter   6:  -348.99150301529284   -7.84237e-06   4.80790e-06 DIIS
   @RHF iter   7:  -348.99150367043512   -6.55142e-07   1.24316e-06 DIIS
   @RHF iter   8:  -348.99150372095767   -5.05225e-08   2.99426e-07 DIIS
   @RHF iter   9:  -348.99150372680054   -5.84288e-09   1.26055e-07 DIIS
   @RHF iter  10:  -348.99150372806724   -1.26670e-09   5.76484e-08 DIIS
   @RHF iter  11:  -348.99150372850914   -4.41901e-10   2.17888e-08 DIIS
   @RHF iter  12:  -348.99150372857423   -6.50857e-11   9.02047e-09 DIIS
   @RHF iter  13:  -348.99150372858077   -6.53699e-12   3.55064e-09 DIIS
   @RHF iter  14:  -348.99150372858298   -2.21689e-12   9.32792e-10 DIIS
   @RHF iter  15:  -348.99150372858236    6.25278e-13   3.84437e-10 DIIS
   @RHF iter  16:  -348.99150372858480   -2.44427e-12   1.28535e-10 DIIS
   @RHF iter  17:  -348.99150372858412    6.82121e-13   5.48575e-11 DIIS
  Energy and wave function converged.

  ==> Post-Iterations <==

    Orbital Energies [Eh]
    ---------------------

    Doubly Occupied:

       1A    -11.242077     2A    -11.236249     3A    -11.235908
       4A    -11.232067     5A    -11.231041     6A    -11.229931
       7A    -11.229295     8A    -11.211272     9A    -11.208057
      10A     -1.149437    11A     -1.041677    12A     -1.012636
      13A     -1.010659    14A     -0.929598    15A     -0.830706
      16A     -0.822895    17A     -0.794890    18A     -0.689474
      19A     -0.630902    20A     -0.629025    21A     -0.592265
      22A     -0.589806    23A     -0.583524    24A     -0.577172
      25A     -0.559837    26A     -0.534560    27A     -0.499447
      28A     -0.485400    29A     -0.483822    30A     -0.481227
      31A     -0.477081    32A     -0.474126    33A     -0.331979
      34A     -0.319131

    Virtual:

      35A      0.135744    36A      0.139736    37A      0.175446
      38A      0.196880    39A      0.199656    40A      0.213684
      41A      0.235593    42A      0.244097    43A      0.252431
      44A      0.266257    45A      0.268936    46A      0.272782
      47A      0.280254    48A      0.293111    49A      0.306117
      50A      0.307964    51A      0.366149    52A      0.376628
      53A      0.399902    54A      0.451484    55A      0.460199
      56A      0.477175    57A      0.493960    58A      0.561794
      59A      0.569352    60A      0.600535    61A      0.603124
      62A      0.608828    63A      0.639753    64A      0.660617
      65A      0.679893    66A      0.687282    67A      0.694255
      68A      0.705525    69A      0.735888    70A      0.742273
      71A      0.746879    72A      0.752414    73A      0.761989
      74A      0.777497    75A      0.786243    76A      0.793934
      77A      0.843972    78A      0.853378    79A      0.855976
      80A      0.869934    81A      0.879282    82A      0.892025
      83A      0.897512    84A      0.899253    85A      0.901514
      86A      0.910868    87A      0.919869    88A      0.925180
      89A      0.936174    90A      0.942776    91A      0.962425
      92A      0.965767    93A      0.987391    94A      0.999161
      95A      1.018532    96A      1.050921    97A      1.120404
      98A      1.126435    99A      1.136824   100A      1.138720
     101A      1.153536   102A      1.158395   103A      1.193800
     104A      1.226128   105A      1.236314   106A      1.241660
     107A      1.256882   108A      1.283618   109A      1.292758
     110A      1.314247   111A      1.321444   112A      1.325659
     113A      1.412243   114A      1.462454   115A      1.489431
     116A      1.510921   117A      1.520952   118A      1.557742
     119A      1.599481   120A      1.600926   121A      1.677598
     122A      1.691631   123A      1.700053   124A      1.703099
     125A      1.731396   126A      1.746632   127A      1.764842
     128A      1.786590   129A      1.805485   130A      1.854821
     131A      1.870686   132A      1.872733   133A      1.880935
     134A      1.891286   135A      1.904799   136A      1.910912
     137A      1.917289   138A      1.924397   139A      1.935767
     140A      1.946003   141A      1.952836   142A      1.957741
     143A      1.966427   144A      1.972081   145A      1.982489
     146A      1.990135   147A      1.994454   148A      2.038516
     149A      2.046748   150A      2.067289   151A      2.075758
     152A      2.093862   153A      2.112082   154A      2.142413
     155A      2.144903   156A      2.156018   157A      2.166773
     158A      2.171792   159A      2.180721   160A      2.249988
     161A      2.275840   162A      2.289784   163A      2.296440
     164A      2.308259   165A      2.317151   166A      2.326992
     167A      2.355995   168A      2.450759   169A      2.458986
     170A      2.478786   171A      2.483932   172A      2.502091
     173A      2.537938   174A      2.560803   175A      2.594643
     176A      2.622791   177A      2.735649   178A      2.747858
     179A      2.769796   180A      2.775129   181A      2.785965
     182A      2.798530   183A      2.810860   184A      2.845333
     185A      2.858048   186A      2.870530   187A      2.882865
     188A      2.950972   189A      2.968405   190A      2.983324
     191A      3.004838   192A      3.020649   193A      3.146493
     194A      3.193793   195A      3.291672   196A      3.955118

    Final Occupation by Irrep:
              A
    DOCC [    34 ]

  @RHF Final Energy:  -348.99150372858412

   => Energetics <=

    Nuclear Repulsion Energy =            408.8507981326053482
    One-Electron Energy =               -1280.5102648519600734
    Two-Electron Energy =                 522.6679629907705475
    Total Energy =                       -348.9915037285841208

Computation Completed

Properties will be evaluated at   0.000000,   0.000000,   0.000000 [a0]

Properties computed using the SCF density matrix

  Nuclear Dipole Moment: [e a0]
     X:    -8.5877      Y:    -5.9926      Z:    -3.7460

  Electronic Dipole Moment: [e a0]
     X:     8.5417      Y:     6.1158      Z:     3.8030

  Dipole Moment: [e a0]
     X:    -0.0459      Y:     0.1232      Z:     0.0570     Total:     0.1433

  Dipole Moment: [D]
     X:    -0.1167      Y:     0.3131      Z:     0.1449     Total:     0.3642

*** tstop() called on ds3 at Mon Apr 27 08:14:33 2020
Module time:
	user time   =      68.75 seconds =       1.15 minutes
	system time =      25.89 seconds =       0.43 minutes
	total time  =        194 seconds =       3.23 minutes
Total time:
	user time   =      68.75 seconds =       1.15 minutes
	system time =      25.89 seconds =       0.43 minutes
	total time  =        194 seconds =       3.23 minutes
                                     G D M A

                                 by Anthony Stone

                           version 2.2.06, 22 June 2011

               Distributed Multipoles from Gaussian wavefunctions

Starting at 8:14:33 on 27 Apr 2020

Using SCF density matrix from file ./SSI/SSI-008ILE-033PHE-1-dimer.test.719.fchk

                         Distributed Multipole Analysis

Standard DMA

Positions and radii in angstrom
Multipole moments in atomic units, ea_0^k for rank k

C          x = -1.579739  y = -2.109348  z = -1.006490 angstrom
           Maximum rank =  0   Radius =  0.650 angstrom
                   Q00  =  -0.219670

C          x = -2.305739  y = -3.081348  z = -1.934490 angstrom
           Maximum rank =  0   Radius =  0.650 angstrom
                   Q00  =  -0.244164

H          x = -2.087739  y = -1.145348  z = -0.985490 angstrom
           Maximum rank =  0   Radius =  0.325 angstrom
                   Q00  =   0.078042

H          x = -1.563739  y = -2.521348  z =  0.002510 angstrom
           Maximum rank =  0   Radius =  0.325 angstrom
                   Q00  =   0.072165

H          x = -0.553739  y = -1.971348  z = -1.345490 angstrom
           Maximum rank =  0   Radius =  0.325 angstrom
                   Q00  =   0.084778

H          x = -3.346739  y = -3.150348  z = -1.616490 angstrom
           Maximum rank =  0   Radius =  0.325 angstrom
                   Q00  =   0.072662

H          x = -1.875739  y = -4.063348  z = -1.764490 angstrom
           Maximum rank =  0   Radius =  0.325 angstrom
                   Q00  =   0.073137

H          x = -2.268669  y = -2.834716  z = -3.005840 angstrom
           Maximum rank =  0   Radius =  0.325 angstrom
                   Q00  =   0.082432

C          x = -1.070739  y =  2.515652  z =  1.040510 angstrom
           Maximum rank =  0   Radius =  0.650 angstrom
                   Q00  =  -0.202526

C          x =  0.013261  y =  0.263652  z =  1.373510 angstrom
           Maximum rank =  0   Radius =  0.650 angstrom
                   Q00  =  -0.084798

C          x = -0.019739  y =  1.488652  z =  0.702510 angstrom
           Maximum rank =  0   Radius =  0.650 angstrom
                   Q00  =  -0.099997

C          x =  0.979261  y = -0.684348  z =  1.042510 angstrom
           Maximum rank =  0   Radius =  0.650 angstrom
                   Q00  =  -0.055671

C          x =  1.933261  y = -0.407348  z =  0.056510 angstrom
           Maximum rank =  0   Radius =  0.650 angstrom
                   Q00  =  -0.094666

C          x =  0.916261  y =  1.740652  z = -0.315490 angstrom
           Maximum rank =  0   Radius =  0.650 angstrom
                   Q00  =  -0.003626

C          x =  1.903261  y =  0.810652  z = -0.623490 angstrom
           Maximum rank =  0   Radius =  0.650 angstrom
                   Q00  =  -0.065914

H          x = -0.705739  y =  0.041652  z =  2.136510 angstrom
           Maximum rank =  0   Radius =  0.325 angstrom
                   Q00  =   0.058344

H          x =  0.990261  y = -1.637348  z =  1.554510 angstrom
           Maximum rank =  0   Radius =  0.325 angstrom
                   Q00  =   0.065013

H          x = -0.624739  y =  3.509652  z =  1.052510 angstrom
           Maximum rank =  0   Radius =  0.325 angstrom
                   Q00  =   0.099993

H          x = -1.425739  y =  2.310652  z =  2.050510 angstrom
           Maximum rank =  0   Radius =  0.325 angstrom
                   Q00  =   0.096020

H          x =  2.688261  y = -1.143348  z = -0.189490 angstrom
           Maximum rank =  0   Radius =  0.325 angstrom
                   Q00  =   0.061592

H          x =  0.895261  y =  2.684652  z = -0.843490 angstrom
           Maximum rank =  0   Radius =  0.325 angstrom
                   Q00  =   0.056116

H          x =  2.640261  y =  1.027652  z = -1.385490 angstrom
           Maximum rank =  0   Radius =  0.325 angstrom
                   Q00  =   0.066089

H          x = -1.921919  y =  2.500555  z =  0.343900 angstrom
           Maximum rank =  0   Radius =  0.325 angstrom
                   Q00  =   0.104650

Total multipoles referred to origin at
           x =   0.000000,  y =    0.000000,  z =    0.000000 angstrom
                   Q00  =  -0.000000

Finished at 8:14:33 on 27 Apr 2020

  DMA results are available in the Python driver through the
	  variable('DMA DISTRIBUTED MULTIPOLES')
  and
	  variable('DMA TOTAL MULTIPOLES')
  commands.

    Psi4 stopped on: Monday, 27 April 2020 08:14AM
    Psi4 wall time for execution: 0:03:14.69

*** Psi4 exiting successfully. Buy a developer a beer!
