                               Psi4 1.3.2 release

  ==> Input File <==

--------------------------------------------------------------------------
import numpy as np
set {scf_type pk
basis cc-pvdz
d_convergence 10
gdma_switch   0
gdma_limit    0
gdma_origin   [ 0.0,  0.0,  0.0 ]
}
molecule test {
    units Angstrom
    0 1
    --
    0 1
    C                2.744386214300832     0.741114496671732     1.143822153914050
    C                3.373386214300833     0.987114496671732     2.498822153914050
    C                2.615386214300832     0.305114496671732    -0.124177846085950
    O                2.868386214300832    -1.112885503328268    -0.161177846085950
    O                2.356386214300833     0.839114496671732    -1.217177846085950
    H                2.895976214300833     0.370184496671732     3.268272153914050
    H                3.296616214300832     2.033064496671732     2.816462153914050
    H                4.432396214300832     0.712024496671732     2.471902153914050
    H                1.703896214300832     0.584544496671732     1.469212153914050
    H                2.745586214300832     1.808534496671732     0.844272153914050
    C               -0.842613785699168     0.132324496671732     0.257392153914050
    C               -1.251173785699168     0.049134496671732     1.713972153914050
    C               -2.900933785699168    -0.475055503328268    -1.008877846085950
    N               -1.658313785699168    -0.725585503328268    -0.607337846085950
    N               -3.561023785699168     0.626494496671732    -0.637167846085950
    N               -3.524683785699168    -1.350595503328268    -1.803807846085950
    H               -0.871323785699168     1.159104496671732    -0.121187846085950
    H                0.174506214300832    -0.230845503328268     0.146672153914050
    H               -2.305323785699168     0.301804496671732     1.855602153914050
    H               -0.648883785699168     0.733554496671732     2.319342153914050
    H               -1.150703785699168    -1.489545503328268    -1.041237846085950
    H               -3.096583785699168     1.326634496671732    -0.071617846085950
    H               -4.499583785699167     0.821384496671732    -0.945997846085950
    H               -3.053663785699168    -2.197495503328268    -2.099267846085950
    H               -4.465013785699167    -1.194365503328268    -2.131287846085950
    H               -1.099263785699167    -0.966055503328268     2.094762153914050

}
e, wfn = energy('scf', return_wfn=True)
gdma(wfn)
dmavals = variable('DMA DISTRIBUTED MULTIPOLES')
charges = np.array(dmavals)
print(charges)
np.save('SSI-153ASP-156ARG-1-dimer.npy', np.array(charges))--------------------------------------------------------------------------

*** tstart() called on ds3
*** at Sun Apr 26 22:39:26 2020

   => Loading Basis Set <=

    Name: CC-PVDZ
    Role: ORBITAL
    Keyword: BASIS
    atoms 1-3, 11-13  entry C          line   138 file /theoryfs2/ds/metcalf/miniconda2/envs/tf2gpu/share/psi4/basis/cc-pvdz.gbs
    atoms 4-5         entry O          line   198 file /theoryfs2/ds/metcalf/miniconda2/envs/tf2gpu/share/psi4/basis/cc-pvdz.gbs
    atoms 6-10, 17-26 entry H          line    22 file /theoryfs2/ds/metcalf/miniconda2/envs/tf2gpu/share/psi4/basis/cc-pvdz.gbs
    atoms 14-16       entry N          line   168 file /theoryfs2/ds/metcalf/miniconda2/envs/tf2gpu/share/psi4/basis/cc-pvdz.gbs

         ---------------------------------------------------------
                                   SCF
               by Justin Turney, Rob Parrish, Andy Simmonett
                          and Daniel G. A. Smith
                              RHF Reference
                        1 Threads,    500 MiB Core
         ---------------------------------------------------------

  ==> Geometry <==

    Molecular point group: c1
    Full point group: C1

    Geometry (in Angstrom), charge = 0, multiplicity = 1:

       Center              X                  Y                   Z               Mass
    ------------   -----------------  -----------------  -----------------  -----------------
         C            2.744386214301     0.741114496672     1.143822153914    12.000000000000
         C            3.373386214301     0.987114496672     2.498822153914    12.000000000000
         C            2.615386214301     0.305114496672    -0.124177846086    12.000000000000
         O            2.868386214301    -1.112885503328    -0.161177846086    15.994914619570
         O            2.356386214301     0.839114496672    -1.217177846086    15.994914619570
         H            2.895976214301     0.370184496672     3.268272153914     1.007825032230
         H            3.296616214301     2.033064496672     2.816462153914     1.007825032230
         H            4.432396214301     0.712024496672     2.471902153914     1.007825032230
         H            1.703896214301     0.584544496672     1.469212153914     1.007825032230
         H            2.745586214301     1.808534496672     0.844272153914     1.007825032230
         C           -0.842613785699     0.132324496672     0.257392153914    12.000000000000
         C           -1.251173785699     0.049134496672     1.713972153914    12.000000000000
         C           -2.900933785699    -0.475055503328    -1.008877846086    12.000000000000
         N           -1.658313785699    -0.725585503328    -0.607337846086    14.003074004430
         N           -3.561023785699     0.626494496672    -0.637167846086    14.003074004430
         N           -3.524683785699    -1.350595503328    -1.803807846086    14.003074004430
         H           -0.871323785699     1.159104496672    -0.121187846086     1.007825032230
         H            0.174506214301    -0.230845503328     0.146672153914     1.007825032230
         H           -2.305323785699     0.301804496672     1.855602153914     1.007825032230
         H           -0.648883785699     0.733554496672     2.319342153914     1.007825032230
         H           -1.150703785699    -1.489545503328    -1.041237846086     1.007825032230
         H           -3.096583785699     1.326634496672    -0.071617846086     1.007825032230
         H           -4.499583785699     0.821384496672    -0.945997846086     1.007825032230
         H           -3.053663785699    -2.197495503328    -2.099267846086     1.007825032230
         H           -4.465013785699    -1.194365503328    -2.131287846086     1.007825032230
         H           -1.099263785699    -0.966055503328     2.094762153914     1.007825032230

  Running in c1 symmetry.

  Rotational constants: A =      0.05869  B =      0.01258  C =      0.01141 [cm^-1]
  Rotational constants: A =   1759.36214  B =    377.10860  C =    342.15057 [MHz]
  Nuclear repulsion =  617.642425070220611

  Charge       = 0
  Multiplicity = 1
  Electrons    = 88
  Nalpha       = 44
  Nbeta        = 44

  ==> Algorithm <==

  SCF Algorithm Type is PK.
  DIIS enabled.
  MOM disabled.
  Fractional occupation disabled.
  Guess Type is SAD.
  Energy threshold   = 1.00e-06
  Density threshold  = 1.00e-10
  Integral threshold = 0.00e+00

  ==> Primary Basis <==

  Basis Set: CC-PVDZ
    Blend: CC-PVDZ
    Number of shells: 111
    Number of basis function: 229
    Number of Cartesian functions: 240
    Spherical Harmonics?: true
    Max angular momentum: 2

  ==> Pre-Iterations <==

   -------------------------------------------------------
    Irrep   Nso     Nmo     Nalpha   Nbeta   Ndocc  Nsocc
   -------------------------------------------------------
     A        229     229       0       0       0       0
   -------------------------------------------------------
    Total     229     229      44      44      44       0
   -------------------------------------------------------

  ==> Integral Setup <==

  Using integral reordering PK algorithm.
  Sizing the integral batches needed.
  Building batch lookup table.
   Calculation information:
      Number of atoms:                  26
      Number of AO shells:             111
      Number of primitives:            317
      Number of atomic orbitals:       240
      Number of basis functions:       229

      Integral cutoff                 1.00e-12
      Number of threads:                 1

	Batch   1 pq = [       0,    9405] index = [             0,44231715] size =     44231715
	Batch   2 pq = [    9405,   13301] index = [      44231715,88464951] size =     44233236
	Batch   3 pq = [   13301,   16290] index = [      88464951,132690195] size =     44225244
	Batch   4 pq = [   16290,   18810] index = [     132690195,176917455] size =     44227260
	Batch   5 pq = [   18810,   21030] index = [     176917455,221140965] size =     44223510
	Batch   6 pq = [   21030,   23037] index = [     221140965,265363203] size =     44222238
	Batch   7 pq = [   23037,   24883] index = [     265363203,309594286] size =     44231083
	Batch   8 pq = [   24883,   26335] index = [     309594286,346779280] size =     37184994
  Task number: 32
  Buffer size: 11059200
  Buffer per thread: 2
  We computed 15683865 shell quartets total.
  Whereas there are 19322436 unique shell quartets.

  ==> DiskJK: Disk-Based J/K Matrices <==

    J tasked:                  Yes
    K tasked:                  Yes
    wK tasked:                  No
    Memory [MiB]:              375
    Schwarz Cutoff:          1E-12

    OpenMP threads:              1

  Minimum eigenvalue in the overlap matrix is 1.2166622128E-03.
  Using Symmetric Orthogonalization.

  SCF Guess: Superposition of Atomic Densities via on-the-fly atomic UHF.

  ==> Iterations <==

                        Total Energy        Delta E     RMS |[F,P]|

   @RHF iter SAD:  -547.59896711147860   -5.47599e+02   0.00000e+00
   @RHF iter   1:  -548.43250603055071   -8.33539e-01   3.85904e-03 DIIS
   @RHF iter   2:  -548.72555495810582   -2.93049e-01   2.39828e-03 DIIS
   @RHF iter   3:  -548.83887228889853   -1.13317e-01   4.98897e-04 DIIS
   @RHF iter   4:  -548.84614628099519   -7.27399e-03   1.95472e-04 DIIS
   @RHF iter   5:  -548.84742790214432   -1.28162e-03   4.68926e-05 DIIS
   @RHF iter   6:  -548.84751202730047   -8.41252e-05   1.94143e-05 DIIS
   @RHF iter   7:  -548.84753211927352   -2.00920e-05   7.06551e-06 DIIS
   @RHF iter   8:  -548.84753570749160   -3.58822e-06   2.74305e-06 DIIS
   @RHF iter   9:  -548.84753647448645   -7.66995e-07   1.28180e-06 DIIS
   @RHF iter  10:  -548.84753666007555   -1.85589e-07   4.28849e-07 DIIS
   @RHF iter  11:  -548.84753667820723   -1.81317e-08   1.13620e-07 DIIS
   @RHF iter  12:  -548.84753667930158   -1.09435e-09   3.12961e-08 DIIS
   @RHF iter  13:  -548.84753667937662   -7.50333e-11   1.12516e-08 DIIS
   @RHF iter  14:  -548.84753667938173   -5.11591e-12   4.04690e-09 DIIS
   @RHF iter  15:  -548.84753667938753   -5.79803e-12   1.85817e-09 DIIS
   @RHF iter  16:  -548.84753667938594    1.59162e-12   7.27766e-10 DIIS
   @RHF iter  17:  -548.84753667938685   -9.09495e-13   3.51291e-10 DIIS
   @RHF iter  18:  -548.84753667938810   -1.25056e-12   1.50455e-10 DIIS
   @RHF iter  19:  -548.84753667938605    2.04636e-12   7.05049e-11 DIIS
  Energy and wave function converged.

  ==> Post-Iterations <==

    Orbital Energies [Eh]
    ---------------------

    Doubly Occupied:

       1A    -20.393442     2A    -20.318143     3A    -15.697112
       4A    -15.694996     5A    -15.675677     6A    -11.496339
       7A    -11.308369     8A    -11.260697     9A    -11.228503
      10A    -11.197544    11A    -11.158629    12A     -1.437564
      13A     -1.296239    14A     -1.291887    15A     -1.240571
      16A     -1.074150    17A     -1.064760    18A     -0.998137
      19A     -0.964375    20A     -0.902267    21A     -0.872714
      22A     -0.862073    23A     -0.826809    24A     -0.763071
      25A     -0.757994    26A     -0.716654    27A     -0.680141
      28A     -0.646631    29A     -0.618002    30A     -0.594270
      31A     -0.577940    32A     -0.563277    33A     -0.541717
      34A     -0.534826    35A     -0.521908    36A     -0.512548
      37A     -0.473535    38A     -0.470249    39A     -0.456276
      40A     -0.372600    41A     -0.363117    42A     -0.270588
      43A     -0.230271    44A     -0.226473

    Virtual:

      45A      0.079097    46A      0.114293    47A      0.124273
      48A      0.132653    49A      0.160794    50A      0.180027
      51A      0.202749    52A      0.211010    53A      0.241683
      54A      0.243450    55A      0.263391    56A      0.276315
      57A      0.289258    58A      0.302474    59A      0.321958
      60A      0.334362    61A      0.338290    62A      0.349702
      63A      0.386169    64A      0.397656    65A      0.428536
      66A      0.437127    67A      0.476705    68A      0.546580
      69A      0.555608    70A      0.574219    71A      0.577425
      72A      0.595461    73A      0.605882    74A      0.619768
      75A      0.633876    76A      0.641897    77A      0.649403
      78A      0.656797    79A      0.670941    80A      0.694858
      81A      0.708747    82A      0.747681    83A      0.782890
      84A      0.800611    85A      0.810589    86A      0.822433
      87A      0.833759    88A      0.837224    89A      0.846919
      90A      0.854154    91A      0.864539    92A      0.866499
      93A      0.889271    94A      0.904389    95A      0.907447
      96A      0.924447    97A      0.931331    98A      0.936364
      99A      0.943497   100A      0.958534   101A      0.964660
     102A      0.973314   103A      0.981731   104A      1.002556
     105A      1.018873   106A      1.029786   107A      1.041699
     108A      1.058174   109A      1.084421   110A      1.089195
     111A      1.107910   112A      1.154540   113A      1.175477
     114A      1.197050   115A      1.209680   116A      1.233296
     117A      1.240545   118A      1.267402   119A      1.294207
     120A      1.303174   121A      1.308706   122A      1.333114
     123A      1.360829   124A      1.390221   125A      1.419111
     126A      1.421756   127A      1.434549   128A      1.463213
     129A      1.487395   130A      1.526069   131A      1.549675
     132A      1.552117   133A      1.578097   134A      1.584626
     135A      1.611323   136A      1.621377   137A      1.636182
     138A      1.646987   139A      1.683312   140A      1.699926
     141A      1.720682   142A      1.742813   143A      1.751723
     144A      1.755867   145A      1.775018   146A      1.795425
     147A      1.798209   148A      1.807414   149A      1.811471
     150A      1.848716   151A      1.869878   152A      1.876941
     153A      1.886215   154A      1.896411   155A      1.899780
     156A      1.913034   157A      1.946430   158A      1.948889
     159A      1.955605   160A      1.971957   161A      1.975668
     162A      1.993361   163A      2.004798   164A      2.023342
     165A      2.037633   166A      2.083033   167A      2.096955
     168A      2.106780   169A      2.116632   170A      2.131063
     171A      2.178076   172A      2.204716   173A      2.236137
     174A      2.251023   175A      2.286993   176A      2.291057
     177A      2.305599   178A      2.312368   179A      2.357574
     180A      2.360686   181A      2.370754   182A      2.397137
     183A      2.417585   184A      2.434984   185A      2.458888
     186A      2.460764   187A      2.469377   188A      2.479216
     189A      2.496878   190A      2.516308   191A      2.539949
     192A      2.555744   193A      2.569600   194A      2.630662
     195A      2.635284   196A      2.636251   197A      2.700733
     198A      2.726580   199A      2.739725   200A      2.751033
     201A      2.791526   202A      2.795293   203A      2.803913
     204A      2.836718   205A      2.889893   206A      2.893057
     207A      2.910016   208A      2.914702   209A      2.927702
     210A      2.971111   211A      2.981823   212A      3.028249
     213A      3.045289   214A      3.056727   215A      3.149015
     216A      3.157920   217A      3.167407   218A      3.194733
     219A      3.205498   220A      3.227879   221A      3.286735
     222A      3.491995   223A      3.548823   224A      3.654617
     225A      3.663523   226A      3.730160   227A      3.864310
     228A      3.993692   229A      4.016868

    Final Occupation by Irrep:
              A
    DOCC [    44 ]

  @RHF Final Energy:  -548.84753667938605

   => Energetics <=

    Nuclear Repulsion Energy =            617.6424250702206109
    One-Electron Energy =               -1974.6737548045864514
    Two-Electron Energy =                 808.1837930549799012
    Total Energy =                       -548.8475366793860530

Computation Completed

Properties will be evaluated at   0.000000,   0.000000,   0.000000 [a0]

Properties computed using the SCF density matrix

  Nuclear Dipole Moment: [e a0]
     X:    -5.5193      Y:     3.5395      Z:    10.1981

  Electronic Dipole Moment: [e a0]
     X:    -3.7312      Y:    -3.3495      Z:   -10.2423

  Dipole Moment: [e a0]
     X:    -9.2506      Y:     0.1900      Z:    -0.0443     Total:     9.2526

  Dipole Moment: [D]
     X:   -23.5126      Y:     0.4830      Z:    -0.1126     Total:    23.5179

*** tstop() called on ds3 at Sun Apr 26 22:44:45 2020
Module time:
	user time   =     116.19 seconds =       1.94 minutes
	system time =      54.77 seconds =       0.91 minutes
	total time  =        319 seconds =       5.32 minutes
Total time:
	user time   =     116.19 seconds =       1.94 minutes
	system time =      54.77 seconds =       0.91 minutes
	total time  =        319 seconds =       5.32 minutes
                                     G D M A

                                 by Anthony Stone

                           version 2.2.06, 22 June 2011

               Distributed Multipoles from Gaussian wavefunctions

Starting at 22:44:45 on 26 Apr 2020

Using SCF density matrix from file ./SSI/SSI-153ASP-156ARG-1-dimer.test.16571.fchk

                         Distributed Multipole Analysis

Standard DMA

Positions and radii in angstrom
Multipole moments in atomic units, ea_0^k for rank k

C          x =  2.744386  y =  0.741114  z =  1.143822 angstrom
           Maximum rank =  0   Radius =  0.650 angstrom
                   Q00  =  -0.212860

C          x =  3.373386  y =  0.987114  z =  2.498822 angstrom
           Maximum rank =  0   Radius =  0.650 angstrom
                   Q00  =  -0.020843

C          x =  2.615386  y =  0.305114  z = -0.124178 angstrom
           Maximum rank =  0   Radius =  0.650 angstrom
                   Q00  =   0.860037

O          x =  2.868386  y = -1.112886  z = -0.161178 angstrom
           Maximum rank =  0   Radius =  0.650 angstrom
                   Q00  =  -0.963862

O          x =  2.356386  y =  0.839114  z = -1.217178 angstrom
           Maximum rank =  0   Radius =  0.650 angstrom
                   Q00  =  -0.844056

H          x =  2.895976  y =  0.370184  z =  3.268272 angstrom
           Maximum rank =  0   Radius =  0.325 angstrom
                   Q00  =   0.076921

H          x =  3.296616  y =  2.033064  z =  2.816462 angstrom
           Maximum rank =  0   Radius =  0.325 angstrom
                   Q00  =   0.073648

H          x =  4.432396  y =  0.712024  z =  2.471902 angstrom
           Maximum rank =  0   Radius =  0.325 angstrom
                   Q00  =   0.100182

H          x =  1.703896  y =  0.584544  z =  1.469212 angstrom
           Maximum rank =  0   Radius =  0.325 angstrom
                   Q00  =  -0.008539

H          x =  2.745586  y =  1.808534  z =  0.844272 angstrom
           Maximum rank =  0   Radius =  0.325 angstrom
                   Q00  =  -0.075553

C          x = -0.842614  y =  0.132324  z =  0.257392 angstrom
           Maximum rank =  0   Radius =  0.650 angstrom
                   Q00  =   0.109102

C          x = -1.251174  y =  0.049134  z =  1.713972 angstrom
           Maximum rank =  0   Radius =  0.650 angstrom
                   Q00  =  -0.249005

C          x = -2.900934  y = -0.475056  z = -1.008878 angstrom
           Maximum rank =  0   Radius =  0.650 angstrom
                   Q00  =   1.062300

N          x = -1.658314  y = -0.725586  z = -0.607338 angstrom
           Maximum rank =  0   Radius =  0.650 angstrom
                   Q00  =  -0.495265

N          x = -3.561024  y =  0.626494  z = -0.637168 angstrom
           Maximum rank =  0   Radius =  0.650 angstrom
                   Q00  =  -0.579290

N          x = -3.524684  y = -1.350596  z = -1.803808 angstrom
           Maximum rank =  0   Radius =  0.650 angstrom
                   Q00  =  -0.592997

H          x = -0.871324  y =  1.159104  z = -0.121188 angstrom
           Maximum rank =  0   Radius =  0.325 angstrom
                   Q00  =   0.063989

H          x =  0.174506  y = -0.230846  z =  0.146672 angstrom
           Maximum rank =  0   Radius =  0.325 angstrom
                   Q00  =   0.117886

H          x = -2.305324  y =  0.301804  z =  1.855602 angstrom
           Maximum rank =  0   Radius =  0.325 angstrom
                   Q00  =   0.054461

H          x = -0.648884  y =  0.733554  z =  2.319342 angstrom
           Maximum rank =  0   Radius =  0.325 angstrom
                   Q00  =   0.123344

H          x = -1.150704  y = -1.489546  z = -1.041238 angstrom
           Maximum rank =  0   Radius =  0.325 angstrom
                   Q00  =   0.255147

H          x = -3.096584  y =  1.326634  z = -0.071618 angstrom
           Maximum rank =  0   Radius =  0.325 angstrom
                   Q00  =   0.269732

H          x = -4.499584  y =  0.821384  z = -0.945998 angstrom
           Maximum rank =  0   Radius =  0.325 angstrom
                   Q00  =   0.253114

H          x = -3.053664  y = -2.197496  z = -2.099268 angstrom
           Maximum rank =  0   Radius =  0.325 angstrom
                   Q00  =   0.261472

H          x = -4.465014  y = -1.194366  z = -2.131288 angstrom
           Maximum rank =  0   Radius =  0.325 angstrom
                   Q00  =   0.248768

H          x = -1.099264  y = -0.966056  z =  2.094762 angstrom
           Maximum rank =  0   Radius =  0.325 angstrom
                   Q00  =   0.112165

Total multipoles referred to origin at
           x =   0.000000,  y =    0.000000,  z =    0.000000 angstrom
                   Q00  =  -0.000000

Finished at 22:44:45 on 26 Apr 2020

  DMA results are available in the Python driver through the
	  variable('DMA DISTRIBUTED MULTIPOLES')
  and
	  variable('DMA TOTAL MULTIPOLES')
  commands.

    Psi4 stopped on: Sunday, 26 April 2020 10:44PM
    Psi4 wall time for execution: 0:05:18.83

*** Psi4 exiting successfully. Buy a developer a beer!
