                               Psi4 1.3.2 release

  ==> Input File <==

--------------------------------------------------------------------------
import numpy as np
set {scf_type pk
basis cc-pvdz
d_convergence 10
gdma_switch   0
gdma_limit    0
gdma_origin   [ 0.0,  0.0,  0.0 ]
}
molecule test {
    units Angstrom
    0 1
    --
    0 1
    C               -1.394359790474321     1.526947121217007     2.064351942900522
    C               -0.321359790474322     0.205947121217007     0.231351942900523
    C               -0.191359790474321     0.870947121217007     1.429351942900522
    C                0.791640209525679    -0.432052878782993    -0.358648057099477
    C                2.035640209525678    -0.387052878782993     0.265351942900523
    C                1.052640209525678     0.900947121217007     2.057351942900522
    C                2.169640209525679     0.269947121217007     1.473351942900523
    H               -1.288359790474322     0.153947121217007    -0.246648057099477
    H                0.676640209525678    -0.992052878782993    -1.268648057099478
    H               -1.919359790474322     2.104947121217007     1.303351942900522
    H               -1.051359790474321     2.227947121217007     2.825351942900523
    H                2.885640209525679    -0.889052878782993    -0.178648057099477
    H                1.165640209525678     1.405947121217007     3.005351942900523
    H                3.115640209525679     0.249947121217007     1.983351942900522
    H               -2.093809790474321     0.808105121217007     2.516051942900523
    C               -2.070359790474322    -0.690052878782993    -3.078648057099477
    C               -1.338359790474322    -2.016052878782993    -3.310648057099477
    H               -3.010359790474321    -0.860052878782993    -2.551648057099477
    H               -1.456359790474322    -0.018052878782993    -2.481648057099477
    H               -2.280359790474321    -0.203052878782993    -4.032648057099477
    H               -1.225359790474322    -2.531052878782993    -2.356648057099477
    H               -1.915859790474322    -2.637369178782993    -4.010978057099478
    H               -0.339149790474322    -1.791194878782993    -3.711918057099477

}
e, wfn = energy('scf', return_wfn=True)
gdma(wfn)
dmavals = variable('DMA DISTRIBUTED MULTIPOLES')
charges = np.array(dmavals)
print(charges)
np.save('SSI-061PHE-086VAL-1-dimer.npy', np.array(charges))--------------------------------------------------------------------------

*** tstart() called on ds3
*** at Tue Apr 28 22:05:29 2020

   => Loading Basis Set <=

    Name: CC-PVDZ
    Role: ORBITAL
    Keyword: BASIS
    atoms 1-7, 16-17  entry C          line   138 file /theoryfs2/ds/metcalf/miniconda2/envs/tf2gpu/share/psi4/basis/cc-pvdz.gbs
    atoms 8-15, 18-23 entry H          line    22 file /theoryfs2/ds/metcalf/miniconda2/envs/tf2gpu/share/psi4/basis/cc-pvdz.gbs

         ---------------------------------------------------------
                                   SCF
               by Justin Turney, Rob Parrish, Andy Simmonett
                          and Daniel G. A. Smith
                              RHF Reference
                        1 Threads,    500 MiB Core
         ---------------------------------------------------------

  ==> Geometry <==

    Molecular point group: c1
    Full point group: C1

    Geometry (in Angstrom), charge = 0, multiplicity = 1:

       Center              X                  Y                   Z               Mass
    ------------   -----------------  -----------------  -----------------  -----------------
         C           -1.394359790474     1.526947121217     2.064351942901    12.000000000000
         C           -0.321359790474     0.205947121217     0.231351942901    12.000000000000
         C           -0.191359790474     0.870947121217     1.429351942901    12.000000000000
         C            0.791640209526    -0.432052878783    -0.358648057099    12.000000000000
         C            2.035640209526    -0.387052878783     0.265351942901    12.000000000000
         C            1.052640209526     0.900947121217     2.057351942901    12.000000000000
         C            2.169640209526     0.269947121217     1.473351942901    12.000000000000
         H           -1.288359790474     0.153947121217    -0.246648057099     1.007825032230
         H            0.676640209526    -0.992052878783    -1.268648057099     1.007825032230
         H           -1.919359790474     2.104947121217     1.303351942901     1.007825032230
         H           -1.051359790474     2.227947121217     2.825351942901     1.007825032230
         H            2.885640209526    -0.889052878783    -0.178648057099     1.007825032230
         H            1.165640209526     1.405947121217     3.005351942901     1.007825032230
         H            3.115640209526     0.249947121217     1.983351942901     1.007825032230
         H           -2.093809790474     0.808105121217     2.516051942901     1.007825032230
         C           -2.070359790474    -0.690052878783    -3.078648057099    12.000000000000
         C           -1.338359790474    -2.016052878783    -3.310648057099    12.000000000000
         H           -3.010359790474    -0.860052878783    -2.551648057099     1.007825032230
         H           -1.456359790474    -0.018052878783    -2.481648057099     1.007825032230
         H           -2.280359790474    -0.203052878783    -4.032648057099     1.007825032230
         H           -1.225359790474    -2.531052878783    -2.356648057099     1.007825032230
         H           -1.915859790474    -2.637369178783    -4.010978057099     1.007825032230
         H           -0.339149790474    -1.791194878783    -3.711918057099     1.007825032230

  Running in c1 symmetry.

  Rotational constants: A =      0.07597  B =      0.02405  C =      0.01868 [cm^-1]
  Rotational constants: A =   2277.64721  B =    721.10593  C =    560.10190 [MHz]
  Nuclear repulsion =  403.967820426286607

  Charge       = 0
  Multiplicity = 1
  Electrons    = 68
  Nalpha       = 34
  Nbeta        = 34

  ==> Algorithm <==

  SCF Algorithm Type is PK.
  DIIS enabled.
  MOM disabled.
  Fractional occupation disabled.
  Guess Type is SAD.
  Energy threshold   = 1.00e-06
  Density threshold  = 1.00e-10
  Integral threshold = 0.00e+00

  ==> Primary Basis <==

  Basis Set: CC-PVDZ
    Blend: CC-PVDZ
    Number of shells: 96
    Number of basis function: 196
    Number of Cartesian functions: 205
    Spherical Harmonics?: true
    Max angular momentum: 2

  ==> Pre-Iterations <==

   -------------------------------------------------------
    Irrep   Nso     Nmo     Nalpha   Nbeta   Ndocc  Nsocc
   -------------------------------------------------------
     A        196     196       0       0       0       0
   -------------------------------------------------------
    Total     196     196      34      34      34       0
   -------------------------------------------------------

  ==> Integral Setup <==

  Using integral reordering PK algorithm.
  Sizing the integral batches needed.
  Building batch lookup table.
   Calculation information:
      Number of atoms:                  23
      Number of AO shells:              96
      Number of primitives:            268
      Number of atomic orbitals:       205
      Number of basis functions:       196

      Integral cutoff                 1.00e-12
      Number of threads:                 1

	Batch   1 pq = [       0,    9405] index = [             0,44231715] size =     44231715
	Batch   2 pq = [    9405,   13301] index = [      44231715,88464951] size =     44233236
	Batch   3 pq = [   13301,   16290] index = [      88464951,132690195] size =     44225244
	Batch   4 pq = [   16290,   18810] index = [     132690195,176917455] size =     44227260
	Batch   5 pq = [   18810,   19306] index = [     176917455,186370471] size =      9453016
  Task number: 17
  Buffer size: 11059200
  Buffer per thread: 2
  We computed 9137046 shell quartets total.
  Whereas there are 10841496 unique shell quartets.

  ==> DiskJK: Disk-Based J/K Matrices <==

    J tasked:                  Yes
    K tasked:                  Yes
    wK tasked:                  No
    Memory [MiB]:              375
    Schwarz Cutoff:          1E-12

    OpenMP threads:              1

  Minimum eigenvalue in the overlap matrix is 3.0260917092E-04.
  Using Symmetric Orthogonalization.

  SCF Guess: Superposition of Atomic Densities via on-the-fly atomic UHF.

  ==> Iterations <==

                        Total Energy        Delta E     RMS |[F,P]|

   @RHF iter SAD:  -347.86262599338971   -3.47863e+02   0.00000e+00
   @RHF iter   1:  -348.76812799252207   -9.05502e-01   2.87537e-03 DIIS
   @RHF iter   2:  -348.95926607072465   -1.91138e-01   1.18356e-03 DIIS
   @RHF iter   3:  -348.98872664260728   -2.94606e-02   2.58571e-04 DIIS
   @RHF iter   4:  -348.99119450966077   -2.46787e-03   5.45004e-05 DIIS
   @RHF iter   5:  -348.99127055092328   -7.60413e-05   1.88189e-05 DIIS
   @RHF iter   6:  -348.99127913347240   -8.58255e-06   4.85220e-06 DIIS
   @RHF iter   7:  -348.99127980125866   -6.67786e-07   1.18615e-06 DIIS
   @RHF iter   8:  -348.99127984634947   -4.50908e-08   2.74300e-07 DIIS
   @RHF iter   9:  -348.99127985036250   -4.01303e-09   1.02768e-07 DIIS
   @RHF iter  10:  -348.99127985106276   -7.00254e-10   4.51626e-08 DIIS
   @RHF iter  11:  -348.99127985128985   -2.27089e-10   1.67829e-08 DIIS
   @RHF iter  12:  -348.99127985133191   -4.20641e-11   7.39969e-09 DIIS
   @RHF iter  13:  -348.99127985133526   -3.35376e-12   3.12401e-09 DIIS
   @RHF iter  14:  -348.99127985133674   -1.47793e-12   6.76444e-10 DIIS
   @RHF iter  15:  -348.99127985133686   -1.13687e-13   2.84692e-10 DIIS
   @RHF iter  16:  -348.99127985133651    3.41061e-13   8.14925e-11 DIIS
  Energy and wave function converged.

  ==> Post-Iterations <==

    Orbital Energies [Eh]
    ---------------------

    Doubly Occupied:

       1A    -11.238475     2A    -11.236462     3A    -11.235318
       4A    -11.232014     5A    -11.230380     6A    -11.229689
       7A    -11.229364     8A    -11.222392     9A    -11.218565
      10A     -1.151541    11A     -1.046054    12A     -1.020528
      13A     -1.006001    14A     -0.931458    15A     -0.838993
      16A     -0.828500    17A     -0.792253    18A     -0.690896
      19A     -0.632002    20A     -0.629891    21A     -0.604232
      22A     -0.600229    23A     -0.576874    24A     -0.576282
      25A     -0.563908    26A     -0.534796    27A     -0.500111
      28A     -0.493491    29A     -0.488184    30A     -0.485974
      31A     -0.482941    32A     -0.478525    33A     -0.328159
      34A     -0.324705

    Virtual:

      35A      0.132834    36A      0.141815    37A      0.173482
      38A      0.193959    39A      0.203747    40A      0.226038
      41A      0.233567    42A      0.246767    43A      0.253204
      44A      0.258324    45A      0.267953    46A      0.279215
      47A      0.283328    48A      0.295470    49A      0.306689
      50A      0.324100    51A      0.366202    52A      0.388472
      53A      0.390623    54A      0.451863    55A      0.462395
      56A      0.480873    57A      0.498833    58A      0.561895
      59A      0.591993    60A      0.604609    61A      0.604915
      62A      0.630054    63A      0.643968    64A      0.676503
      65A      0.684771    66A      0.696455    67A      0.708991
      68A      0.724905    69A      0.738785    70A      0.742940
      71A      0.747709    72A      0.749996    73A      0.765765
      74A      0.779771    75A      0.783795    76A      0.796941
      77A      0.829338    78A      0.837927    79A      0.856092
      80A      0.862957    81A      0.876998    82A      0.884851
      83A      0.886518    84A      0.896765    85A      0.900937
      86A      0.910612    87A      0.914893    88A      0.927449
      89A      0.939253    90A      0.941691    91A      0.948109
      92A      0.973967    93A      0.990175    94A      1.006221
      95A      1.047259    96A      1.053440    97A      1.121455
      98A      1.127237    99A      1.133172   100A      1.153598
     101A      1.159364   102A      1.170305   103A      1.198712
     104A      1.227321   105A      1.246142   106A      1.256142
     107A      1.263785   108A      1.274836   109A      1.299786
     110A      1.322298   111A      1.331232   112A      1.331803
     113A      1.415089   114A      1.472761   115A      1.484113
     116A      1.518906   117A      1.529971   118A      1.556821
     119A      1.588271   120A      1.618170   121A      1.668791
     122A      1.675482   123A      1.691802   124A      1.717723
     125A      1.733090   126A      1.745450   127A      1.760639
     128A      1.791444   129A      1.809146   130A      1.854407
     131A      1.873885   132A      1.877981   133A      1.881948
     134A      1.890957   135A      1.903083   136A      1.905426
     137A      1.922194   138A      1.924888   139A      1.937359
     140A      1.946516   141A      1.949551   142A      1.954259
     143A      1.965286   144A      1.973385   145A      1.974828
     146A      1.985609   147A      1.990122   148A      2.003284
     149A      2.042736   150A      2.060006   151A      2.080432
     152A      2.103299   153A      2.107692   154A      2.118218
     155A      2.131577   156A      2.156023   157A      2.175041
     158A      2.197625   159A      2.205771   160A      2.255277
     161A      2.277173   162A      2.285725   163A      2.295233
     164A      2.300774   165A      2.324619   166A      2.331209
     167A      2.341440   168A      2.452415   169A      2.458679
     170A      2.463074   171A      2.478523   172A      2.514248
     173A      2.535146   174A      2.576455   175A      2.580963
     176A      2.627735   177A      2.743805   178A      2.761278
     179A      2.766570   180A      2.773423   181A      2.786053
     182A      2.797125   183A      2.825183   184A      2.839875
     185A      2.844263   186A      2.859019   187A      2.878275
     188A      2.948076   189A      2.971662   190A      2.980707
     191A      3.008125   192A      3.037447   193A      3.156517
     194A      3.200062   195A      3.304789   196A      3.962264

    Final Occupation by Irrep:
              A
    DOCC [    34 ]

  @RHF Final Energy:  -348.99127985133651

   => Energetics <=

    Nuclear Repulsion Energy =            403.9678204262866075
    One-Electron Energy =               -1270.5598280591880211
    Two-Electron Energy =                 517.6007277815649559
    Total Energy =                       -348.9912798513364578

Computation Completed

Properties will be evaluated at   0.000000,   0.000000,   0.000000 [a0]

Properties computed using the SCF density matrix

  Nuclear Dipole Moment: [e a0]
     X:    -8.1905      Y:    -2.7853      Z:    -8.6303

  Electronic Dipole Moment: [e a0]
     X:     8.0832      Y:     2.8036      Z:     8.6948

  Dipole Moment: [e a0]
     X:    -0.1073      Y:     0.0184      Z:     0.0645     Total:     0.1265

  Dipole Moment: [D]
     X:    -0.2727      Y:     0.0467      Z:     0.1639     Total:     0.3215

*** tstop() called on ds3 at Tue Apr 28 22:07:46 2020
Module time:
	user time   =      62.67 seconds =       1.04 minutes
	system time =      24.66 seconds =       0.41 minutes
	total time  =        137 seconds =       2.28 minutes
Total time:
	user time   =      62.67 seconds =       1.04 minutes
	system time =      24.66 seconds =       0.41 minutes
	total time  =        137 seconds =       2.28 minutes
                                     G D M A

                                 by Anthony Stone

                           version 2.2.06, 22 June 2011

               Distributed Multipoles from Gaussian wavefunctions

Starting at 22:7:46 on 28 Apr 2020

Using SCF density matrix from file ./SSI/SSI-061PHE-086VAL-1-dimer.test.12471.fchk

                         Distributed Multipole Analysis

Standard DMA

Positions and radii in angstrom
Multipole moments in atomic units, ea_0^k for rank k

C          x = -1.394360  y =  1.526947  z =  2.064352 angstrom
           Maximum rank =  0   Radius =  0.650 angstrom
                   Q00  =  -0.210388

C          x = -0.321360  y =  0.205947  z =  0.231352 angstrom
           Maximum rank =  0   Radius =  0.650 angstrom
                   Q00  =  -0.098270

C          x = -0.191360  y =  0.870947  z =  1.429352 angstrom
           Maximum rank =  0   Radius =  0.650 angstrom
                   Q00  =  -0.090589

C          x =  0.791640  y = -0.432053  z = -0.358648 angstrom
           Maximum rank =  0   Radius =  0.650 angstrom
                   Q00  =  -0.063645

C          x =  2.035640  y = -0.387053  z =  0.265352 angstrom
           Maximum rank =  0   Radius =  0.650 angstrom
                   Q00  =  -0.073720

C          x =  1.052640  y =  0.900947  z =  2.057352 angstrom
           Maximum rank =  0   Radius =  0.650 angstrom
                   Q00  =   0.004812

C          x =  2.169640  y =  0.269947  z =  1.473352 angstrom
           Maximum rank =  0   Radius =  0.650 angstrom
                   Q00  =  -0.077205

H          x = -1.288360  y =  0.153947  z = -0.246648 angstrom
           Maximum rank =  0   Radius =  0.325 angstrom
                   Q00  =   0.056738

H          x =  0.676640  y = -0.992053  z = -1.268648 angstrom
           Maximum rank =  0   Radius =  0.325 angstrom
                   Q00  =   0.066439

H          x = -1.919360  y =  2.104947  z =  1.303352 angstrom
           Maximum rank =  0   Radius =  0.325 angstrom
                   Q00  =   0.099847

H          x = -1.051360  y =  2.227947  z =  2.825352 angstrom
           Maximum rank =  0   Radius =  0.325 angstrom
                   Q00  =   0.097636

H          x =  2.885640  y = -0.889053  z = -0.178648 angstrom
           Maximum rank =  0   Radius =  0.325 angstrom
                   Q00  =   0.059963

H          x =  1.165640  y =  1.405947  z =  3.005352 angstrom
           Maximum rank =  0   Radius =  0.325 angstrom
                   Q00  =   0.059729

H          x =  3.115640  y =  0.249947  z =  1.983352 angstrom
           Maximum rank =  0   Radius =  0.325 angstrom
                   Q00  =   0.065792

H          x = -2.093810  y =  0.808105  z =  2.516052 angstrom
           Maximum rank =  0   Radius =  0.325 angstrom
                   Q00  =   0.105069

C          x = -2.070360  y = -0.690053  z = -3.078648 angstrom
           Maximum rank =  0   Radius =  0.650 angstrom
                   Q00  =  -0.240995

C          x = -1.338360  y = -2.016053  z = -3.310648 angstrom
           Maximum rank =  0   Radius =  0.650 angstrom
                   Q00  =  -0.239065

H          x = -3.010360  y = -0.860053  z = -2.551648 angstrom
           Maximum rank =  0   Radius =  0.325 angstrom
                   Q00  =   0.077891

H          x = -1.456360  y = -0.018053  z = -2.481648 angstrom
           Maximum rank =  0   Radius =  0.325 angstrom
                   Q00  =   0.079406

H          x = -2.280360  y = -0.203053  z = -4.032648 angstrom
           Maximum rank =  0   Radius =  0.325 angstrom
                   Q00  =   0.080653

H          x = -1.225360  y = -2.531053  z = -2.356648 angstrom
           Maximum rank =  0   Radius =  0.325 angstrom
                   Q00  =   0.079992

H          x = -1.915860  y = -2.637369  z = -4.010978 angstrom
           Maximum rank =  0   Radius =  0.325 angstrom
                   Q00  =   0.083185

H          x = -0.339150  y = -1.791195  z = -3.711918 angstrom
           Maximum rank =  0   Radius =  0.325 angstrom
                   Q00  =   0.076727

Total multipoles referred to origin at
           x =   0.000000,  y =    0.000000,  z =    0.000000 angstrom
                   Q00  =  -0.000000

Finished at 22:7:46 on 28 Apr 2020

  DMA results are available in the Python driver through the
	  variable('DMA DISTRIBUTED MULTIPOLES')
  and
	  variable('DMA TOTAL MULTIPOLES')
  commands.

    Psi4 stopped on: Tuesday, 28 April 2020 10:07PM
    Psi4 wall time for execution: 0:02:17.31

*** Psi4 exiting successfully. Buy a developer a beer!
