                               Psi4 1.3.2 release

  ==> Input File <==

--------------------------------------------------------------------------
import numpy as np
set {scf_type pk
basis cc-pvdz
d_convergence 10
gdma_switch   0
gdma_limit    0
gdma_origin   [ 0.0,  0.0,  0.0 ]
}
molecule test {
    units Angstrom
    0 1
    --
    0 1
    C                0.013309326419868    -1.135906313504604    -4.110006964153724
    C                0.769309326419867    -0.501906313504604    -0.451006964153724
    C                2.075309326419868    -0.968906313504604    -0.338006964153724
    C                0.112309326419868    -0.552906313504604    -1.678006964153724
    C                0.754309326419867    -1.057906313504604    -2.807006964153724
    C                2.718309326419867    -1.494906313504604    -1.456006964153724
    C                2.055309326419867    -1.543906313504604    -2.686006964153724
    H                0.241309326419868    -0.154906313504604     0.416993035846276
    H                2.576309326419867    -0.950906313504604     0.620993035846276
    H               -0.910690673580132    -0.225906313504604    -1.737006964153724
    H                3.711309326419867    -1.897906313504604    -1.368006964153724
    H               -0.966690673580132    -0.669906313504604    -3.991006964153724
    H               -0.157690673580132    -2.192906313504604    -4.327006964153723
    H                2.558309326419868    -1.950906313504604    -3.548006964153724
    H                0.520380326419868    -0.681116313504604    -4.973746964153723
    C               -3.079690673580133     1.901093686495396     1.065993035846276
    C                0.154309326419868     1.202093686495396     2.561993035846276
    C               -1.917690673580132     1.356093686495396     1.841993035846276
    C               -1.883690673580132     0.411093686495396     2.816993035846276
    N               -0.636690673580133     1.846093686495396     1.715993035846276
    N               -0.574690673580132     0.325093686495396     3.241993035846276
    H                1.219309326419868     1.361093686495396     2.680993035846275
    H               -0.214690673580132    -0.301906313504604     3.953993035846275
    H               -2.726690673580133    -0.155906313504604     3.183993035846275
    H               -3.798690673580133     1.096093686495396     0.913993035846276
    H               -2.740690673580132     2.228093686495396     0.084993035846276
    H               -3.571522673580132     2.739083686495396     1.581623035846276

}
e, wfn = energy('scf', return_wfn=True)
gdma(wfn)
dmavals = variable('DMA DISTRIBUTED MULTIPOLES')
charges = np.array(dmavals)
print(charges)
np.save('SSI-117PHE-130HIE-1-dimer.npy', np.array(charges))--------------------------------------------------------------------------

*** tstart() called on ds3
*** at Tue Apr 28 20:12:16 2020

   => Loading Basis Set <=

    Name: CC-PVDZ
    Role: ORBITAL
    Keyword: BASIS
    atoms 1-7, 16-19  entry C          line   138 file /theoryfs2/ds/metcalf/miniconda2/envs/tf2gpu/share/psi4/basis/cc-pvdz.gbs
    atoms 8-15, 22-27 entry H          line    22 file /theoryfs2/ds/metcalf/miniconda2/envs/tf2gpu/share/psi4/basis/cc-pvdz.gbs
    atoms 20-21       entry N          line   168 file /theoryfs2/ds/metcalf/miniconda2/envs/tf2gpu/share/psi4/basis/cc-pvdz.gbs

         ---------------------------------------------------------
                                   SCF
               by Justin Turney, Rob Parrish, Andy Simmonett
                          and Daniel G. A. Smith
                              RHF Reference
                        1 Threads,    500 MiB Core
         ---------------------------------------------------------

  ==> Geometry <==

    Molecular point group: c1
    Full point group: C1

    Geometry (in Angstrom), charge = 0, multiplicity = 1:

       Center              X                  Y                   Z               Mass
    ------------   -----------------  -----------------  -----------------  -----------------
         C            0.013309326420    -1.135906313505    -4.110006964154    12.000000000000
         C            0.769309326420    -0.501906313505    -0.451006964154    12.000000000000
         C            2.075309326420    -0.968906313505    -0.338006964154    12.000000000000
         C            0.112309326420    -0.552906313505    -1.678006964154    12.000000000000
         C            0.754309326420    -1.057906313505    -2.807006964154    12.000000000000
         C            2.718309326420    -1.494906313505    -1.456006964154    12.000000000000
         C            2.055309326420    -1.543906313505    -2.686006964154    12.000000000000
         H            0.241309326420    -0.154906313505     0.416993035846     1.007825032230
         H            2.576309326420    -0.950906313505     0.620993035846     1.007825032230
         H           -0.910690673580    -0.225906313505    -1.737006964154     1.007825032230
         H            3.711309326420    -1.897906313505    -1.368006964154     1.007825032230
         H           -0.966690673580    -0.669906313505    -3.991006964154     1.007825032230
         H           -0.157690673580    -2.192906313505    -4.327006964154     1.007825032230
         H            2.558309326420    -1.950906313505    -3.548006964154     1.007825032230
         H            0.520380326420    -0.681116313505    -4.973746964154     1.007825032230
         C           -3.079690673580     1.901093686495     1.065993035846    12.000000000000
         C            0.154309326420     1.202093686495     2.561993035846    12.000000000000
         C           -1.917690673580     1.356093686495     1.841993035846    12.000000000000
         C           -1.883690673580     0.411093686495     2.816993035846    12.000000000000
         N           -0.636690673580     1.846093686495     1.715993035846    14.003074004430
         N           -0.574690673580     0.325093686495     3.241993035846    14.003074004430
         H            1.219309326420     1.361093686495     2.680993035846     1.007825032230
         H           -0.214690673580    -0.301906313505     3.953993035846     1.007825032230
         H           -2.726690673580    -0.155906313505     3.183993035846     1.007825032230
         H           -3.798690673580     1.096093686495     0.913993035846     1.007825032230
         H           -2.740690673580     2.228093686495     0.084993035846     1.007825032230
         H           -3.571522673580     2.739083686495     1.581623035846     1.007825032230

  Running in c1 symmetry.

  Rotational constants: A =      0.04657  B =      0.01188  C =      0.00999 [cm^-1]
  Rotational constants: A =   1396.13342  B =    356.09266  C =    299.58547 [MHz]
  Nuclear repulsion =  706.961258214530176

  Charge       = 0
  Multiplicity = 1
  Electrons    = 94
  Nalpha       = 47
  Nbeta        = 47

  ==> Algorithm <==

  SCF Algorithm Type is PK.
  DIIS enabled.
  MOM disabled.
  Fractional occupation disabled.
  Guess Type is SAD.
  Energy threshold   = 1.00e-06
  Density threshold  = 1.00e-10
  Integral threshold = 0.00e+00

  ==> Primary Basis <==

  Basis Set: CC-PVDZ
    Blend: CC-PVDZ
    Number of shells: 120
    Number of basis function: 252
    Number of Cartesian functions: 265
    Spherical Harmonics?: true
    Max angular momentum: 2

  ==> Pre-Iterations <==

   -------------------------------------------------------
    Irrep   Nso     Nmo     Nalpha   Nbeta   Ndocc  Nsocc
   -------------------------------------------------------
     A        252     252       0       0       0       0
   -------------------------------------------------------
    Total     252     252      47      47      47       0
   -------------------------------------------------------

  ==> Integral Setup <==

  Using integral reordering PK algorithm.
  Sizing the integral batches needed.
  Building batch lookup table.
   Calculation information:
      Number of atoms:                  27
      Number of AO shells:             120
      Number of primitives:            356
      Number of atomic orbitals:       265
      Number of basis functions:       252

      Integral cutoff                 1.00e-12
      Number of threads:                 1

	Batch   1 pq = [       0,    9405] index = [             0,44231715] size =     44231715
	Batch   2 pq = [    9405,   13301] index = [      44231715,88464951] size =     44233236
	Batch   3 pq = [   13301,   16290] index = [      88464951,132690195] size =     44225244
	Batch   4 pq = [   16290,   18810] index = [     132690195,176917455] size =     44227260
	Batch   5 pq = [   18810,   21030] index = [     176917455,221140965] size =     44223510
	Batch   6 pq = [   21030,   23037] index = [     221140965,265363203] size =     44222238
	Batch   7 pq = [   23037,   24883] index = [     265363203,309594286] size =     44231083
	Batch   8 pq = [   24883,   26601] index = [     309594286,353819901] size =     44225615
	Batch   9 pq = [   26601,   28214] index = [     353819901,398029005] size =     44209104
	Batch  10 pq = [   28214,   29740] index = [     398029005,442248670] size =     44219665
	Batch  11 pq = [   29740,   31191] index = [     442248670,486454836] size =     44206166
	Batch  12 pq = [   31191,   31878] index = [     486454836,508119381] size =     21664545
  Task number: 46
  Buffer size: 11059200
  Buffer per thread: 2
  We computed 23348123 shell quartets total.
  Whereas there are 26357430 unique shell quartets.

  ==> DiskJK: Disk-Based J/K Matrices <==

    J tasked:                  Yes
    K tasked:                  Yes
    wK tasked:                  No
    Memory [MiB]:              375
    Schwarz Cutoff:          1E-12

    OpenMP threads:              1

  Minimum eigenvalue in the overlap matrix is 3.0247068122E-04.
  Using Symmetric Orthogonalization.

  SCF Guess: Superposition of Atomic Densities via on-the-fly atomic UHF.

  ==> Iterations <==

                        Total Energy        Delta E     RMS |[F,P]|

   @RHF iter SAD:  -532.75622590459716   -5.32756e+02   0.00000e+00
   @RHF iter   1:  -533.34647911578861   -5.90253e-01   2.56012e-03 DIIS
   @RHF iter   2:  -533.57759252983624   -2.31113e-01   1.23814e-03 DIIS
   @RHF iter   3:  -533.62441695060738   -4.68244e-02   3.40507e-04 DIIS
   @RHF iter   4:  -533.62886951297128   -4.45256e-03   1.38526e-04 DIIS
   @RHF iter   5:  -533.62954450872348   -6.74996e-04   2.00050e-05 DIIS
   @RHF iter   6:  -533.62956803916995   -2.35304e-05   8.30565e-06 DIIS
   @RHF iter   7:  -533.62957199039261   -3.95122e-06   2.81904e-06 DIIS
   @RHF iter   8:  -533.62957278721012   -7.96818e-07   1.17761e-06 DIIS
   @RHF iter   9:  -533.62957296510820   -1.77898e-07   4.59548e-07 DIIS
   @RHF iter  10:  -533.62957298870356   -2.35954e-08   1.51101e-07 DIIS
   @RHF iter  11:  -533.62957299189975   -3.19619e-09   6.44270e-08 DIIS
   @RHF iter  12:  -533.62957299229993   -4.00178e-10   2.80151e-08 DIIS
   @RHF iter  13:  -533.62957299238974   -8.98126e-11   1.03391e-08 DIIS
   @RHF iter  14:  -533.62957299240611   -1.63709e-11   4.43909e-09 DIIS
   @RHF iter  15:  -533.62957299240441    1.70530e-12   1.98879e-09 DIIS
   @RHF iter  16:  -533.62957299240816   -3.75167e-12   7.65043e-10 DIIS
   @RHF iter  17:  -533.62957299240691    1.25056e-12   3.28384e-10 DIIS
   @RHF iter  18:  -533.62957299240441    2.50111e-12   1.21312e-10 DIIS
   @RHF iter  19:  -533.62957299240782   -3.41061e-12   4.85333e-11 DIIS
  Energy and wave function converged.

  ==> Post-Iterations <==

    Orbital Energies [Eh]
    ---------------------

    Doubly Occupied:

       1A    -15.625474     2A    -15.530578     3A    -11.295195
       4A    -11.254174     5A    -11.244920     6A    -11.232659
       7A    -11.228808     8A    -11.226226     9A    -11.223159
      10A    -11.223124    11A    -11.222354    12A    -11.220983
      13A    -11.218891    14A     -1.346329    15A     -1.157694
      16A     -1.143267    17A     -1.037100    18A     -1.034792
      19A     -1.001650    20A     -0.944381    21A     -0.923749
      22A     -0.821537    23A     -0.816755    24A     -0.786991
      25A     -0.765594    26A     -0.744834    27A     -0.683394
      28A     -0.626820    29A     -0.622174    30A     -0.613355
      31A     -0.606845    32A     -0.600314    33A     -0.572249
      34A     -0.569031    35A     -0.557390    36A     -0.555136
      37A     -0.544239    38A     -0.527623    39A     -0.523217
      40A     -0.478928    41A     -0.476409    42A     -0.472387
      43A     -0.412866    44A     -0.382074    45A     -0.322066
      46A     -0.314872    47A     -0.311932

    Virtual:

      48A      0.144205    49A      0.150295    50A      0.165736
      51A      0.179148    52A      0.184295    53A      0.197510
      54A      0.207550    55A      0.221227    56A      0.223647
      57A      0.227099    58A      0.249878    59A      0.262382
      60A      0.273446    61A      0.275547    62A      0.280304
      63A      0.291429    64A      0.301799    65A      0.330229
      66A      0.372188    67A      0.378147    68A      0.385501
      69A      0.390866    70A      0.420574    71A      0.458195
      72A      0.466963    73A      0.478129    74A      0.482544
      75A      0.509995    76A      0.530970    77A      0.573069
      78A      0.595723    79A      0.602416    80A      0.625260
      81A      0.631826    82A      0.654973    83A      0.663378
      84A      0.674974    85A      0.695134    86A      0.701939
      87A      0.710272    88A      0.722231    89A      0.732407
      90A      0.736370    91A      0.746785    92A      0.750758
      93A      0.752231    94A      0.756902    95A      0.765575
      96A      0.777264    97A      0.784297    98A      0.800446
      99A      0.814257   100A      0.823925   101A      0.834998
     102A      0.849693   103A      0.857378   104A      0.870790
     105A      0.876362   106A      0.880652   107A      0.890739
     108A      0.893813   109A      0.903181   110A      0.905313
     111A      0.917465   112A      0.930856   113A      0.933715
     114A      0.946026   115A      0.960682   116A      0.964497
     117A      0.968016   118A      0.987900   119A      1.008169
     120A      1.025740   121A      1.030759   122A      1.059523
     123A      1.064612   124A      1.095485   125A      1.107890
     126A      1.130200   127A      1.145287   128A      1.147352
     129A      1.163755   130A      1.179178   131A      1.197014
     132A      1.215319   133A      1.229696   134A      1.242317
     135A      1.251382   136A      1.264175   137A      1.268970
     138A      1.281782   139A      1.297966   140A      1.305003
     141A      1.316549   142A      1.320018   143A      1.329017
     144A      1.331085   145A      1.341925   146A      1.379743
     147A      1.428117   148A      1.438397   149A      1.455589
     150A      1.480233   151A      1.510973   152A      1.526331
     153A      1.554305   154A      1.565431   155A      1.576158
     156A      1.615610   157A      1.621856   158A      1.636669
     159A      1.679647   160A      1.690420   161A      1.698546
     162A      1.745865   163A      1.747573   164A      1.758057
     165A      1.765636   166A      1.775883   167A      1.801364
     168A      1.807262   169A      1.828176   170A      1.836822
     171A      1.854833   172A      1.867068   173A      1.894385
     174A      1.906145   175A      1.908279   176A      1.914385
     177A      1.922758   178A      1.932052   179A      1.935791
     180A      1.946684   181A      1.949979   182A      1.958046
     183A      1.962421   184A      1.963626   185A      1.972468
     186A      1.988749   187A      1.994995   188A      2.013267
     189A      2.046500   190A      2.054565   191A      2.076165
     192A      2.078120   193A      2.085951   194A      2.098074
     195A      2.128670   196A      2.133208   197A      2.142102
     198A      2.171374   199A      2.177735   200A      2.188935
     201A      2.202866   202A      2.216477   203A      2.238195
     204A      2.241445   205A      2.257392   206A      2.274173
     207A      2.298703   208A      2.306241   209A      2.317951
     210A      2.332983   211A      2.358793   212A      2.373137
     213A      2.395925   214A      2.442035   215A      2.446589
     216A      2.456321   217A      2.492614   218A      2.504221
     219A      2.526268   220A      2.549580   221A      2.562957
     222A      2.607125   223A      2.644190   224A      2.697992
     225A      2.717572   226A      2.745148   227A      2.752587
     228A      2.769956   229A      2.777440   230A      2.787455
     231A      2.793004   232A      2.807566   233A      2.837702
     234A      2.846581   235A      2.853493   236A      2.865146
     237A      2.887380   238A      2.894468   239A      2.934673
     240A      2.990038   241A      2.999491   242A      3.022904
     243A      3.055384   244A      3.061899   245A      3.157764
     246A      3.180069   247A      3.216903   248A      3.237658
     249A      3.325613   250A      3.470038   251A      3.803513
     252A      3.981494

    Final Occupation by Irrep:
              A
    DOCC [    47 ]

  @RHF Final Energy:  -533.62957299240782

   => Energetics <=

    Nuclear Repulsion Energy =            706.9612582145301758
    One-Electron Energy =               -2125.0925834254730944
    Two-Electron Energy =                 884.5017522185352163
    Total Energy =                       -533.6295729924078159

Computation Completed

Properties will be evaluated at   0.000000,   0.000000,   0.000000 [a0]

Properties computed using the SCF density matrix

  Nuclear Dipole Moment: [e a0]
     X:    -3.9905      Y:    -1.6543      Z:    -6.1147

  Electronic Dipole Moment: [e a0]
     X:     3.8592      Y:     0.7724      Z:     7.1153

  Dipole Moment: [e a0]
     X:    -0.1313      Y:    -0.8819      Z:     1.0006     Total:     1.3402

  Dipole Moment: [D]
     X:    -0.3338      Y:    -2.2415      Z:     2.5433     Total:     3.4065

*** tstop() called on ds3 at Tue Apr 28 20:16:39 2020
Module time:
	user time   =     190.09 seconds =       3.17 minutes
	system time =      82.48 seconds =       1.37 minutes
	total time  =        263 seconds =       4.38 minutes
Total time:
	user time   =     190.09 seconds =       3.17 minutes
	system time =      82.48 seconds =       1.37 minutes
	total time  =        263 seconds =       4.38 minutes
                                     G D M A

                                 by Anthony Stone

                           version 2.2.06, 22 June 2011

               Distributed Multipoles from Gaussian wavefunctions

Starting at 20:16:39 on 28 Apr 2020

Using SCF density matrix from file ./SSI/SSI-117PHE-130HIE-1-dimer.test.27596.fchk

                         Distributed Multipole Analysis

Standard DMA

Positions and radii in angstrom
Multipole moments in atomic units, ea_0^k for rank k

C          x =  0.013309  y = -1.135906  z = -4.110007 angstrom
           Maximum rank =  0   Radius =  0.650 angstrom
                   Q00  =  -0.208347

C          x =  0.769309  y = -0.501906  z = -0.451007 angstrom
           Maximum rank =  0   Radius =  0.650 angstrom
                   Q00  =  -0.060225

C          x =  2.075309  y = -0.968906  z = -0.338007 angstrom
           Maximum rank =  0   Radius =  0.650 angstrom
                   Q00  =  -0.084903

C          x =  0.112309  y = -0.552906  z = -1.678007 angstrom
           Maximum rank =  0   Radius =  0.650 angstrom
                   Q00  =   0.010136

C          x =  0.754309  y = -1.057906  z = -2.807007 angstrom
           Maximum rank =  0   Radius =  0.650 angstrom
                   Q00  =  -0.092539

C          x =  2.718309  y = -1.494906  z = -1.456007 angstrom
           Maximum rank =  0   Radius =  0.650 angstrom
                   Q00  =  -0.058226

C          x =  2.055309  y = -1.543906  z = -2.686007 angstrom
           Maximum rank =  0   Radius =  0.650 angstrom
                   Q00  =  -0.099069

H          x =  0.241309  y = -0.154906  z =  0.416993 angstrom
           Maximum rank =  0   Radius =  0.325 angstrom
                   Q00  =   0.072917

H          x =  2.576309  y = -0.950906  z =  0.620993 angstrom
           Maximum rank =  0   Radius =  0.325 angstrom
                   Q00  =   0.045184

H          x = -0.910691  y = -0.225906  z = -1.737007 angstrom
           Maximum rank =  0   Radius =  0.325 angstrom
                   Q00  =   0.053193

H          x =  3.711309  y = -1.897906  z = -1.368007 angstrom
           Maximum rank =  0   Radius =  0.325 angstrom
                   Q00  =   0.061132

H          x = -0.966691  y = -0.669906  z = -3.991007 angstrom
           Maximum rank =  0   Radius =  0.325 angstrom
                   Q00  =   0.095825

H          x = -0.157691  y = -2.192906  z = -4.327007 angstrom
           Maximum rank =  0   Radius =  0.325 angstrom
                   Q00  =   0.098076

H          x =  2.558309  y = -1.950906  z = -3.548007 angstrom
           Maximum rank =  0   Radius =  0.325 angstrom
                   Q00  =   0.052819

H          x =  0.520380  y = -0.681116  z = -4.973747 angstrom
           Maximum rank =  0   Radius =  0.325 angstrom
                   Q00  =   0.102446

C          x = -3.079691  y =  1.901094  z =  1.065993 angstrom
           Maximum rank =  0   Radius =  0.650 angstrom
                   Q00  =  -0.196779

C          x =  0.154309  y =  1.202094  z =  2.561993 angstrom
           Maximum rank =  0   Radius =  0.650 angstrom
                   Q00  =   0.467845

C          x = -1.917691  y =  1.356094  z =  1.841993 angstrom
           Maximum rank =  0   Radius =  0.650 angstrom
                   Q00  =   0.221970

C          x = -1.883691  y =  0.411094  z =  2.816993 angstrom
           Maximum rank =  0   Radius =  0.650 angstrom
                   Q00  =   0.001604

N          x = -0.636691  y =  1.846094  z =  1.715993 angstrom
           Maximum rank =  0   Radius =  0.650 angstrom
                   Q00  =  -0.775529

N          x = -0.574691  y =  0.325094  z =  3.241993 angstrom
           Maximum rank =  0   Radius =  0.650 angstrom
                   Q00  =  -0.474777

H          x =  1.219309  y =  1.361094  z =  2.680993 angstrom
           Maximum rank =  0   Radius =  0.325 angstrom
                   Q00  =   0.123948

H          x = -0.214691  y = -0.301906  z =  3.953993 angstrom
           Maximum rank =  0   Radius =  0.325 angstrom
                   Q00  =   0.222451

H          x = -2.726691  y = -0.155906  z =  3.183993 angstrom
           Maximum rank =  0   Radius =  0.325 angstrom
                   Q00  =   0.102366

H          x = -3.798691  y =  1.096094  z =  0.913993 angstrom
           Maximum rank =  0   Radius =  0.325 angstrom
                   Q00  =   0.092312

H          x = -2.740691  y =  2.228094  z =  0.084993 angstrom
           Maximum rank =  0   Radius =  0.325 angstrom
                   Q00  =   0.120060

H          x = -3.571523  y =  2.739084  z =  1.581623 angstrom
           Maximum rank =  0   Radius =  0.325 angstrom
                   Q00  =   0.106112

Total multipoles referred to origin at
           x =   0.000000,  y =    0.000000,  z =    0.000000 angstrom
                   Q00  =  -0.000000

Finished at 20:16:39 on 28 Apr 2020

  DMA results are available in the Python driver through the
	  variable('DMA DISTRIBUTED MULTIPOLES')
  and
	  variable('DMA TOTAL MULTIPOLES')
  commands.

    Psi4 stopped on: Tuesday, 28 April 2020 08:16PM
    Psi4 wall time for execution: 0:04:22.80

*** Psi4 exiting successfully. Buy a developer a beer!
