                               Psi4 1.3.2 release

  ==> Input File <==

--------------------------------------------------------------------------
import numpy as np
set {scf_type pk
basis cc-pvdz
d_convergence 10
gdma_switch   0
gdma_limit    0
gdma_origin   [ 0.0,  0.0,  0.0 ]
}
molecule test {
    units Angstrom
    0 1
    --
    0 1
    C               -0.766195871628310    -0.002299680966683    -1.806842697228499
    C               -1.722195871628309    -1.142299680966683    -2.155842697228500
    H                0.149804128371690    -0.402299680966683    -1.373842697228499
    H               -0.516195871628309     0.547700319033317    -2.712842697228500
    H               -1.231195871628310     0.685700319033317    -1.101842697228499
    H               -2.639195871628309    -0.715299680966683    -2.558842697228500
    H               -1.957383271628309    -1.758229680966683    -1.275323697228499
    H               -1.287633371628309    -1.782589680966683    -2.937621697228499
    C                0.991804128371690    -0.017299680966683     1.572157302771501
    C                1.488804128371690     1.159700319033317     2.400157302771500
    H               -0.032195871628310     0.148700319033317     1.242157302771501
    H                1.622804128371691    -0.119299680966683     0.690157302771501
    H                1.048804128371690    -0.941299680966683     2.143157302771500
    H                1.456804128371690     2.060700319033317     1.787157302771501
    H                2.537804128371691     0.980700319033317     2.643157302771500
    H                0.940456128371690     1.321696319033317     3.339876302771501

}
e, wfn = energy('scf', return_wfn=True)
gdma(wfn)
dmavals = variable('DMA DISTRIBUTED MULTIPOLES')
charges = np.array(dmavals)
print(charges)
np.save('SSI-005LEU-025ILE-1-dimer.npy', np.array(charges))--------------------------------------------------------------------------

*** tstart() called on ds3
*** at Mon Apr 27 22:32:39 2020

   => Loading Basis Set <=

    Name: CC-PVDZ
    Role: ORBITAL
    Keyword: BASIS
    atoms 1-2, 9-10  entry C          line   138 file /theoryfs2/ds/metcalf/miniconda2/envs/tf2gpu/share/psi4/basis/cc-pvdz.gbs
    atoms 3-8, 11-16 entry H          line    22 file /theoryfs2/ds/metcalf/miniconda2/envs/tf2gpu/share/psi4/basis/cc-pvdz.gbs

         ---------------------------------------------------------
                                   SCF
               by Justin Turney, Rob Parrish, Andy Simmonett
                          and Daniel G. A. Smith
                              RHF Reference
                        1 Threads,    500 MiB Core
         ---------------------------------------------------------

  ==> Geometry <==

    Molecular point group: c1
    Full point group: C1

    Geometry (in Angstrom), charge = 0, multiplicity = 1:

       Center              X                  Y                   Z               Mass
    ------------   -----------------  -----------------  -----------------  -----------------
         C           -0.766195871628    -0.002299680967    -1.806842697228    12.000000000000
         C           -1.722195871628    -1.142299680967    -2.155842697229    12.000000000000
         H            0.149804128372    -0.402299680967    -1.373842697228     1.007825032230
         H           -0.516195871628     0.547700319033    -2.712842697229     1.007825032230
         H           -1.231195871628     0.685700319033    -1.101842697228     1.007825032230
         H           -2.639195871628    -0.715299680967    -2.558842697229     1.007825032230
         H           -1.957383271628    -1.758229680967    -1.275323697228     1.007825032230
         H           -1.287633371628    -1.782589680967    -2.937621697228     1.007825032230
         C            0.991804128372    -0.017299680967     1.572157302772    12.000000000000
         C            1.488804128372     1.159700319033     2.400157302771    12.000000000000
         H           -0.032195871628     0.148700319033     1.242157302772     1.007825032230
         H            1.622804128372    -0.119299680967     0.690157302772     1.007825032230
         H            1.048804128372    -0.941299680967     2.143157302771     1.007825032230
         H            1.456804128372     2.060700319033     1.787157302772     1.007825032230
         H            2.537804128372     0.980700319033     2.643157302771     1.007825032230
         H            0.940456128372     1.321696319033     3.339876302772     1.007825032230

  Running in c1 symmetry.

  Rotational constants: A =      0.59448  B =      0.04379  C =      0.04238 [cm^-1]
  Rotational constants: A =  17821.91613  B =   1312.64864  C =   1270.39137 [MHz]
  Nuclear repulsion =  120.795448807453724

  Charge       = 0
  Multiplicity = 1
  Electrons    = 36
  Nalpha       = 18
  Nbeta        = 18

  ==> Algorithm <==

  SCF Algorithm Type is PK.
  DIIS enabled.
  MOM disabled.
  Fractional occupation disabled.
  Guess Type is SAD.
  Energy threshold   = 1.00e-06
  Density threshold  = 1.00e-10
  Integral threshold = 0.00e+00

  ==> Primary Basis <==

  Basis Set: CC-PVDZ
    Blend: CC-PVDZ
    Number of shells: 60
    Number of basis function: 116
    Number of Cartesian functions: 120
    Spherical Harmonics?: true
    Max angular momentum: 2

  ==> Pre-Iterations <==

   -------------------------------------------------------
    Irrep   Nso     Nmo     Nalpha   Nbeta   Ndocc  Nsocc
   -------------------------------------------------------
     A        116     116       0       0       0       0
   -------------------------------------------------------
    Total     116     116      18      18      18       0
   -------------------------------------------------------

  ==> Integral Setup <==

  Using integral reordering PK algorithm.
  Sizing the integral batches needed.
  Building batch lookup table.
   Calculation information:
      Number of atoms:                  16
      Number of AO shells:              60
      Number of primitives:            148
      Number of atomic orbitals:       120
      Number of basis functions:       116

      Integral cutoff                 1.00e-12
      Number of threads:                 1

	Batch   1 pq = [       0,    6786] index = [             0,23028291] size =     23028291
  Task number: 3
  Buffer size: 11059200
  Buffer per thread: 2
  We computed 1376710 shell quartets total.
  Whereas there are 1675365 unique shell quartets.

  ==> DiskJK: Disk-Based J/K Matrices <==

    J tasked:                  Yes
    K tasked:                  Yes
    wK tasked:                  No
    Memory [MiB]:              375
    Schwarz Cutoff:          1E-12

    OpenMP threads:              1

  Minimum eigenvalue in the overlap matrix is 7.3736964928E-03.
  Using Symmetric Orthogonalization.

  SCF Guess: Superposition of Atomic Densities via on-the-fly atomic UHF.

  ==> Iterations <==

                        Total Energy        Delta E     RMS |[F,P]|

   @RHF iter SAD:  -157.36062886051337   -1.57361e+02   0.00000e+00
   @RHF iter   1:  -158.30716595955312   -9.46537e-01   4.22677e-03 DIIS
   @RHF iter   2:  -158.44117407307380   -1.34008e-01   1.80511e-03 DIIS
   @RHF iter   3:  -158.46477717285958   -2.36031e-02   3.49746e-04 DIIS
   @RHF iter   4:  -158.46661087275396   -1.83370e-03   3.85469e-05 DIIS
   @RHF iter   5:  -158.46663416728205   -2.32945e-05   6.28308e-06 DIIS
   @RHF iter   6:  -158.46663475775568   -5.90474e-07   9.66489e-07 DIIS
   @RHF iter   7:  -158.46663476739801   -9.64232e-09   2.96390e-07 DIIS
   @RHF iter   8:  -158.46663476817122   -7.73213e-10   4.31487e-08 DIIS
   @RHF iter   9:  -158.46663476820271   -3.14913e-11   9.20815e-09 DIIS
   @RHF iter  10:  -158.46663476820362   -9.09495e-13   2.43728e-09 DIIS
   @RHF iter  11:  -158.46663476820351    1.13687e-13   5.84142e-10 DIIS
   @RHF iter  12:  -158.46663476820339    1.13687e-13   1.70220e-10 DIIS
   @RHF iter  13:  -158.46663476820390   -5.11591e-13   2.24607e-11 DIIS
  Energy and wave function converged.

  ==> Post-Iterations <==

    Orbital Energies [Eh]
    ---------------------

    Doubly Occupied:

       1A    -11.218730     2A    -11.217590     3A    -11.216121
       4A    -11.215833     5A     -1.020170     6A     -1.017435
       7A     -0.839821     8A     -0.835006     9A     -0.602175
      10A     -0.598482    11A     -0.596137    12A     -0.593940
      13A     -0.506340    14A     -0.500252    15A     -0.489255
      16A     -0.486574    17A     -0.481749    18A     -0.479992

    Virtual:

      19A      0.174556    20A      0.195325    21A      0.226693
      22A      0.235252    23A      0.240900    24A      0.254994
      25A      0.264699    26A      0.274219    27A      0.282400
      28A      0.288061    29A      0.308179    30A      0.347259
      31A      0.392365    32A      0.409044    33A      0.577231
      34A      0.592374    35A      0.597302    36A      0.599689
      37A      0.614578    38A      0.626648    39A      0.656869
      40A      0.680850    41A      0.691661    42A      0.805477
      43A      0.846603    44A      0.857290    45A      0.886543
      46A      0.891990    47A      0.893863    48A      0.894631
      49A      0.899170    50A      0.903049    51A      0.907378
      52A      0.920653    53A      0.924939    54A      0.963984
      55A      0.974765    56A      0.988312    57A      1.125175
      58A      1.128082    59A      1.131332    60A      1.160786
      61A      1.232225    62A      1.246992    63A      1.457824
      64A      1.475007    65A      1.479222    66A      1.488307
      67A      1.562170    68A      1.583435    69A      1.683227
      70A      1.687445    71A      1.694963    72A      1.704740
      73A      1.853775    74A      1.864247    75A      1.867233
      76A      1.878657    77A      1.888052    78A      1.923173
      79A      1.940786    80A      1.944277    81A      1.947420
      82A      1.950259    83A      1.953585    84A      1.959415
      85A      1.966706    86A      1.970483    87A      1.978360
      88A      2.001414    89A      2.083345    90A      2.101114
      91A      2.108053    92A      2.128005    93A      2.302746
      94A      2.310019    95A      2.313627    96A      2.324714
      97A      2.446890    98A      2.457743    99A      2.468965
     100A      2.484872   101A      2.554856   102A      2.559066
     103A      2.572310   104A      2.579374   105A      2.759488
     106A      2.765022   107A      2.785881   108A      2.799806
     109A      2.855254   110A      2.857426   111A      2.863474
     112A      2.877274   113A      2.941009   114A      2.953271
     115A      2.957853   116A      2.993669

    Final Occupation by Irrep:
              A
    DOCC [    18 ]

  @RHF Final Energy:  -158.46663476820390

   => Energetics <=

    Nuclear Repulsion Energy =            120.7954488074537238
    One-Electron Energy =                -450.6929630289223496
    Two-Electron Energy =                 171.4308794532647084
    Total Energy =                       -158.4666347682039031

Computation Completed

Properties will be evaluated at   0.000000,   0.000000,   0.000000 [a0]

Properties computed using the SCF density matrix

  Nuclear Dipole Moment: [e a0]
     X:     0.0869      Y:     0.0245      Z:    -0.1075

  Electronic Dipole Moment: [e a0]
     X:    -0.0733      Y:    -0.0191      Z:     0.0926

  Dipole Moment: [e a0]
     X:     0.0136      Y:     0.0055      Z:    -0.0148     Total:     0.0209

  Dipole Moment: [D]
     X:     0.0346      Y:     0.0139      Z:    -0.0377     Total:     0.0531

*** tstop() called on ds3 at Mon Apr 27 22:32:50 2020
Module time:
	user time   =       7.82 seconds =       0.13 minutes
	system time =       3.17 seconds =       0.05 minutes
	total time  =         11 seconds =       0.18 minutes
Total time:
	user time   =       7.82 seconds =       0.13 minutes
	system time =       3.17 seconds =       0.05 minutes
	total time  =         11 seconds =       0.18 minutes
                                     G D M A

                                 by Anthony Stone

                           version 2.2.06, 22 June 2011

               Distributed Multipoles from Gaussian wavefunctions

Starting at 22:32:50 on 27 Apr 2020

Using SCF density matrix from file ./SSI/SSI-005LEU-025ILE-1-dimer.test.31223.fchk

                         Distributed Multipole Analysis

Standard DMA

Positions and radii in angstrom
Multipole moments in atomic units, ea_0^k for rank k

C          x = -0.766196  y = -0.002300  z = -1.806843 angstrom
           Maximum rank =  0   Radius =  0.650 angstrom
                   Q00  =  -0.237132

C          x = -1.722196  y = -1.142300  z = -2.155843 angstrom
           Maximum rank =  0   Radius =  0.650 angstrom
                   Q00  =  -0.237857

H          x =  0.149804  y = -0.402300  z = -1.373843 angstrom
           Maximum rank =  0   Radius =  0.325 angstrom
                   Q00  =   0.082590

H          x = -0.516196  y =  0.547700  z = -2.712843 angstrom
           Maximum rank =  0   Radius =  0.325 angstrom
                   Q00  =   0.078114

H          x = -1.231196  y =  0.685700  z = -1.101843 angstrom
           Maximum rank =  0   Radius =  0.325 angstrom
                   Q00  =   0.078985

H          x = -2.639196  y = -0.715300  z = -2.558843 angstrom
           Maximum rank =  0   Radius =  0.325 angstrom
                   Q00  =   0.077417

H          x = -1.957383  y = -1.758230  z = -1.275324 angstrom
           Maximum rank =  0   Radius =  0.325 angstrom
                   Q00  =   0.079823

H          x = -1.287633  y = -1.782590  z = -2.937622 angstrom
           Maximum rank =  0   Radius =  0.325 angstrom
                   Q00  =   0.077602

C          x =  0.991804  y = -0.017300  z =  1.572157 angstrom
           Maximum rank =  0   Radius =  0.650 angstrom
                   Q00  =  -0.238134

C          x =  1.488804  y =  1.159700  z =  2.400157 angstrom
           Maximum rank =  0   Radius =  0.650 angstrom
                   Q00  =  -0.233498

H          x = -0.032196  y =  0.148700  z =  1.242157 angstrom
           Maximum rank =  0   Radius =  0.325 angstrom
                   Q00  =   0.080858

H          x =  1.622804  y = -0.119300  z =  0.690157 angstrom
           Maximum rank =  0   Radius =  0.325 angstrom
                   Q00  =   0.078100

H          x =  1.048804  y = -0.941300  z =  2.143157 angstrom
           Maximum rank =  0   Radius =  0.325 angstrom
                   Q00  =   0.079080

H          x =  1.456804  y =  2.060700  z =  1.787157 angstrom
           Maximum rank =  0   Radius =  0.325 angstrom
                   Q00  =   0.077647

H          x =  2.537804  y =  0.980700  z =  2.643157 angstrom
           Maximum rank =  0   Radius =  0.325 angstrom
                   Q00  =   0.074831

H          x =  0.940456  y =  1.321696  z =  3.339876 angstrom
           Maximum rank =  0   Radius =  0.325 angstrom
                   Q00  =   0.081574

Total multipoles referred to origin at
           x =   0.000000,  y =    0.000000,  z =    0.000000 angstrom
                   Q00  =  -0.000000

Finished at 22:32:50 on 27 Apr 2020

  DMA results are available in the Python driver through the
	  variable('DMA DISTRIBUTED MULTIPOLES')
  and
	  variable('DMA TOTAL MULTIPOLES')
  commands.

    Psi4 stopped on: Monday, 27 April 2020 10:32PM
    Psi4 wall time for execution: 0:00:10.80

*** Psi4 exiting successfully. Buy a developer a beer!
