                               Psi4 1.3.2 release

  ==> Input File <==

--------------------------------------------------------------------------
import numpy as np
set {scf_type pk
basis cc-pvdz
d_convergence 10
gdma_switch   0
gdma_limit    0
gdma_origin   [ 0.0,  0.0,  0.0 ]
}
molecule test {
    units Angstrom
    0 1
    --
    0 1
    C                0.381507374700307     0.884464477896589    -2.470744021478199
    C               -0.140492625299693    -0.502535522103411    -0.434744021478199
    C                0.806507374700307     0.112464477896589    -1.257744021478199
    C                0.251507374700307    -1.147535522103411     0.748255978521801
    C                1.614507374700307    -1.180535522103411     1.112255978521801
    C                2.171507374700307     0.064464477896589    -0.905744021478199
    C                2.571507374700307    -0.575535522103411     0.276255978521801
    H               -1.187492625299693    -0.461535522103411    -0.694744021478199
    H               -0.486492625299693    -1.597535522103411     1.394255978521801
    H               -0.705492625299693     0.869464477896589    -2.570744021478199
    H                0.805507374700307     0.391464477896589    -3.339744021478199
    H                1.923507374700307    -1.674535522103411     2.023255978521801
    H                2.920507374700307     0.514464477896589    -1.539744021478199
    H                3.618507374700307    -0.613535522103411     0.540255978521801
    H                0.734187374700307     1.925934477896589    -2.439795021478199
    C               -2.684492625299693     1.343464477896589     1.523255978521801
    C               -3.944492625299693     0.572464477896589     1.260255978521801
    H               -2.829492625299693     2.089464477896589     2.301255978521801
    H               -1.904492625299693     0.654464477896589     1.846255978521801
    H               -2.356492625299693     1.835464477896589     0.609255978521801
    H               -3.736492625299693    -0.215535522103411     0.541255978521801
    H               -4.734012625299693     1.242184477896589     0.888590378521801
    H               -4.296812625299693     0.145654477896589     2.210888978521801

}
e, wfn = energy('scf', return_wfn=True)
gdma(wfn)
dmavals = variable('DMA DISTRIBUTED MULTIPOLES')
charges = np.array(dmavals)
print(charges)
np.save('SSI-119PHE-176THR-1-dimer.npy', np.array(charges))--------------------------------------------------------------------------

*** tstart() called on ds3
*** at Sun Apr 26 20:06:14 2020

   => Loading Basis Set <=

    Name: CC-PVDZ
    Role: ORBITAL
    Keyword: BASIS
    atoms 1-7, 16-17  entry C          line   138 file /theoryfs2/ds/metcalf/miniconda2/envs/tf2gpu/share/psi4/basis/cc-pvdz.gbs
    atoms 8-15, 18-23 entry H          line    22 file /theoryfs2/ds/metcalf/miniconda2/envs/tf2gpu/share/psi4/basis/cc-pvdz.gbs

         ---------------------------------------------------------
                                   SCF
               by Justin Turney, Rob Parrish, Andy Simmonett
                          and Daniel G. A. Smith
                              RHF Reference
                        1 Threads,    500 MiB Core
         ---------------------------------------------------------

  ==> Geometry <==

    Molecular point group: c1
    Full point group: C1

    Geometry (in Angstrom), charge = 0, multiplicity = 1:

       Center              X                  Y                   Z               Mass
    ------------   -----------------  -----------------  -----------------  -----------------
         C            0.381507374700     0.884464477897    -2.470744021478    12.000000000000
         C           -0.140492625300    -0.502535522103    -0.434744021478    12.000000000000
         C            0.806507374700     0.112464477897    -1.257744021478    12.000000000000
         C            0.251507374700    -1.147535522103     0.748255978522    12.000000000000
         C            1.614507374700    -1.180535522103     1.112255978522    12.000000000000
         C            2.171507374700     0.064464477897    -0.905744021478    12.000000000000
         C            2.571507374700    -0.575535522103     0.276255978522    12.000000000000
         H           -1.187492625300    -0.461535522103    -0.694744021478     1.007825032230
         H           -0.486492625300    -1.597535522103     1.394255978522     1.007825032230
         H           -0.705492625300     0.869464477897    -2.570744021478     1.007825032230
         H            0.805507374700     0.391464477897    -3.339744021478     1.007825032230
         H            1.923507374700    -1.674535522103     2.023255978522     1.007825032230
         H            2.920507374700     0.514464477897    -1.539744021478     1.007825032230
         H            3.618507374700    -0.613535522103     0.540255978522     1.007825032230
         H            0.734187374700     1.925934477897    -2.439795021478     1.007825032230
         C           -2.684492625300     1.343464477897     1.523255978522    12.000000000000
         C           -3.944492625300     0.572464477897     1.260255978522    12.000000000000
         H           -2.829492625300     2.089464477897     2.301255978522     1.007825032230
         H           -1.904492625300     0.654464477897     1.846255978522     1.007825032230
         H           -2.356492625300     1.835464477897     0.609255978522     1.007825032230
         H           -3.736492625300    -0.215535522103     0.541255978522     1.007825032230
         H           -4.734012625300     1.242184477897     0.888590378522     1.007825032230
         H           -4.296812625300     0.145654477897     2.210888978522     1.007825032230

  Running in c1 symmetry.

  Rotational constants: A =      0.07118  B =      0.02519  C =      0.02022 [cm^-1]
  Rotational constants: A =   2133.84490  B =    755.17624  C =    606.09629 [MHz]
  Nuclear repulsion =  405.186494235255111

  Charge       = 0
  Multiplicity = 1
  Electrons    = 68
  Nalpha       = 34
  Nbeta        = 34

  ==> Algorithm <==

  SCF Algorithm Type is PK.
  DIIS enabled.
  MOM disabled.
  Fractional occupation disabled.
  Guess Type is SAD.
  Energy threshold   = 1.00e-06
  Density threshold  = 1.00e-10
  Integral threshold = 0.00e+00

  ==> Primary Basis <==

  Basis Set: CC-PVDZ
    Blend: CC-PVDZ
    Number of shells: 96
    Number of basis function: 196
    Number of Cartesian functions: 205
    Spherical Harmonics?: true
    Max angular momentum: 2

  ==> Pre-Iterations <==

   -------------------------------------------------------
    Irrep   Nso     Nmo     Nalpha   Nbeta   Ndocc  Nsocc
   -------------------------------------------------------
     A        196     196       0       0       0       0
   -------------------------------------------------------
    Total     196     196      34      34      34       0
   -------------------------------------------------------

  ==> Integral Setup <==

  Using integral reordering PK algorithm.
  Sizing the integral batches needed.
  Building batch lookup table.
   Calculation information:
      Number of atoms:                  23
      Number of AO shells:              96
      Number of primitives:            268
      Number of atomic orbitals:       205
      Number of basis functions:       196

      Integral cutoff                 1.00e-12
      Number of threads:                 1

	Batch   1 pq = [       0,    9405] index = [             0,44231715] size =     44231715
	Batch   2 pq = [    9405,   13301] index = [      44231715,88464951] size =     44233236
	Batch   3 pq = [   13301,   16290] index = [      88464951,132690195] size =     44225244
	Batch   4 pq = [   16290,   18810] index = [     132690195,176917455] size =     44227260
	Batch   5 pq = [   18810,   19306] index = [     176917455,186370471] size =      9453016
  Task number: 17
  Buffer size: 11059200
  Buffer per thread: 2
  We computed 9471817 shell quartets total.
  Whereas there are 10841496 unique shell quartets.

  ==> DiskJK: Disk-Based J/K Matrices <==

    J tasked:                  Yes
    K tasked:                  Yes
    wK tasked:                  No
    Memory [MiB]:              375
    Schwarz Cutoff:          1E-12

    OpenMP threads:              1

  Minimum eigenvalue in the overlap matrix is 3.3294137766E-04.
  Using Symmetric Orthogonalization.

  SCF Guess: Superposition of Atomic Densities via on-the-fly atomic UHF.

  ==> Iterations <==

                        Total Energy        Delta E     RMS |[F,P]|

   @RHF iter SAD:  -347.79512800153884   -3.47795e+02   0.00000e+00
   @RHF iter   1:  -348.76561945768771   -9.70491e-01   2.88832e-03 DIIS
   @RHF iter   2:  -348.95799941532579   -1.92380e-01   1.19002e-03 DIIS
   @RHF iter   3:  -348.98773540641838   -2.97360e-02   2.58341e-04 DIIS
   @RHF iter   4:  -348.99020820780163   -2.47280e-03   5.71433e-05 DIIS
   @RHF iter   5:  -348.99029008492755   -8.18771e-05   1.99449e-05 DIIS
   @RHF iter   6:  -348.99029990137262   -9.81645e-06   4.94892e-06 DIIS
   @RHF iter   7:  -348.99030068247259   -7.81100e-07   1.32338e-06 DIIS
   @RHF iter   8:  -348.99030077076742   -8.82948e-08   4.59524e-07 DIIS
   @RHF iter   9:  -348.99030079321807   -2.24506e-08   2.18955e-07 DIIS
   @RHF iter  10:  -348.99030079956401   -6.34594e-09   1.00040e-07 DIIS
   @RHF iter  11:  -348.99030080099806   -1.43405e-09   2.95086e-08 DIIS
   @RHF iter  12:  -348.99030080107906   -8.10019e-11   1.24872e-08 DIIS
   @RHF iter  13:  -348.99030080108741   -8.35598e-12   4.38462e-09 DIIS
   @RHF iter  14:  -348.99030080108673    6.82121e-13   1.21389e-09 DIIS
   @RHF iter  15:  -348.99030080108849   -1.76215e-12   3.83853e-10 DIIS
   @RHF iter  16:  -348.99030080108668    1.81899e-12   1.47256e-10 DIIS
   @RHF iter  17:  -348.99030080108628    3.97904e-13   7.01577e-11 DIIS
  Energy and wave function converged.

  ==> Post-Iterations <==

    Orbital Energies [Eh]
    ---------------------

    Doubly Occupied:

       1A    -11.243326     2A    -11.239605     3A    -11.239234
       4A    -11.235547     5A    -11.233682     6A    -11.232711
       7A    -11.229057     8A    -11.216815     9A    -11.210650
      10A     -1.145713    11A     -1.041760    12A     -1.024936
      13A     -1.008416    14A     -0.929470    15A     -0.832389
      16A     -0.822935    17A     -0.793857    18A     -0.687889
      19A     -0.633858    20A     -0.627535    21A     -0.605126
      22A     -0.598023    23A     -0.581456    24A     -0.577854
      25A     -0.561409    26A     -0.536106    27A     -0.504044
      28A     -0.487811    29A     -0.485659    30A     -0.483722
      31A     -0.478840    32A     -0.476255    33A     -0.330328
      34A     -0.317980

    Virtual:

      35A      0.129529    36A      0.140760    37A      0.165262
      38A      0.194700    39A      0.200754    40A      0.225549
      41A      0.233248    42A      0.240654    43A      0.250749
      44A      0.261932    45A      0.266349    46A      0.268500
      47A      0.275035    48A      0.290356    49A      0.322216
      50A      0.341344    51A      0.368144    52A      0.382303
      53A      0.404949    54A      0.450020    55A      0.459410
      56A      0.469928    57A      0.501065    58A      0.565721
      59A      0.587791    60A      0.594322    61A      0.602982
      62A      0.620392    63A      0.642515    64A      0.663051
      65A      0.675048    66A      0.685028    67A      0.693767
      68A      0.703493    69A      0.721631    70A      0.736668
      71A      0.740197    72A      0.748081    73A      0.755348
      74A      0.769132    75A      0.787746    76A      0.810580
      77A      0.834531    78A      0.857595    79A      0.861567
      80A      0.870852    81A      0.876030    82A      0.879678
      83A      0.887523    84A      0.892761    85A      0.895849
      86A      0.911415    87A      0.913347    88A      0.919073
      89A      0.926989    90A      0.944851    91A      0.969915
      92A      0.976026    93A      0.991243    94A      0.995958
      95A      1.016285    96A      1.067770    97A      1.109037
      98A      1.125582    99A      1.130264   100A      1.143855
     101A      1.152153   102A      1.156813   103A      1.195204
     104A      1.217511   105A      1.234951   106A      1.242929
     107A      1.249729   108A      1.270051   109A      1.293639
     110A      1.300749   111A      1.314617   112A      1.337167
     113A      1.414955   114A      1.486529   115A      1.492955
     116A      1.507340   117A      1.523756   118A      1.555319
     119A      1.596105   120A      1.613014   121A      1.674350
     122A      1.677562   123A      1.681823   124A      1.699535
     125A      1.737260   126A      1.738543   127A      1.758810
     128A      1.791445   129A      1.809832   130A      1.843902
     131A      1.858141   132A      1.874713   133A      1.879579
     134A      1.895941   135A      1.900953   136A      1.915338
     137A      1.919538   138A      1.925397   139A      1.936407
     140A      1.946617   141A      1.954678   142A      1.956901
     143A      1.962143   144A      1.974651   145A      1.980640
     146A      1.984306   147A      1.994727   148A      2.008801
     149A      2.027506   150A      2.048306   151A      2.065540
     152A      2.102464   153A      2.108303   154A      2.118897
     155A      2.136895   156A      2.148415   157A      2.151376
     158A      2.159225   159A      2.193147   160A      2.244414
     161A      2.263818   162A      2.275291   163A      2.292793
     164A      2.307097   165A      2.317337   166A      2.337330
     167A      2.368825   168A      2.434311   169A      2.458874
     170A      2.474888   171A      2.480493   172A      2.505300
     173A      2.531667   174A      2.576048   175A      2.584334
     176A      2.632440   177A      2.718631   178A      2.742654
     179A      2.759455   180A      2.775219   181A      2.778978
     182A      2.802179   183A      2.814166   184A      2.835729
     185A      2.850490   186A      2.858834   187A      2.876362
     188A      2.957086   189A      2.964647   190A      2.974590
     191A      2.993108   192A      3.019781   193A      3.148634
     194A      3.181407   195A      3.279565   196A      3.928060

    Final Occupation by Irrep:
              A
    DOCC [    34 ]

  @RHF Final Energy:  -348.99030080108628

   => Energetics <=

    Nuclear Repulsion Energy =            405.1864942352551111
    One-Electron Energy =               -1273.0455991938804345
    Two-Electron Energy =                 518.8688041575389889
    Total Energy =                       -348.9903008010862777

Computation Completed

Properties will be evaluated at   0.000000,   0.000000,   0.000000 [a0]

Properties computed using the SCF density matrix

  Nuclear Dipole Moment: [e a0]
     X:   -11.4700      Y:     4.7866      Z:     1.6598

  Electronic Dipole Moment: [e a0]
     X:    11.4968      Y:    -4.7005      Z:    -1.7644

  Dipole Moment: [e a0]
     X:     0.0268      Y:     0.0862      Z:    -0.1046     Total:     0.1382

  Dipole Moment: [D]
     X:     0.0682      Y:     0.2190      Z:    -0.2659     Total:     0.3512

*** tstop() called on ds3 at Sun Apr 26 20:07:46 2020
Module time:
	user time   =      66.41 seconds =       1.11 minutes
	system time =      27.75 seconds =       0.46 minutes
	total time  =         92 seconds =       1.53 minutes
Total time:
	user time   =      66.41 seconds =       1.11 minutes
	system time =      27.75 seconds =       0.46 minutes
	total time  =         92 seconds =       1.53 minutes
                                     G D M A

                                 by Anthony Stone

                           version 2.2.06, 22 June 2011

               Distributed Multipoles from Gaussian wavefunctions

Starting at 20:7:46 on 26 Apr 2020

Using SCF density matrix from file ./SSI/SSI-119PHE-176THR-1-dimer.test.11690.fchk

                         Distributed Multipole Analysis

Standard DMA

Positions and radii in angstrom
Multipole moments in atomic units, ea_0^k for rank k

C          x =  0.381507  y =  0.884464  z = -2.470744 angstrom
           Maximum rank =  0   Radius =  0.650 angstrom
                   Q00  =  -0.203109

C          x = -0.140493  y = -0.502536  z = -0.434744 angstrom
           Maximum rank =  0   Radius =  0.650 angstrom
                   Q00  =  -0.016031

C          x =  0.806507  y =  0.112464  z = -1.257744 angstrom
           Maximum rank =  0   Radius =  0.650 angstrom
                   Q00  =  -0.092543

C          x =  0.251507  y = -1.147536  z =  0.748256 angstrom
           Maximum rank =  0   Radius =  0.650 angstrom
                   Q00  =  -0.083647

C          x =  1.614507  y = -1.180536  z =  1.112256 angstrom
           Maximum rank =  0   Radius =  0.650 angstrom
                   Q00  =  -0.086076

C          x =  2.171507  y =  0.064464  z = -0.905744 angstrom
           Maximum rank =  0   Radius =  0.650 angstrom
                   Q00  =  -0.065061

C          x =  2.571507  y = -0.575536  z =  0.276256 angstrom
           Maximum rank =  0   Radius =  0.650 angstrom
                   Q00  =  -0.077329

H          x = -1.187493  y = -0.461536  z = -0.694744 angstrom
           Maximum rank =  0   Radius =  0.325 angstrom
                   Q00  =   0.061158

H          x = -0.486493  y = -1.597536  z =  1.394256 angstrom
           Maximum rank =  0   Radius =  0.325 angstrom
                   Q00  =   0.068586

H          x = -0.705493  y =  0.869464  z = -2.570744 angstrom
           Maximum rank =  0   Radius =  0.325 angstrom
                   Q00  =   0.097134

H          x =  0.805507  y =  0.391464  z = -3.339744 angstrom
           Maximum rank =  0   Radius =  0.325 angstrom
                   Q00  =   0.101577

H          x =  1.923507  y = -1.674536  z =  2.023256 angstrom
           Maximum rank =  0   Radius =  0.325 angstrom
                   Q00  =   0.065753

H          x =  2.920507  y =  0.514464  z = -1.539744 angstrom
           Maximum rank =  0   Radius =  0.325 angstrom
                   Q00  =   0.059023

H          x =  3.618507  y = -0.613536  z =  0.540256 angstrom
           Maximum rank =  0   Radius =  0.325 angstrom
                   Q00  =   0.067629

H          x =  0.734187  y =  1.925934  z = -2.439795 angstrom
           Maximum rank =  0   Radius =  0.325 angstrom
                   Q00  =   0.102509

C          x = -2.684493  y =  1.343464  z =  1.523256 angstrom
           Maximum rank =  0   Radius =  0.650 angstrom
                   Q00  =  -0.218143

C          x = -3.944493  y =  0.572464  z =  1.260256 angstrom
           Maximum rank =  0   Radius =  0.650 angstrom
                   Q00  =  -0.235056

H          x = -2.829493  y =  2.089464  z =  2.301256 angstrom
           Maximum rank =  0   Radius =  0.325 angstrom
                   Q00  =   0.077627

H          x = -1.904493  y =  0.654464  z =  1.846256 angstrom
           Maximum rank =  0   Radius =  0.325 angstrom
                   Q00  =   0.079380

H          x = -2.356493  y =  1.835464  z =  0.609256 angstrom
           Maximum rank =  0   Radius =  0.325 angstrom
                   Q00  =   0.073959

H          x = -3.736493  y = -0.215536  z =  0.541256 angstrom
           Maximum rank =  0   Radius =  0.325 angstrom
                   Q00  =   0.074024

H          x = -4.734013  y =  1.242184  z =  0.888590 angstrom
           Maximum rank =  0   Radius =  0.325 angstrom
                   Q00  =   0.075491

H          x = -4.296813  y =  0.145654  z =  2.210889 angstrom
           Maximum rank =  0   Radius =  0.325 angstrom
                   Q00  =   0.073143

Total multipoles referred to origin at
           x =   0.000000,  y =    0.000000,  z =    0.000000 angstrom
                   Q00  =  -0.000000

Finished at 20:7:46 on 26 Apr 2020

  DMA results are available in the Python driver through the
	  variable('DMA DISTRIBUTED MULTIPOLES')
  and
	  variable('DMA TOTAL MULTIPOLES')
  commands.

    Psi4 stopped on: Sunday, 26 April 2020 08:07PM
    Psi4 wall time for execution: 0:01:31.47

*** Psi4 exiting successfully. Buy a developer a beer!
