                               Psi4 1.3.2 release

  ==> Input File <==

--------------------------------------------------------------------------
import numpy as np
set {scf_type pk
basis cc-pvdz
d_convergence 10
gdma_switch   0
gdma_limit    0
gdma_origin   [ 0.0,  0.0,  0.0 ]
}
molecule test {
    units Angstrom
    -1 1
    --
    -1 1
    C                1.446705070919950    -0.204861327576456     1.029686099162623
    C                2.016705070919950    -1.176861327576456    -0.014313900837377
    C                1.771705070919950    -0.686861327576456     2.484686099162623
    C                2.102705070919950     1.171138672423544     0.805686099162623
    H                0.365705070919950    -0.141861327576456     0.897686099162623
    H                3.106705070919950    -1.112861327576455     0.018686099162623
    H                2.852705070919950    -0.744861327576456     2.625686099162623
    H                1.355705070919950     0.011138672423544     3.213686099162623
    H                1.338705070919950    -1.673861327576456     2.660686099162623
    H                1.888705070919950     1.528138672423544    -0.203313900837377
    H                1.711705070919950     1.886138672423544     1.528686099162623
    H                3.182705070919950     1.084138672423544     0.932686099162623
    H                1.683745070919950    -0.901511327576456    -1.025903900837377
    H                1.726265070919950    -2.213741327576456     0.210476099162623
    C               -3.110294929080050     0.860138672423544    -1.017313900837377
    C               -1.745294929080050     0.184138672423544    -1.069313900837377
    O               -1.617294929080050    -0.906861327576456    -0.490313900837377
    O               -0.804294929080050     0.744138672423544    -1.669313900837377
    H               -3.084294929080050     1.769138672423544    -1.619313900837377
    H               -3.336294929080050     1.125138672423544     0.018686099162623
    H               -3.915164929080050     0.219088672423544    -1.406213900837377

}
e, wfn = energy('scf', return_wfn=True)
gdma(wfn)
dmavals = variable('DMA DISTRIBUTED MULTIPOLES')
charges = np.array(dmavals)
print(charges)
np.save('SSI-175VAL-274ASP-1-dimer.npy', np.array(charges))--------------------------------------------------------------------------

*** tstart() called on ds3
*** at Mon Apr 27 18:51:51 2020

   => Loading Basis Set <=

    Name: CC-PVDZ
    Role: ORBITAL
    Keyword: BASIS
    atoms 1-4, 15-16  entry C          line   138 file /theoryfs2/ds/metcalf/miniconda2/envs/tf2gpu/share/psi4/basis/cc-pvdz.gbs
    atoms 5-14, 19-21 entry H          line    22 file /theoryfs2/ds/metcalf/miniconda2/envs/tf2gpu/share/psi4/basis/cc-pvdz.gbs
    atoms 17-18       entry O          line   198 file /theoryfs2/ds/metcalf/miniconda2/envs/tf2gpu/share/psi4/basis/cc-pvdz.gbs

         ---------------------------------------------------------
                                   SCF
               by Justin Turney, Rob Parrish, Andy Simmonett
                          and Daniel G. A. Smith
                              RHF Reference
                        1 Threads,    500 MiB Core
         ---------------------------------------------------------

  ==> Geometry <==

    Molecular point group: c1
    Full point group: C1

    Geometry (in Angstrom), charge = -1, multiplicity = 1:

       Center              X                  Y                   Z               Mass
    ------------   -----------------  -----------------  -----------------  -----------------
         C            1.446705070920    -0.204861327576     1.029686099163    12.000000000000
         C            2.016705070920    -1.176861327576    -0.014313900837    12.000000000000
         C            1.771705070920    -0.686861327576     2.484686099163    12.000000000000
         C            2.102705070920     1.171138672424     0.805686099163    12.000000000000
         H            0.365705070920    -0.141861327576     0.897686099163     1.007825032230
         H            3.106705070920    -1.112861327576     0.018686099163     1.007825032230
         H            2.852705070920    -0.744861327576     2.625686099163     1.007825032230
         H            1.355705070920     0.011138672424     3.213686099163     1.007825032230
         H            1.338705070920    -1.673861327576     2.660686099163     1.007825032230
         H            1.888705070920     1.528138672424    -0.203313900837     1.007825032230
         H            1.711705070920     1.886138672424     1.528686099163     1.007825032230
         H            3.182705070920     1.084138672424     0.932686099163     1.007825032230
         H            1.683745070920    -0.901511327576    -1.025903900837     1.007825032230
         H            1.726265070920    -2.213741327576     0.210476099163     1.007825032230
         C           -3.110294929080     0.860138672424    -1.017313900837    12.000000000000
         C           -1.745294929080     0.184138672424    -1.069313900837    12.000000000000
         O           -1.617294929080    -0.906861327576    -0.490313900837    15.994914619570
         O           -0.804294929080     0.744138672424    -1.669313900837    15.994914619570
         H           -3.084294929080     1.769138672424    -1.619313900837     1.007825032230
         H           -3.336294929080     1.125138672424     0.018686099163     1.007825032230
         H           -3.915164929080     0.219088672424    -1.406213900837     1.007825032230

  Running in c1 symmetry.

  Rotational constants: A =      0.10418  B =      0.02575  C =      0.02494 [cm^-1]
  Rotational constants: A =   3123.10800  B =    772.08785  C =    747.82929 [MHz]
  Nuclear repulsion =  371.383967893521515

  Charge       = -1
  Multiplicity = 1
  Electrons    = 66
  Nalpha       = 33
  Nbeta        = 33

  ==> Algorithm <==

  SCF Algorithm Type is PK.
  DIIS enabled.
  MOM disabled.
  Fractional occupation disabled.
  Guess Type is SAD.
  Energy threshold   = 1.00e-06
  Density threshold  = 1.00e-10
  Integral threshold = 0.00e+00

  ==> Primary Basis <==

  Basis Set: CC-PVDZ
    Blend: CC-PVDZ
    Number of shells: 87
    Number of basis function: 177
    Number of Cartesian functions: 185
    Spherical Harmonics?: true
    Max angular momentum: 2

  ==> Pre-Iterations <==

   -------------------------------------------------------
    Irrep   Nso     Nmo     Nalpha   Nbeta   Ndocc  Nsocc
   -------------------------------------------------------
     A        177     177       0       0       0       0
   -------------------------------------------------------
    Total     177     177      33      33      33       0
   -------------------------------------------------------

  ==> Integral Setup <==

  Using integral reordering PK algorithm.
  Sizing the integral batches needed.
  Building batch lookup table.
   Calculation information:
      Number of atoms:                  21
      Number of AO shells:              87
      Number of primitives:            241
      Number of atomic orbitals:       185
      Number of basis functions:       177

      Integral cutoff                 1.00e-12
      Number of threads:                 1

	Batch   1 pq = [       0,    9405] index = [             0,44231715] size =     44231715
	Batch   2 pq = [    9405,   13301] index = [      44231715,88464951] size =     44233236
	Batch   3 pq = [   13301,   15753] index = [      88464951,124086381] size =     35621430
  Task number: 12
  Buffer size: 11059200
  Buffer per thread: 2
  We computed 6190656 shell quartets total.
  Whereas there are 7328706 unique shell quartets.

  ==> DiskJK: Disk-Based J/K Matrices <==

    J tasked:                  Yes
    K tasked:                  Yes
    wK tasked:                  No
    Memory [MiB]:              375
    Schwarz Cutoff:          1E-12

    OpenMP threads:              1

  Minimum eigenvalue in the overlap matrix is 4.7043581229E-03.
  Using Symmetric Orthogonalization.

  SCF Guess: Superposition of Atomic Densities via on-the-fly atomic UHF.

  ==> Iterations <==

                        Total Energy        Delta E     RMS |[F,P]|

   @RHF iter SAD:  -382.84294395666063   -3.82843e+02   0.00000e+00
   @RHF iter   1:  -384.22198225994066   -1.37904e+00   4.47140e-03 DIIS
   @RHF iter   2:  -384.48151661713229   -2.59534e-01   2.43436e-03 DIIS
   @RHF iter   3:  -384.55297180484467   -7.14552e-02   3.91751e-04 DIIS
   @RHF iter   4:  -384.55628572643423   -3.31392e-03   1.42993e-04 DIIS
   @RHF iter   5:  -384.55670944844269   -4.23722e-04   2.18174e-05 DIIS
   @RHF iter   6:  -384.55672064023815   -1.11918e-05   6.91260e-06 DIIS
   @RHF iter   7:  -384.55672163666651   -9.96428e-07   1.87966e-06 DIIS
   @RHF iter   8:  -384.55672170554487   -6.88784e-08   6.78018e-07 DIIS
   @RHF iter   9:  -384.55672171386152   -8.31665e-09   1.91135e-07 DIIS
   @RHF iter  10:  -384.55672171481490   -9.53378e-10   4.86423e-08 DIIS
   @RHF iter  11:  -384.55672171492120   -1.06297e-10   1.69009e-08 DIIS
   @RHF iter  12:  -384.55672171493626   -1.50635e-11   5.96642e-09 DIIS
   @RHF iter  13:  -384.55672171494177   -5.51381e-12   1.90632e-09 DIIS
   @RHF iter  14:  -384.55672171493944    2.33058e-12   6.21548e-10 DIIS
   @RHF iter  15:  -384.55672171494041   -9.66338e-13   1.71471e-10 DIIS
   @RHF iter  16:  -384.55672171494024    1.70530e-13   5.03359e-11 DIIS
  Energy and wave function converged.

  ==> Post-Iterations <==

    Orbital Energies [Eh]
    ---------------------

    Doubly Occupied:

       1A    -20.264621     2A    -20.261478     3A    -11.118890
       4A    -11.098055     5A    -11.085622     6A    -11.084623
       7A    -11.076792     8A    -11.054550     9A     -1.157686
      10A     -1.041848    11A     -0.940269    12A     -0.800090
      13A     -0.799397    14A     -0.786699    15A     -0.628642
      16A     -0.505187    17A     -0.493889    18A     -0.459050
      19A     -0.451773    20A     -0.416223    21A     -0.413407
      22A     -0.411604    23A     -0.407931    24A     -0.395456
      25A     -0.379792    26A     -0.346554    27A     -0.329071
      28A     -0.321662    29A     -0.317993    30A     -0.306689
      31A     -0.187437    32A     -0.175099    33A     -0.165569

    Virtual:

      34A      0.300935    35A      0.342723    36A      0.349337
      37A      0.354721    38A      0.364896    39A      0.382578
      40A      0.389727    41A      0.403618    42A      0.415866
      43A      0.416815    44A      0.431544    45A      0.453448
      46A      0.460141    47A      0.483755    48A      0.496685
      49A      0.533386    50A      0.537443    51A      0.570337
      52A      0.684937    53A      0.689674    54A      0.701076
      55A      0.726170    56A      0.744320    57A      0.759501
      58A      0.794495    59A      0.826850    60A      0.853507
      61A      0.892019    62A      0.901082    63A      0.915353
      64A      0.957103    65A      0.963638    66A      0.970679
      67A      0.988089    68A      1.002082    69A      1.012802
      70A      1.017413    71A      1.021436    72A      1.030435
      73A      1.032655    74A      1.034514    75A      1.046556
      76A      1.051405    77A      1.065309    78A      1.074687
      79A      1.082616    80A      1.101889    81A      1.110046
      82A      1.136446    83A      1.137804    84A      1.151939
      85A      1.232124    86A      1.258953    87A      1.263823
      88A      1.298965    89A      1.335610    90A      1.369625
      91A      1.420533    92A      1.494058    93A      1.523678
      94A      1.541879    95A      1.546965    96A      1.577315
      97A      1.586955    98A      1.605422    99A      1.667200
     100A      1.675544   101A      1.693972   102A      1.712926
     103A      1.733282   104A      1.799626   105A      1.804409
     106A      1.810886   107A      1.816692   108A      1.822666
     109A      1.836289   110A      1.837956   111A      1.849634
     112A      1.863199   113A      1.961763   114A      1.976401
     115A      1.996362   116A      2.046736   117A      2.053935
     118A      2.074658   119A      2.080858   120A      2.084682
     121A      2.090743   122A      2.092422   123A      2.097037
     124A      2.103060   125A      2.115760   126A      2.124225
     127A      2.144020   128A      2.187396   129A      2.203178
     130A      2.215429   131A      2.228267   132A      2.244887
     133A      2.275606   134A      2.294763   135A      2.335404
     136A      2.376627   137A      2.387837   138A      2.418562
     139A      2.426926   140A      2.431961   141A      2.455376
     142A      2.465269   143A      2.505316   144A      2.513262
     145A      2.589122   146A      2.611329   147A      2.639227
     148A      2.702650   149A      2.715993   150A      2.726006
     151A      2.757871   152A      2.786700   153A      2.832166
     154A      2.839460   155A      2.879421   156A      2.898611
     157A      2.910058   158A      2.919627   159A      2.923632
     160A      2.950467   161A      2.959173   162A      2.973009
     163A      2.980928   164A      2.992363   165A      3.130549
     166A      3.134677   167A      3.235447   168A      3.257024
     169A      3.276886   170A      3.311862   171A      3.364745
     172A      3.640139   173A      3.787972   174A      3.830356
     175A      4.071060   176A      4.087849   177A      4.209959

    Final Occupation by Irrep:
              A
    DOCC [    33 ]

  @RHF Final Energy:  -384.55672171494024

   => Energetics <=

    Nuclear Repulsion Energy =            371.3839678935215147
    One-Electron Energy =               -1272.5140816280566014
    Two-Electron Energy =                 516.5733920195949622
    Total Energy =                       -384.5567217149401813

Computation Completed

Properties will be evaluated at   0.000000,   0.000000,   0.000000 [a0]

Properties computed using the SCF density matrix

  Nuclear Dipole Moment: [e a0]
     X:     8.3102      Y:     0.7813      Z:     7.3508

  Electronic Dipole Moment: [e a0]
     X:    -6.9728      Y:    -0.4917      Z:    -5.7913

  Dipole Moment: [e a0]
     X:     1.3374      Y:     0.2896      Z:     1.5595     Total:     2.0747

  Dipole Moment: [D]
     X:     3.3992      Y:     0.7360      Z:     3.9639     Total:     5.2735

*** tstop() called on ds3 at Mon Apr 27 18:52:48 2020
Module time:
	user time   =      40.81 seconds =       0.68 minutes
	system time =      17.74 seconds =       0.30 minutes
	total time  =         57 seconds =       0.95 minutes
Total time:
	user time   =      40.81 seconds =       0.68 minutes
	system time =      17.74 seconds =       0.30 minutes
	total time  =         57 seconds =       0.95 minutes
                                     G D M A

                                 by Anthony Stone

                           version 2.2.06, 22 June 2011

               Distributed Multipoles from Gaussian wavefunctions

Starting at 18:52:49 on 27 Apr 2020

Using SCF density matrix from file ./SSI/SSI-175VAL-274ASP-1-dimer.test.30338.fchk

                         Distributed Multipole Analysis

Standard DMA

Positions and radii in angstrom
Multipole moments in atomic units, ea_0^k for rank k

C          x =  1.446705  y = -0.204861  z =  1.029686 angstrom
           Maximum rank =  0   Radius =  0.650 angstrom
                   Q00  =   0.020702

C          x =  2.016705  y = -1.176861  z = -0.014314 angstrom
           Maximum rank =  0   Radius =  0.650 angstrom
                   Q00  =  -0.204702

C          x =  1.771705  y = -0.686861  z =  2.484686 angstrom
           Maximum rank =  0   Radius =  0.650 angstrom
                   Q00  =  -0.272118

C          x =  2.102705  y =  1.171139  z =  0.805686 angstrom
           Maximum rank =  0   Radius =  0.650 angstrom
                   Q00  =  -0.229018

H          x =  0.365705  y = -0.141861  z =  0.897686 angstrom
           Maximum rank =  0   Radius =  0.325 angstrom
                   Q00  =   0.086150

H          x =  3.106705  y = -1.112861  z =  0.018686 angstrom
           Maximum rank =  0   Radius =  0.325 angstrom
                   Q00  =   0.014270

H          x =  2.852705  y = -0.744861  z =  2.625686 angstrom
           Maximum rank =  0   Radius =  0.325 angstrom
                   Q00  =   0.047941

H          x =  1.355705  y =  0.011139  z =  3.213686 angstrom
           Maximum rank =  0   Radius =  0.325 angstrom
                   Q00  =   0.064851

H          x =  1.338705  y = -1.673861  z =  2.660686 angstrom
           Maximum rank =  0   Radius =  0.325 angstrom
                   Q00  =   0.076379

H          x =  1.888705  y =  1.528139  z = -0.203314 angstrom
           Maximum rank =  0   Radius =  0.325 angstrom
                   Q00  =   0.104471

H          x =  1.711705  y =  1.886139  z =  1.528686 angstrom
           Maximum rank =  0   Radius =  0.325 angstrom
                   Q00  =   0.056500

H          x =  3.182705  y =  1.084139  z =  0.932686 angstrom
           Maximum rank =  0   Radius =  0.325 angstrom
                   Q00  =   0.034166

H          x =  1.683745  y = -0.901511  z = -1.025904 angstrom
           Maximum rank =  0   Radius =  0.325 angstrom
                   Q00  =   0.113829

H          x =  1.726265  y = -2.213741  z =  0.210476 angstrom
           Maximum rank =  0   Radius =  0.325 angstrom
                   Q00  =   0.067423

C          x = -3.110295  y =  0.860139  z = -1.017314 angstrom
           Maximum rank =  0   Radius =  0.650 angstrom
                   Q00  =  -0.274432

C          x = -1.745295  y =  0.184139  z = -1.069314 angstrom
           Maximum rank =  0   Radius =  0.650 angstrom
                   Q00  =   0.953698

O          x = -1.617295  y = -0.906861  z = -0.490314 angstrom
           Maximum rank =  0   Radius =  0.650 angstrom
                   Q00  =  -0.919052

O          x = -0.804295  y =  0.744139  z = -1.669314 angstrom
           Maximum rank =  0   Radius =  0.650 angstrom
                   Q00  =  -0.927437

H          x = -3.084295  y =  1.769139  z = -1.619314 angstrom
           Maximum rank =  0   Radius =  0.325 angstrom
                   Q00  =   0.048292

H          x = -3.336295  y =  1.125139  z =  0.018686 angstrom
           Maximum rank =  0   Radius =  0.325 angstrom
                   Q00  =   0.071334

H          x = -3.915165  y =  0.219089  z = -1.406214 angstrom
           Maximum rank =  0   Radius =  0.325 angstrom
                   Q00  =   0.066754

Total multipoles referred to origin at
           x =   0.000000,  y =    0.000000,  z =    0.000000 angstrom
                   Q00  =  -1.000000

Finished at 18:52:49 on 27 Apr 2020

  DMA results are available in the Python driver through the
	  variable('DMA DISTRIBUTED MULTIPOLES')
  and
	  variable('DMA TOTAL MULTIPOLES')
  commands.

    Psi4 stopped on: Monday, 27 April 2020 06:52PM
    Psi4 wall time for execution: 0:00:57.29

*** Psi4 exiting successfully. Buy a developer a beer!
