                               Psi4 1.3.2 release

  ==> Input File <==

--------------------------------------------------------------------------
import numpy as np
set {scf_type pk
basis cc-pvdz
d_convergence 10
gdma_switch   0
gdma_limit    0
gdma_origin   [ 0.0,  0.0,  0.0 ]
}
molecule test {
    units Angstrom
    0 1
    --
    0 1
    C                0.185872326330438     2.496106767056723    -1.477674258272576
    C               -0.372127673669562     0.008106767056723    -1.695674258272576
    C                0.291872326330438     1.042106767056723    -1.107674258272576
    C                0.957872326330438    -0.948893232943277    -0.132674258272576
    C                1.211872326330438     0.454106767056723    -0.151674258272576
    C                1.717872326330438    -1.831893232943277     0.663325741727425
    C                2.157872326330438     0.973106767056723     0.767325741727425
    C                2.616872326330438    -1.289893232943277     1.576325741727425
    C                2.859872326330438     0.080106767056723     1.631325741727424
    N                0.019872326330438    -1.174893232943277    -1.094674258272575
    H               -1.093127673669563     0.101106767056723    -2.501674258272576
    H               -0.230127673669562    -2.084893232943277    -1.466674258272576
    H               -0.138127673669562     2.566106767056723    -2.517674258272576
    H                1.178872326330437     2.943106767056723    -1.405674258272576
    H                1.558872326330438    -2.899893232943277     0.607325741727424
    H                2.351872326330438     2.036106767056723     0.806325741727425
    H                3.170872326330438    -1.950893232943277     2.232325741727424
    H                3.584872326330438     0.470106767056723     2.335325741727424
    H               -0.513897673669562     3.063346767056723    -0.846354258272575
    C               -3.622127673669563    -0.224893232943277     0.016325741727424
    C               -2.814127673669562    -1.045893232943277     1.068325741727425
    O               -3.281127673669562     1.160106767056723     0.079325741727424
    H               -3.389127673669563    -0.591893232943277    -0.984674258272575
    H               -4.688127673669563    -0.345893232943277     0.197325741727424
    H               -1.798127673669562    -0.652893232943277     1.065325741727424
    H               -4.048127673669562     1.672106767056723    -0.209674258272576
    H               -2.753237673669562    -2.104353232943277     0.775145741727424
    H               -3.211007673669562    -0.881543232943277     2.080985741727424

}
e, wfn = energy('scf', return_wfn=True)
gdma(wfn)
dmavals = variable('DMA DISTRIBUTED MULTIPOLES')
charges = np.array(dmavals)
print(charges)
np.save('SSI-071TRP-100SER-1-dimer.npy', np.array(charges))--------------------------------------------------------------------------

*** tstart() called on ds3
*** at Sun Apr 26 17:24:32 2020

   => Loading Basis Set <=

    Name: CC-PVDZ
    Role: ORBITAL
    Keyword: BASIS
    atoms 1-9, 20-21   entry C          line   138 file /theoryfs2/ds/metcalf/miniconda2/envs/tf2gpu/share/psi4/basis/cc-pvdz.gbs
    atoms 10           entry N          line   168 file /theoryfs2/ds/metcalf/miniconda2/envs/tf2gpu/share/psi4/basis/cc-pvdz.gbs
    atoms 11-19, 23-28 entry H          line    22 file /theoryfs2/ds/metcalf/miniconda2/envs/tf2gpu/share/psi4/basis/cc-pvdz.gbs
    atoms 22           entry O          line   198 file /theoryfs2/ds/metcalf/miniconda2/envs/tf2gpu/share/psi4/basis/cc-pvdz.gbs

         ---------------------------------------------------------
                                   SCF
               by Justin Turney, Rob Parrish, Andy Simmonett
                          and Daniel G. A. Smith
                              RHF Reference
                        1 Threads,    500 MiB Core
         ---------------------------------------------------------

  ==> Geometry <==

    Molecular point group: c1
    Full point group: C1

    Geometry (in Angstrom), charge = 0, multiplicity = 1:

       Center              X                  Y                   Z               Mass
    ------------   -----------------  -----------------  -----------------  -----------------
         C            0.185872326330     2.496106767057    -1.477674258273    12.000000000000
         C           -0.372127673670     0.008106767057    -1.695674258273    12.000000000000
         C            0.291872326330     1.042106767057    -1.107674258273    12.000000000000
         C            0.957872326330    -0.948893232943    -0.132674258273    12.000000000000
         C            1.211872326330     0.454106767057    -0.151674258273    12.000000000000
         C            1.717872326330    -1.831893232943     0.663325741727    12.000000000000
         C            2.157872326330     0.973106767057     0.767325741727    12.000000000000
         C            2.616872326330    -1.289893232943     1.576325741727    12.000000000000
         C            2.859872326330     0.080106767057     1.631325741727    12.000000000000
         N            0.019872326330    -1.174893232943    -1.094674258273    14.003074004430
         H           -1.093127673670     0.101106767057    -2.501674258273     1.007825032230
         H           -0.230127673670    -2.084893232943    -1.466674258273     1.007825032230
         H           -0.138127673670     2.566106767057    -2.517674258273     1.007825032230
         H            1.178872326330     2.943106767057    -1.405674258273     1.007825032230
         H            1.558872326330    -2.899893232943     0.607325741727     1.007825032230
         H            2.351872326330     2.036106767057     0.806325741727     1.007825032230
         H            3.170872326330    -1.950893232943     2.232325741727     1.007825032230
         H            3.584872326330     0.470106767057     2.335325741727     1.007825032230
         H           -0.513897673670     3.063346767057    -0.846354258273     1.007825032230
         C           -3.622127673670    -0.224893232943     0.016325741727    12.000000000000
         C           -2.814127673670    -1.045893232943     1.068325741727    12.000000000000
         O           -3.281127673670     1.160106767057     0.079325741727    15.994914619570
         H           -3.389127673670    -0.591893232943    -0.984674258273     1.007825032230
         H           -4.688127673670    -0.345893232943     0.197325741727     1.007825032230
         H           -1.798127673670    -0.652893232943     1.065325741727     1.007825032230
         H           -4.048127673670     1.672106767057    -0.209674258273     1.007825032230
         H           -2.753237673670    -2.104353232943     0.775145741727     1.007825032230
         H           -3.211007673670    -0.881543232943     2.080985741727     1.007825032230

  Running in c1 symmetry.

  Rotational constants: A =      0.03575  B =      0.01681  C =      0.01415 [cm^-1]
  Rotational constants: A =   1071.66502  B =    503.90375  C =    424.34861 [MHz]
  Nuclear repulsion =  763.930261281982894

  Charge       = 0
  Multiplicity = 1
  Electrons    = 96
  Nalpha       = 48
  Nbeta        = 48

  ==> Algorithm <==

  SCF Algorithm Type is PK.
  DIIS enabled.
  MOM disabled.
  Fractional occupation disabled.
  Guess Type is SAD.
  Energy threshold   = 1.00e-06
  Density threshold  = 1.00e-10
  Integral threshold = 0.00e+00

  ==> Primary Basis <==

  Basis Set: CC-PVDZ
    Blend: CC-PVDZ
    Number of shells: 123
    Number of basis function: 257
    Number of Cartesian functions: 270
    Spherical Harmonics?: true
    Max angular momentum: 2

  ==> Pre-Iterations <==

   -------------------------------------------------------
    Irrep   Nso     Nmo     Nalpha   Nbeta   Ndocc  Nsocc
   -------------------------------------------------------
     A        257     257       0       0       0       0
   -------------------------------------------------------
    Total     257     257      48      48      48       0
   -------------------------------------------------------

  ==> Integral Setup <==

  Using integral reordering PK algorithm.
  Sizing the integral batches needed.
  Building batch lookup table.
   Calculation information:
      Number of atoms:                  28
      Number of AO shells:             123
      Number of primitives:            361
      Number of atomic orbitals:       270
      Number of basis functions:       257

      Integral cutoff                 1.00e-12
      Number of threads:                 1

	Batch   1 pq = [       0,    9405] index = [             0,44231715] size =     44231715
	Batch   2 pq = [    9405,   13301] index = [      44231715,88464951] size =     44233236
	Batch   3 pq = [   13301,   16290] index = [      88464951,132690195] size =     44225244
	Batch   4 pq = [   16290,   18810] index = [     132690195,176917455] size =     44227260
	Batch   5 pq = [   18810,   21030] index = [     176917455,221140965] size =     44223510
	Batch   6 pq = [   21030,   23037] index = [     221140965,265363203] size =     44222238
	Batch   7 pq = [   23037,   24883] index = [     265363203,309594286] size =     44231083
	Batch   8 pq = [   24883,   26601] index = [     309594286,353819901] size =     44225615
	Batch   9 pq = [   26601,   28214] index = [     353819901,398029005] size =     44209104
	Batch  10 pq = [   28214,   29740] index = [     398029005,442248670] size =     44219665
	Batch  11 pq = [   29740,   31191] index = [     442248670,486454836] size =     44206166
	Batch  12 pq = [   31191,   32578] index = [     486454836,530679331] size =     44224495
	Batch  13 pq = [   32578,   33153] index = [     530679331,549577281] size =     18897950
  Task number: 50
  Buffer size: 11059200
  Buffer per thread: 2
  We computed 30037149 shell quartets total.
  Whereas there are 29081751 unique shell quartets.
     3.29 percent of shell quartets recomputed by reordering.

  ==> DiskJK: Disk-Based J/K Matrices <==

    J tasked:                  Yes
    K tasked:                  Yes
    wK tasked:                  No
    Memory [MiB]:              375
    Schwarz Cutoff:          1E-12

    OpenMP threads:              1

  Minimum eigenvalue in the overlap matrix is 2.9248333231E-04.
  Using Symmetric Orthogonalization.

  SCF Guess: Superposition of Atomic Densities via on-the-fly atomic UHF.

  ==> Iterations <==

                        Total Energy        Delta E     RMS |[F,P]|

   @RHF iter SAD:  -553.50339164494073   -5.53503e+02   0.00000e+00
   @RHF iter   1:  -554.31878827353557   -8.15397e-01   2.63405e-03 DIIS
   @RHF iter   2:  -554.56316216215907   -2.44374e-01   1.25151e-03 DIIS
   @RHF iter   3:  -554.61149129481055   -4.83291e-02   2.98904e-04 DIIS
   @RHF iter   4:  -554.61553046614233   -4.03917e-03   1.25723e-04 DIIS
   @RHF iter   5:  -554.61612211623094   -5.91650e-04   2.26301e-05 DIIS
   @RHF iter   6:  -554.61615631380357   -3.41976e-05   1.08307e-05 DIIS
   @RHF iter   7:  -554.61616438599310   -8.07219e-06   3.78092e-06 DIIS
   @RHF iter   8:  -554.61616651185659   -2.12586e-06   1.57079e-06 DIIS
   @RHF iter   9:  -554.61616695418718   -4.42331e-07   6.88863e-07 DIIS
   @RHF iter  10:  -554.61616703705556   -8.28684e-08   3.32870e-07 DIIS
   @RHF iter  11:  -554.61616705822041   -2.11649e-08   1.22328e-07 DIIS
   @RHF iter  12:  -554.61616706088239   -2.66198e-09   4.33927e-08 DIIS
   @RHF iter  13:  -554.61616706112454   -2.42153e-10   1.33214e-08 DIIS
   @RHF iter  14:  -554.61616706113398   -9.43601e-12   5.12200e-09 DIIS
   @RHF iter  15:  -554.61616706113955   -5.57066e-12   2.42865e-09 DIIS
   @RHF iter  16:  -554.61616706113773    1.81899e-12   1.18109e-09 DIIS
   @RHF iter  17:  -554.61616706113989   -2.16005e-12   5.38409e-10 DIIS
   @RHF iter  18:  -554.61616706114046   -5.68434e-13   1.99476e-10 DIIS
   @RHF iter  19:  -554.61616706114262   -2.16005e-12   6.22431e-11 DIIS
  Energy and wave function converged.

  ==> Post-Iterations <==

    Orbital Energies [Eh]
    ---------------------

    Doubly Occupied:

       1A    -20.544994     2A    -15.597373     3A    -11.275078
       4A    -11.263876     5A    -11.259627     6A    -11.233816
       7A    -11.229553     8A    -11.227102     9A    -11.221088
      10A    -11.220917    11A    -11.220380    12A    -11.215935
      13A    -11.215527    14A     -1.343753    15A     -1.290202
      16A     -1.117021    17A     -1.064547    18A     -0.994590
      19A     -0.985130    20A     -0.983821    21A     -0.924030
      22A     -0.837531    23A     -0.830015    24A     -0.794246
      25A     -0.744071    26A     -0.712795    27A     -0.684858
      28A     -0.660384    29A     -0.638713    30A     -0.632615
      31A     -0.593980    32A     -0.586372    33A     -0.579556
      34A     -0.564614    35A     -0.555385    36A     -0.545599
      37A     -0.529685    38A     -0.525459    39A     -0.522668
      40A     -0.520164    41A     -0.491912    42A     -0.468473
      43A     -0.464813    44A     -0.453491    45A     -0.430240
      46A     -0.364636    47A     -0.289889    48A     -0.270385

    Virtual:

      49A      0.124649    50A      0.165534    51A      0.171335
      52A      0.185379    53A      0.196929    54A      0.206179
      55A      0.220914    56A      0.227806    57A      0.231007
      58A      0.240920    59A      0.255714    60A      0.258378
      61A      0.269496    62A      0.276580    63A      0.290171
      64A      0.299386    65A      0.308916    66A      0.315219
      67A      0.377235    68A      0.379060    69A      0.386745
      70A      0.397314    71A      0.412892    72A      0.424793
      73A      0.442628    74A      0.474377    75A      0.483157
      76A      0.508147    77A      0.523785    78A      0.581355
      79A      0.610233    80A      0.611962    81A      0.627797
      82A      0.639662    83A      0.655817    84A      0.656753
      85A      0.684978    86A      0.701136    87A      0.709278
      88A      0.712420    89A      0.720960    90A      0.730240
      91A      0.738074    92A      0.744780    93A      0.749919
      94A      0.758822    95A      0.766268    96A      0.772947
      97A      0.782836    98A      0.796927    99A      0.799694
     100A      0.818685   101A      0.827219   102A      0.850363
     103A      0.857792   104A      0.861867   105A      0.870607
     106A      0.878935   107A      0.887220   108A      0.892045
     109A      0.894776   110A      0.901340   111A      0.913911
     112A      0.920923   113A      0.929944   114A      0.944158
     115A      0.954113   116A      0.959324   117A      0.972605
     118A      0.981452   119A      0.999576   120A      1.010121
     121A      1.024467   122A      1.043330   123A      1.067334
     124A      1.096472   125A      1.110039   126A      1.133657
     127A      1.134391   128A      1.138675   129A      1.151469
     130A      1.165347   131A      1.180338   132A      1.197969
     133A      1.221096   134A      1.229923   135A      1.233934
     136A      1.254264   137A      1.260108   138A      1.268841
     139A      1.274766   140A      1.293343   141A      1.301375
     142A      1.320061   143A      1.334463   144A      1.345042
     145A      1.358577   146A      1.374135   147A      1.418865
     148A      1.450289   149A      1.455777   150A      1.475863
     151A      1.502930   152A      1.526098   153A      1.556872
     154A      1.565444   155A      1.575646   156A      1.599728
     157A      1.634543   158A      1.636181   159A      1.653493
     160A      1.666776   161A      1.688957   162A      1.701108
     163A      1.701920   164A      1.745033   165A      1.756489
     166A      1.761651   167A      1.775901   168A      1.778490
     169A      1.822346   170A      1.828585   171A      1.846806
     172A      1.867007   173A      1.873247   174A      1.879088
     175A      1.891794   176A      1.901375   177A      1.911409
     178A      1.914992   179A      1.918937   180A      1.920892
     181A      1.932040   182A      1.943353   183A      1.953033
     184A      1.958604   185A      1.967625   186A      1.982312
     187A      1.988727   188A      1.994589   189A      1.999169
     190A      2.026490   191A      2.030173   192A      2.042181
     193A      2.069819   194A      2.075498   195A      2.087478
     196A      2.097069   197A      2.114335   198A      2.125656
     199A      2.136604   200A      2.146340   201A      2.165830
     202A      2.170923   203A      2.173275   204A      2.206733
     205A      2.218985   206A      2.227991   207A      2.260070
     208A      2.274240   209A      2.294106   210A      2.305748
     211A      2.319288   212A      2.329009   213A      2.334415
     214A      2.350865   215A      2.392667   216A      2.412068
     217A      2.446307   218A      2.461392   219A      2.465355
     220A      2.505561   221A      2.524406   222A      2.568378
     223A      2.575376   224A      2.585082   225A      2.594414
     226A      2.614973   227A      2.657109   228A      2.663878
     229A      2.721370   230A      2.756646   231A      2.764769
     232A      2.775285   233A      2.777916   234A      2.788500
     235A      2.800439   236A      2.823483   237A      2.834696
     238A      2.853114   239A      2.871550   240A      2.879822
     241A      2.907874   242A      2.951893   243A      2.979192
     244A      3.007895   245A      3.055940   246A      3.060909
     247A      3.117489   248A      3.173881   249A      3.267874
     250A      3.318301   251A      3.373509   252A      3.405959
     253A      3.467150   254A      3.610804   255A      3.722516
     256A      3.897875   257A      4.109424

    Final Occupation by Irrep:
              A
    DOCC [    48 ]

  @RHF Final Energy:  -554.61616706114262

   => Energetics <=

    Nuclear Repulsion Energy =            763.9302612819828937
    One-Electron Energy =               -2269.6510443659949487
    Two-Electron Energy =                 951.1046160228694362
    Total Energy =                       -554.6161670611426189

Computation Completed

Properties will be evaluated at   0.000000,   0.000000,   0.000000 [a0]

Properties computed using the SCF density matrix

  Nuclear Dipole Moment: [e a0]
     X:    -9.4071      Y:     1.2649      Z:     0.1608

  Electronic Dipole Moment: [e a0]
     X:     8.3921      Y:    -1.7957      Z:    -0.8729

  Dipole Moment: [e a0]
     X:    -1.0149      Y:    -0.5307      Z:    -0.7121     Total:     1.3487

  Dipole Moment: [D]
     X:    -2.5797      Y:    -1.3489      Z:    -1.8101     Total:     3.4280

*** tstop() called on ds3 at Sun Apr 26 17:30:52 2020
Module time:
	user time   =     250.75 seconds =       4.18 minutes
	system time =      93.76 seconds =       1.56 minutes
	total time  =        380 seconds =       6.33 minutes
Total time:
	user time   =     250.75 seconds =       4.18 minutes
	system time =      93.76 seconds =       1.56 minutes
	total time  =        380 seconds =       6.33 minutes
                                     G D M A

                                 by Anthony Stone

                           version 2.2.06, 22 June 2011

               Distributed Multipoles from Gaussian wavefunctions

Starting at 17:30:52 on 26 Apr 2020

Using SCF density matrix from file ./SSI/SSI-071TRP-100SER-1-dimer.test.18448.fchk

                         Distributed Multipole Analysis

Standard DMA

Positions and radii in angstrom
Multipole moments in atomic units, ea_0^k for rank k

C          x =  0.185872  y =  2.496107  z = -1.477674 angstrom
           Maximum rank =  0   Radius =  0.650 angstrom
                   Q00  =  -0.204276

C          x = -0.372128  y =  0.008107  z = -1.695674 angstrom
           Maximum rank =  0   Radius =  0.650 angstrom
                   Q00  =   0.076200

C          x =  0.291872  y =  1.042107  z = -1.107674 angstrom
           Maximum rank =  0   Radius =  0.650 angstrom
                   Q00  =  -0.102793

C          x =  0.957872  y = -0.948893  z = -0.132674 angstrom
           Maximum rank =  0   Radius =  0.650 angstrom
                   Q00  =   0.232648

C          x =  1.211872  y =  0.454107  z = -0.151674 angstrom
           Maximum rank =  0   Radius =  0.650 angstrom
                   Q00  =  -0.066115

C          x =  1.717872  y = -1.831893  z =  0.663326 angstrom
           Maximum rank =  0   Radius =  0.650 angstrom
                   Q00  =  -0.123322

C          x =  2.157872  y =  0.973107  z =  0.767326 angstrom
           Maximum rank =  0   Radius =  0.650 angstrom
                   Q00  =  -0.099640

C          x =  2.616872  y = -1.289893  z =  1.576326 angstrom
           Maximum rank =  0   Radius =  0.650 angstrom
                   Q00  =   0.000355

C          x =  2.859872  y =  0.080107  z =  1.631326 angstrom
           Maximum rank =  0   Radius =  0.650 angstrom
                   Q00  =  -0.103057

N          x =  0.019872  y = -1.174893  z = -1.094674 angstrom
           Maximum rank =  0   Radius =  0.650 angstrom
                   Q00  =  -0.487320

H          x = -1.093128  y =  0.101107  z = -2.501674 angstrom
           Maximum rank =  0   Radius =  0.325 angstrom
                   Q00  =   0.104468

H          x = -0.230128  y = -2.084893  z = -1.466674 angstrom
           Maximum rank =  0   Radius =  0.325 angstrom
                   Q00  =   0.205501

H          x = -0.138128  y =  2.566107  z = -2.517674 angstrom
           Maximum rank =  0   Radius =  0.325 angstrom
                   Q00  =   0.096609

H          x =  1.178872  y =  2.943107  z = -1.405674 angstrom
           Maximum rank =  0   Radius =  0.325 angstrom
                   Q00  =   0.096618

H          x =  1.558872  y = -2.899893  z =  0.607326 angstrom
           Maximum rank =  0   Radius =  0.325 angstrom
                   Q00  =   0.069581

H          x =  2.351872  y =  2.036107  z =  0.806326 angstrom
           Maximum rank =  0   Radius =  0.325 angstrom
                   Q00  =   0.075373

H          x =  3.170872  y = -1.950893  z =  2.232326 angstrom
           Maximum rank =  0   Radius =  0.325 angstrom
                   Q00  =   0.063769

H          x =  3.584872  y =  0.470107  z =  2.335326 angstrom
           Maximum rank =  0   Radius =  0.325 angstrom
                   Q00  =   0.062865

H          x = -0.513898  y =  3.063347  z = -0.846354 angstrom
           Maximum rank =  0   Radius =  0.325 angstrom
                   Q00  =   0.106154

C          x = -3.622128  y = -0.224893  z =  0.016326 angstrom
           Maximum rank =  0   Radius =  0.650 angstrom
                   Q00  =   0.097081

C          x = -2.814128  y = -1.045893  z =  1.068326 angstrom
           Maximum rank =  0   Radius =  0.650 angstrom
                   Q00  =  -0.249621

O          x = -3.281128  y =  1.160107  z =  0.079326 angstrom
           Maximum rank =  0   Radius =  0.650 angstrom
                   Q00  =  -0.598884

H          x = -3.389128  y = -0.591893  z = -0.984674 angstrom
           Maximum rank =  0   Radius =  0.325 angstrom
                   Q00  =   0.033144

H          x = -4.688128  y = -0.345893  z =  0.197326 angstrom
           Maximum rank =  0   Radius =  0.325 angstrom
                   Q00  =   0.042503

H          x = -1.798128  y = -0.652893  z =  1.065326 angstrom
           Maximum rank =  0   Radius =  0.325 angstrom
                   Q00  =   0.115343

H          x = -4.048128  y =  1.672107  z = -0.209674 angstrom
           Maximum rank =  0   Radius =  0.325 angstrom
                   Q00  =   0.391648

H          x = -2.753238  y = -2.104353  z =  0.775146 angstrom
           Maximum rank =  0   Radius =  0.325 angstrom
                   Q00  =   0.078295

H          x = -3.211008  y = -0.881543  z =  2.080986 angstrom
           Maximum rank =  0   Radius =  0.325 angstrom
                   Q00  =   0.086871

Total multipoles referred to origin at
           x =   0.000000,  y =    0.000000,  z =    0.000000 angstrom
                   Q00  =  -0.000000

Finished at 17:30:52 on 26 Apr 2020

  DMA results are available in the Python driver through the
	  variable('DMA DISTRIBUTED MULTIPOLES')
  and
	  variable('DMA TOTAL MULTIPOLES')
  commands.

    Psi4 stopped on: Sunday, 26 April 2020 05:30PM
    Psi4 wall time for execution: 0:06:20.05

*** Psi4 exiting successfully. Buy a developer a beer!
