                               Psi4 1.3.2 release

  ==> Input File <==

--------------------------------------------------------------------------
import numpy as np
set {scf_type pk
basis cc-pvdz
d_convergence 10
gdma_switch   0
gdma_limit    0
gdma_origin   [ 0.0,  0.0,  0.0 ]
}
molecule test {
    units Angstrom
    0 1
    --
    0 1
    C               -1.119302750602590     0.431571629843162    -0.364108345366630
    C               -0.737302750602590     1.867571629843162    -0.712108345366630
    C               -1.977302750602590    -0.200428370156838    -1.460108345366630
    H               -0.207302750602590    -0.145428370156838    -0.267108345366630
    H               -1.651302750602590     0.439571629843162     0.586891654633370
    H               -1.634302750602590     2.484571629843162    -0.769108345366630
    H               -0.276302750602590     1.857571629843162    -1.700108345366630
    H               -2.915302750602590     0.341571629843162    -1.572108345366630
    H               -1.434302750602590    -0.155428370156838    -2.404108345366630
    H               -0.015502750602590     2.313304629843162    -0.011878345366630
    H               -2.179361750602590    -1.259073370156838    -1.240008345366630
    C                1.674697249397410    -0.512428370156838     1.776891654633370
    C                2.084697249397410    -1.552428370156838     0.740891654633370
    H                1.968697249397410     0.483571629843162     1.476891654633370
    H                0.599697249397410    -0.557428370156838     1.950891654633370
    H                2.180697249397410    -0.711428370156838     2.719891654633370
    H                1.308697249397410    -1.637428370156838    -0.017108345366630
    H                2.109697249397410    -2.518428370156838     1.240891654633370
    H                3.033417249397410    -1.338662370156838     0.226851654633370

}
e, wfn = energy('scf', return_wfn=True)
gdma(wfn)
dmavals = variable('DMA DISTRIBUTED MULTIPOLES')
charges = np.array(dmavals)
print(charges)
np.save('SSI-022LYS-086ILE-1-dimer.npy', np.array(charges))--------------------------------------------------------------------------

*** tstart() called on ds3
*** at Sun Apr 26 18:00:34 2020

   => Loading Basis Set <=

    Name: CC-PVDZ
    Role: ORBITAL
    Keyword: BASIS
    atoms 1-3, 12-13  entry C          line   138 file /theoryfs2/ds/metcalf/miniconda2/envs/tf2gpu/share/psi4/basis/cc-pvdz.gbs
    atoms 4-11, 14-19 entry H          line    22 file /theoryfs2/ds/metcalf/miniconda2/envs/tf2gpu/share/psi4/basis/cc-pvdz.gbs

         ---------------------------------------------------------
                                   SCF
               by Justin Turney, Rob Parrish, Andy Simmonett
                          and Daniel G. A. Smith
                              RHF Reference
                        1 Threads,    500 MiB Core
         ---------------------------------------------------------

  ==> Geometry <==

    Molecular point group: c1
    Full point group: C1

    Geometry (in Angstrom), charge = 0, multiplicity = 1:

       Center              X                  Y                   Z               Mass
    ------------   -----------------  -----------------  -----------------  -----------------
         C           -1.119302750603     0.431571629843    -0.364108345367    12.000000000000
         C           -0.737302750603     1.867571629843    -0.712108345367    12.000000000000
         C           -1.977302750603    -0.200428370157    -1.460108345367    12.000000000000
         H           -0.207302750603    -0.145428370157    -0.267108345367     1.007825032230
         H           -1.651302750603     0.439571629843     0.586891654633     1.007825032230
         H           -1.634302750603     2.484571629843    -0.769108345367     1.007825032230
         H           -0.276302750603     1.857571629843    -1.700108345367     1.007825032230
         H           -2.915302750603     0.341571629843    -1.572108345367     1.007825032230
         H           -1.434302750603    -0.155428370157    -2.404108345367     1.007825032230
         H           -0.015502750603     2.313304629843    -0.011878345367     1.007825032230
         H           -2.179361750603    -1.259073370157    -1.240008345367     1.007825032230
         C            1.674697249397    -0.512428370157     1.776891654633    12.000000000000
         C            2.084697249397    -1.552428370157     0.740891654633    12.000000000000
         H            1.968697249397     0.483571629843     1.476891654633     1.007825032230
         H            0.599697249397    -0.557428370157     1.950891654633     1.007825032230
         H            2.180697249397    -0.711428370157     2.719891654633     1.007825032230
         H            1.308697249397    -1.637428370157    -0.017108345367     1.007825032230
         H            2.109697249397    -2.518428370157     1.240891654633     1.007825032230
         H            3.033417249397    -1.338662370157     0.226851654633     1.007825032230

  Running in c1 symmetry.

  Rotational constants: A =      0.19981  B =      0.04867  C =      0.04285 [cm^-1]
  Rotational constants: A =   5990.09939  B =   1459.10048  C =   1284.52162 [MHz]
  Nuclear repulsion =  182.277602613172945

  Charge       = 0
  Multiplicity = 1
  Electrons    = 44
  Nalpha       = 22
  Nbeta        = 22

  ==> Algorithm <==

  SCF Algorithm Type is PK.
  DIIS enabled.
  MOM disabled.
  Fractional occupation disabled.
  Guess Type is SAD.
  Energy threshold   = 1.00e-06
  Density threshold  = 1.00e-10
  Integral threshold = 0.00e+00

  ==> Primary Basis <==

  Basis Set: CC-PVDZ
    Blend: CC-PVDZ
    Number of shells: 72
    Number of basis function: 140
    Number of Cartesian functions: 145
    Spherical Harmonics?: true
    Max angular momentum: 2

  ==> Pre-Iterations <==

   -------------------------------------------------------
    Irrep   Nso     Nmo     Nalpha   Nbeta   Ndocc  Nsocc
   -------------------------------------------------------
     A        140     140       0       0       0       0
   -------------------------------------------------------
    Total     140     140      22      22      22       0
   -------------------------------------------------------

  ==> Integral Setup <==

  Using integral reordering PK algorithm.
  Sizing the integral batches needed.
  Building batch lookup table.
   Calculation information:
      Number of atoms:                  19
      Number of AO shells:              72
      Number of primitives:            180
      Number of atomic orbitals:       145
      Number of basis functions:       140

      Integral cutoff                 1.00e-12
      Number of threads:                 1

	Batch   1 pq = [       0,    9405] index = [             0,44231715] size =     44231715
	Batch   2 pq = [    9405,    9870] index = [      44231715,48713385] size =      4481670
  Task number: 5
  Buffer size: 11059200
  Buffer per thread: 2
  We computed 3069253 shell quartets total.
  Whereas there are 3454506 unique shell quartets.

  ==> DiskJK: Disk-Based J/K Matrices <==

    J tasked:                  Yes
    K tasked:                  Yes
    wK tasked:                  No
    Memory [MiB]:              375
    Schwarz Cutoff:          1E-12

    OpenMP threads:              1

  Minimum eigenvalue in the overlap matrix is 5.2863197906E-03.
  Using Symmetric Orthogonalization.

  SCF Guess: Superposition of Atomic Densities via on-the-fly atomic UHF.

  ==> Iterations <==

                        Total Energy        Delta E     RMS |[F,P]|

   @RHF iter SAD:  -196.42245739755046   -1.96422e+02   0.00000e+00
   @RHF iter   1:  -197.30807565714673   -8.85618e-01   3.81360e-03 DIIS
   @RHF iter   2:  -197.46881226230153   -1.60737e-01   1.64010e-03 DIIS
   @RHF iter   3:  -197.49720958910541   -2.83973e-02   3.26332e-04 DIIS
   @RHF iter   4:  -197.49942992281495   -2.22033e-03   4.77900e-05 DIIS
   @RHF iter   5:  -197.49946776149622   -3.78387e-05   1.48222e-05 DIIS
   @RHF iter   6:  -197.49947107647029   -3.31497e-06   2.38067e-06 DIIS
   @RHF iter   7:  -197.49947118002387   -1.03554e-07   4.46547e-07 DIIS
   @RHF iter   8:  -197.49947118406050   -4.03662e-09   1.16878e-07 DIIS
   @RHF iter   9:  -197.49947118431578   -2.55284e-10   3.50602e-08 DIIS
   @RHF iter  10:  -197.49947118434500   -2.92175e-11   7.90319e-09 DIIS
   @RHF iter  11:  -197.49947118434571   -7.10543e-13   1.55689e-09 DIIS
   @RHF iter  12:  -197.49947118434633   -6.25278e-13   3.06293e-10 DIIS
   @RHF iter  13:  -197.49947118434625    8.52651e-14   6.14927e-11 DIIS
  Energy and wave function converged.

  ==> Post-Iterations <==

    Orbital Energies [Eh]
    ---------------------

    Doubly Occupied:

       1A    -11.217704     2A    -11.217579     3A    -11.216380
       4A    -11.215143     5A    -11.214830     6A     -1.055149
       7A     -1.020418     8A     -0.922701     9A     -0.840273
      10A     -0.798362    11A     -0.631317    12A     -0.603006
      13A     -0.600835    14A     -0.588928    15A     -0.545740
      16A     -0.529392    17A     -0.505754    18A     -0.490870
      19A     -0.480433    20A     -0.472869    21A     -0.468886
      22A     -0.466895

    Virtual:

      23A      0.170150    24A      0.200288    25A      0.211235
      26A      0.219605    27A      0.241034    28A      0.246128
      29A      0.255289    30A      0.267947    31A      0.286389
      32A      0.290929    33A      0.300605    34A      0.309657
      35A      0.325201    36A      0.366176    37A      0.375838
      38A      0.412025    39A      0.424188    40A      0.575798
      41A      0.586703    42A      0.593594    43A      0.606336
      44A      0.614667    45A      0.619228    46A      0.630725
      47A      0.669569    48A      0.716083    49A      0.777461
      50A      0.803170    51A      0.816780    52A      0.847438
      53A      0.860558    54A      0.871687    55A      0.880522
      56A      0.891100    57A      0.895100    58A      0.900131
      59A      0.906025    60A      0.911208    61A      0.915247
      62A      0.921659    63A      0.942619    64A      0.950327
      65A      0.973304    66A      0.977748    67A      0.994291
      68A      1.034493    69A      1.109298    70A      1.125980
      71A      1.144072    72A      1.149706    73A      1.234919
      74A      1.276101    75A      1.376472    76A      1.462611
      77A      1.468950    78A      1.493940    79A      1.506864
      80A      1.545562    81A      1.606358    82A      1.618446
      83A      1.678355    84A      1.693469    85A      1.695718
      86A      1.699628    87A      1.717692    88A      1.855644
      89A      1.870523    90A      1.871213    91A      1.878810
      92A      1.888664    93A      1.893659    94A      1.915258
      95A      1.927362    96A      1.938709    97A      1.945753
      98A      1.947886    99A      1.964140   100A      1.967797
     101A      1.972690   102A      1.981051   103A      1.996218
     104A      1.997831   105A      2.021805   106A      2.034745
     107A      2.063276   108A      2.121062   109A      2.130033
     110A      2.154497   111A      2.200359   112A      2.300094
     113A      2.309390   114A      2.316568   115A      2.324181
     116A      2.334245   117A      2.340824   118A      2.413841
     119A      2.451448   120A      2.502770   121A      2.543232
     122A      2.583898   123A      2.585352   124A      2.619388
     125A      2.620347   126A      2.640744   127A      2.759636
     128A      2.776427   129A      2.776957   130A      2.787003
     131A      2.800524   132A      2.815139   133A      2.844149
     134A      2.880289   135A      2.912577   136A      2.938336
     137A      2.971654   138A      2.975466   139A      3.015743
     140A      3.103540

    Final Occupation by Irrep:
              A
    DOCC [    22 ]

  @RHF Final Energy:  -197.49947118434625

   => Energetics <=

    Nuclear Repulsion Energy =            182.2776026131729452
    One-Electron Energy =                -625.3472215777419478
    Two-Electron Energy =                 245.5701477802227828
    Total Energy =                       -197.4994711843462483

Computation Completed

Properties will be evaluated at   0.000000,   0.000000,   0.000000 [a0]

Properties computed using the SCF density matrix

  Nuclear Dipole Moment: [e a0]
     X:     0.8317      Y:    -0.3779      Z:     0.2070

  Electronic Dipole Moment: [e a0]
     X:    -0.8190      Y:     0.3528      Z:    -0.1804

  Dipole Moment: [e a0]
     X:     0.0128      Y:    -0.0251      Z:     0.0266     Total:     0.0388

  Dipole Moment: [D]
     X:     0.0325      Y:    -0.0639      Z:     0.0676     Total:     0.0985

*** tstop() called on ds3 at Sun Apr 26 18:00:55 2020
Module time:
	user time   =      16.21 seconds =       0.27 minutes
	system time =       5.78 seconds =       0.10 minutes
	total time  =         21 seconds =       0.35 minutes
Total time:
	user time   =      16.21 seconds =       0.27 minutes
	system time =       5.78 seconds =       0.10 minutes
	total time  =         21 seconds =       0.35 minutes
                                     G D M A

                                 by Anthony Stone

                           version 2.2.06, 22 June 2011

               Distributed Multipoles from Gaussian wavefunctions

Starting at 18:0:55 on 26 Apr 2020

Using SCF density matrix from file ./SSI/SSI-022LYS-086ILE-1-dimer.test.15016.fchk

                         Distributed Multipole Analysis

Standard DMA

Positions and radii in angstrom
Multipole moments in atomic units, ea_0^k for rank k

C          x = -1.119303  y =  0.431572  z = -0.364108 angstrom
           Maximum rank =  0   Radius =  0.650 angstrom
                   Q00  =  -0.082099

C          x = -0.737303  y =  1.867572  z = -0.712108 angstrom
           Maximum rank =  0   Radius =  0.650 angstrom
                   Q00  =  -0.238755

C          x = -1.977303  y = -0.200428  z = -1.460108 angstrom
           Maximum rank =  0   Radius =  0.650 angstrom
                   Q00  =  -0.248520

H          x = -0.207303  y = -0.145428  z = -0.267108 angstrom
           Maximum rank =  0   Radius =  0.325 angstrom
                   Q00  =   0.049779

H          x = -1.651303  y =  0.439572  z =  0.586892 angstrom
           Maximum rank =  0   Radius =  0.325 angstrom
                   Q00  =   0.047059

H          x = -1.634303  y =  2.484572  z = -0.769108 angstrom
           Maximum rank =  0   Radius =  0.325 angstrom
                   Q00  =   0.076458

H          x = -0.276303  y =  1.857572  z = -1.700108 angstrom
           Maximum rank =  0   Radius =  0.325 angstrom
                   Q00  =   0.070209

H          x = -2.915303  y =  0.341572  z = -1.572108 angstrom
           Maximum rank =  0   Radius =  0.325 angstrom
                   Q00  =   0.079248

H          x = -1.434303  y = -0.155428  z = -2.404108 angstrom
           Maximum rank =  0   Radius =  0.325 angstrom
                   Q00  =   0.075558

H          x = -0.015503  y =  2.313305  z = -0.011878 angstrom
           Maximum rank =  0   Radius =  0.325 angstrom
                   Q00  =   0.085734

H          x = -2.179362  y = -1.259073  z = -1.240008 angstrom
           Maximum rank =  0   Radius =  0.325 angstrom
                   Q00  =   0.082802

C          x =  1.674697  y = -0.512428  z =  1.776892 angstrom
           Maximum rank =  0   Radius =  0.650 angstrom
                   Q00  =  -0.232665

C          x =  2.084697  y = -1.552428  z =  0.740892 angstrom
           Maximum rank =  0   Radius =  0.650 angstrom
                   Q00  =  -0.238772

H          x =  1.968697  y =  0.483572  z =  1.476892 angstrom
           Maximum rank =  0   Radius =  0.325 angstrom
                   Q00  =   0.080429

H          x =  0.599697  y = -0.557428  z =  1.950892 angstrom
           Maximum rank =  0   Radius =  0.325 angstrom
                   Q00  =   0.083034

H          x =  2.180697  y = -0.711428  z =  2.719892 angstrom
           Maximum rank =  0   Radius =  0.325 angstrom
                   Q00  =   0.076134

H          x =  1.308697  y = -1.637428  z = -0.017108 angstrom
           Maximum rank =  0   Radius =  0.325 angstrom
                   Q00  =   0.073959

H          x =  2.109697  y = -2.518428  z =  1.240892 angstrom
           Maximum rank =  0   Radius =  0.325 angstrom
                   Q00  =   0.076814

H          x =  3.033417  y = -1.338662  z =  0.226852 angstrom
           Maximum rank =  0   Radius =  0.325 angstrom
                   Q00  =   0.083595

Total multipoles referred to origin at
           x =   0.000000,  y =    0.000000,  z =    0.000000 angstrom
                   Q00  =  -0.000000

Finished at 18:0:55 on 26 Apr 2020

  DMA results are available in the Python driver through the
	  variable('DMA DISTRIBUTED MULTIPOLES')
  and
	  variable('DMA TOTAL MULTIPOLES')
  commands.

    Psi4 stopped on: Sunday, 26 April 2020 06:00PM
    Psi4 wall time for execution: 0:00:21.26

*** Psi4 exiting successfully. Buy a developer a beer!
