                               Psi4 1.3.2 release

  ==> Input File <==

--------------------------------------------------------------------------
import numpy as np
set {scf_type pk
basis cc-pvdz
d_convergence 10
gdma_switch   0
gdma_limit    0
gdma_origin   [ 0.0,  0.0,  0.0 ]
}
molecule test {
    units Angstrom
    0 1
    --
    0 1
    C               -0.788560671999455    -1.589143140312044     2.121539654858759
    C               -0.072560671999455    -2.930143140312044     2.089539654858759
    H               -1.531560671999455    -1.548143140312044     2.896539654858759
    H               -0.063560671999455    -0.785143140312044     2.250539654858758
    H               -1.318560671999454    -1.460143140312044     1.188539654858758
    H                0.670439328000545    -2.905143140312044     1.291539654858758
    H               -0.751670671999455    -3.778845140312045     1.920659654858758
    H                0.460959328000545    -3.071502140312044     3.041049654858758
    C                2.645439328000545     1.548856859687956     0.520539654858758
    C               -0.301560671999455    -0.226143140312044    -0.822460345141242
    C                0.244439328000545     0.939856859687956    -0.200460345141242
    C                1.640439328000545     0.659856859687956    -0.071460345141242
    C                1.844439328000546    -0.558143140312044    -0.619460345141242
    C               -1.592560671999455    -0.520143140312044    -1.179460345141242
    C               -2.210560671999454     0.604856859687956    -1.055460345141242
    C               -0.609560671999455     1.993856859687956     0.113539654858758
    C               -1.832560671999454     1.861856859687956    -0.376460345141242
    N                0.711439328000545    -1.088143140312044    -1.039460345141242
    H                0.643439328000545    -1.959143140312044    -1.547460345141242
    H               -1.904560671999455    -1.369143140312044    -1.754460345141241
    H                2.788439328000545    -0.891143140312044    -0.969460345141242
    H               -2.625560671999455     0.615856859687956    -2.033460345141242
    H               -0.245560671999455     2.924856859687956     0.523539654858758
    H                3.058439328000546     1.082856859687956     1.416539654858758
    H                2.137439328000545     2.465856859687956     0.821539654858758
    H               -2.349560671999455     2.753856859687955    -0.600460345141242
    H                3.448199328000546     1.785351859687956    -0.193350345141242

}
e, wfn = energy('scf', return_wfn=True)
gdma(wfn)
dmavals = variable('DMA DISTRIBUTED MULTIPOLES')
charges = np.array(dmavals)
print(charges)
np.save('SSI-063THR-092TRP-1-dimer.npy', np.array(charges))--------------------------------------------------------------------------

*** tstart() called on ds3
*** at Tue Apr 28 13:23:40 2020

   => Loading Basis Set <=

    Name: CC-PVDZ
    Role: ORBITAL
    Keyword: BASIS
    atoms 1-2, 9-17  entry C          line   138 file /theoryfs2/ds/metcalf/miniconda2/envs/tf2gpu/share/psi4/basis/cc-pvdz.gbs
    atoms 3-8, 19-27 entry H          line    22 file /theoryfs2/ds/metcalf/miniconda2/envs/tf2gpu/share/psi4/basis/cc-pvdz.gbs
    atoms 18         entry N          line   168 file /theoryfs2/ds/metcalf/miniconda2/envs/tf2gpu/share/psi4/basis/cc-pvdz.gbs

         ---------------------------------------------------------
                                   SCF
               by Justin Turney, Rob Parrish, Andy Simmonett
                          and Daniel G. A. Smith
                              RHF Reference
                        1 Threads,    500 MiB Core
         ---------------------------------------------------------

  ==> Geometry <==

    Molecular point group: c1
    Full point group: C1

    Geometry (in Angstrom), charge = 0, multiplicity = 1:

       Center              X                  Y                   Z               Mass
    ------------   -----------------  -----------------  -----------------  -----------------
         C           -0.788560671999    -1.589143140312     2.121539654859    12.000000000000
         C           -0.072560671999    -2.930143140312     2.089539654859    12.000000000000
         H           -1.531560671999    -1.548143140312     2.896539654859     1.007825032230
         H           -0.063560671999    -0.785143140312     2.250539654859     1.007825032230
         H           -1.318560671999    -1.460143140312     1.188539654859     1.007825032230
         H            0.670439328001    -2.905143140312     1.291539654859     1.007825032230
         H           -0.751670671999    -3.778845140312     1.920659654859     1.007825032230
         H            0.460959328001    -3.071502140312     3.041049654859     1.007825032230
         C            2.645439328001     1.548856859688     0.520539654859    12.000000000000
         C           -0.301560671999    -0.226143140312    -0.822460345141    12.000000000000
         C            0.244439328001     0.939856859688    -0.200460345141    12.000000000000
         C            1.640439328001     0.659856859688    -0.071460345141    12.000000000000
         C            1.844439328001    -0.558143140312    -0.619460345141    12.000000000000
         C           -1.592560671999    -0.520143140312    -1.179460345141    12.000000000000
         C           -2.210560671999     0.604856859688    -1.055460345141    12.000000000000
         C           -0.609560671999     1.993856859688     0.113539654859    12.000000000000
         C           -1.832560671999     1.861856859688    -0.376460345141    12.000000000000
         N            0.711439328001    -1.088143140312    -1.039460345141    14.003074004430
         H            0.643439328001    -1.959143140312    -1.547460345141     1.007825032230
         H           -1.904560671999    -1.369143140312    -1.754460345141     1.007825032230
         H            2.788439328001    -0.891143140312    -0.969460345141     1.007825032230
         H           -2.625560671999     0.615856859688    -2.033460345141     1.007825032230
         H           -0.245560671999     2.924856859688     0.523539654859     1.007825032230
         H            3.058439328001     1.082856859688     1.416539654859     1.007825032230
         H            2.137439328001     2.465856859688     0.821539654859     1.007825032230
         H           -2.349560671999     2.753856859688    -0.600460345141     1.007825032230
         H            3.448199328001     1.785351859688    -0.193350345141     1.007825032230

  Running in c1 symmetry.

  Rotational constants: A =      0.03263  B =      0.02923  C =      0.02122 [cm^-1]
  Rotational constants: A =    978.08681  B =    876.14664  C =    636.08108 [MHz]
  Nuclear repulsion =  692.847240982943049

  Charge       = 0
  Multiplicity = 1
  Electrons    = 88
  Nalpha       = 44
  Nbeta        = 44

  ==> Algorithm <==

  SCF Algorithm Type is PK.
  DIIS enabled.
  MOM disabled.
  Fractional occupation disabled.
  Guess Type is SAD.
  Energy threshold   = 1.00e-06
  Density threshold  = 1.00e-10
  Integral threshold = 0.00e+00

  ==> Primary Basis <==

  Basis Set: CC-PVDZ
    Blend: CC-PVDZ
    Number of shells: 117
    Number of basis function: 243
    Number of Cartesian functions: 255
    Spherical Harmonics?: true
    Max angular momentum: 2

  ==> Pre-Iterations <==

   -------------------------------------------------------
    Irrep   Nso     Nmo     Nalpha   Nbeta   Ndocc  Nsocc
   -------------------------------------------------------
     A        243     243       0       0       0       0
   -------------------------------------------------------
    Total     243     243      44      44      44       0
   -------------------------------------------------------

  ==> Integral Setup <==

  Using integral reordering PK algorithm.
  Sizing the integral batches needed.
  Building batch lookup table.
   Calculation information:
      Number of atoms:                  27
      Number of AO shells:             117
      Number of primitives:            339
      Number of atomic orbitals:       255
      Number of basis functions:       243

      Integral cutoff                 1.00e-12
      Number of threads:                 1

	Batch   1 pq = [       0,    9405] index = [             0,44231715] size =     44231715
	Batch   2 pq = [    9405,   13301] index = [      44231715,88464951] size =     44233236
	Batch   3 pq = [   13301,   16290] index = [      88464951,132690195] size =     44225244
	Batch   4 pq = [   16290,   18810] index = [     132690195,176917455] size =     44227260
	Batch   5 pq = [   18810,   21030] index = [     176917455,221140965] size =     44223510
	Batch   6 pq = [   21030,   23037] index = [     221140965,265363203] size =     44222238
	Batch   7 pq = [   23037,   24883] index = [     265363203,309594286] size =     44231083
	Batch   8 pq = [   24883,   26601] index = [     309594286,353819901] size =     44225615
	Batch   9 pq = [   26601,   28214] index = [     353819901,398029005] size =     44209104
	Batch  10 pq = [   28214,   29646] index = [     398029005,439457481] size =     41428476
  Task number: 40
  Buffer size: 11059200
  Buffer per thread: 2
  We computed 27432929 shell quartets total.
  Whereas there are 23829156 unique shell quartets.
    15.12 percent of shell quartets recomputed by reordering.

  ==> DiskJK: Disk-Based J/K Matrices <==

    J tasked:                  Yes
    K tasked:                  Yes
    wK tasked:                  No
    Memory [MiB]:              375
    Schwarz Cutoff:          1E-12

    OpenMP threads:              1

  Minimum eigenvalue in the overlap matrix is 2.7838607220E-04.
  Using Symmetric Orthogonalization.

  SCF Guess: Superposition of Atomic Densities via on-the-fly atomic UHF.

  ==> Iterations <==

                        Total Energy        Delta E     RMS |[F,P]|

   @RHF iter SAD:  -479.74822409455055   -4.79748e+02   0.00000e+00
   @RHF iter   1:  -479.35095640359589    3.97268e-01   2.70671e-03 DIIS
   @RHF iter   2:  -479.59701808814401   -2.46062e-01   1.18758e-03 DIIS
   @RHF iter   3:  -479.64078826002822   -4.37702e-02   3.06537e-04 DIIS
   @RHF iter   4:  -479.64465292808109   -3.86467e-03   1.39404e-04 DIIS
   @RHF iter   5:  -479.64532333285899   -6.70405e-04   2.36708e-05 DIIS
   @RHF iter   6:  -479.64536555155263   -4.22187e-05   1.09224e-05 DIIS
   @RHF iter   7:  -479.64537657924262   -1.10277e-05   4.83772e-06 DIIS
   @RHF iter   8:  -479.64538027454489   -3.69530e-06   2.13568e-06 DIIS
   @RHF iter   9:  -479.64538111829529   -8.43750e-07   9.34842e-07 DIIS
   @RHF iter  10:  -479.64538125864266   -1.40347e-07   3.84067e-07 DIIS
   @RHF iter  11:  -479.64538128291440   -2.42717e-08   1.59814e-07 DIIS
   @RHF iter  12:  -479.64538128646996   -3.55556e-09   4.45794e-08 DIIS
   @RHF iter  13:  -479.64538128673559   -2.65629e-10   1.64614e-08 DIIS
   @RHF iter  14:  -479.64538128677879   -4.32010e-11   6.87831e-09 DIIS
   @RHF iter  15:  -479.64538128679180   -1.30171e-11   3.23313e-09 DIIS
   @RHF iter  16:  -479.64538128678669    5.11591e-12   1.62982e-09 DIIS
   @RHF iter  17:  -479.64538128679357   -6.87805e-12   5.60113e-10 DIIS
   @RHF iter  18:  -479.64538128678930    4.26326e-12   2.53469e-10 DIIS
   @RHF iter  19:  -479.64538128678743    1.87583e-12   8.94291e-11 DIIS
  Energy and wave function converged.

  ==> Post-Iterations <==

    Orbital Energies [Eh]
    ---------------------

    Doubly Occupied:

       1A    -15.597336     2A    -11.258315     3A    -11.242175
       4A    -11.229884     5A    -11.225664     6A    -11.221279
       7A    -11.217252     8A    -11.215732     9A    -11.215640
      10A    -11.208731    11A    -11.207777    12A    -11.196010
      13A     -1.318276    14A     -1.155990    15A     -1.090805
      16A     -1.032249    17A     -1.008419    18A     -0.978531
      19A     -0.936663    20A     -0.835518    21A     -0.826063
      22A     -0.806951    23A     -0.763288    24A     -0.733906
      25A     -0.664790    26A     -0.643267    27A     -0.628732
      28A     -0.613529    29A     -0.599122    30A     -0.588697
      31A     -0.579129    32A     -0.564137    33A     -0.554716
      34A     -0.540582    35A     -0.521210    36A     -0.500294
      37A     -0.490736    38A     -0.482438    39A     -0.477288
      40A     -0.471061    41A     -0.434645    42A     -0.372178
      43A     -0.294865    44A     -0.261634

    Virtual:

      45A      0.125262    46A      0.160558    47A      0.168508
      48A      0.187143    49A      0.199260    50A      0.205753
      51A      0.211596    52A      0.226181    53A      0.241828
      54A      0.254369    55A      0.260976    56A      0.269385
      57A      0.274456    58A      0.283374    59A      0.294465
      60A      0.317068    61A      0.320149    62A      0.321844
      63A      0.368172    64A      0.386978    65A      0.406531
      66A      0.409730    67A      0.426930    68A      0.458293
      69A      0.469309    70A      0.484620    71A      0.503012
      72A      0.529489    73A      0.584420    74A      0.596031
      75A      0.601726    76A      0.610123    77A      0.633613
      78A      0.638271    79A      0.656129    80A      0.664629
      81A      0.674597    82A      0.685817    83A      0.694300
      84A      0.710654    85A      0.718268    86A      0.725623
      87A      0.738290    88A      0.752529    89A      0.755089
      90A      0.772150    91A      0.776215    92A      0.795144
      93A      0.801655    94A      0.816248    95A      0.829518
      96A      0.852482    97A      0.856890    98A      0.873959
      99A      0.879683   100A      0.884770   101A      0.897209
     102A      0.903207   103A      0.905852   104A      0.914392
     105A      0.916695   106A      0.920611   107A      0.943387
     108A      0.948642   109A      0.955823   110A      0.962845
     111A      0.968814   112A      0.989908   113A      0.999235
     114A      1.017195   115A      1.033865   116A      1.038192
     117A      1.054274   118A      1.057799   119A      1.098518
     120A      1.105784   121A      1.131916   122A      1.138540
     123A      1.144763   124A      1.156722   125A      1.172989
     126A      1.187148   127A      1.196844   128A      1.207173
     129A      1.229381   130A      1.237334   131A      1.248298
     132A      1.284658   133A      1.313947   134A      1.317573
     135A      1.354311   136A      1.365318   137A      1.388792
     138A      1.409725   139A      1.415395   140A      1.475859
     141A      1.485658   142A      1.494451   143A      1.518936
     144A      1.540633   145A      1.556532   146A      1.569930
     147A      1.578509   148A      1.594450   149A      1.631562
     150A      1.648748   151A      1.662847   152A      1.681149
     153A      1.695875   154A      1.708682   155A      1.722564
     156A      1.737182   157A      1.775251   158A      1.791589
     159A      1.796315   160A      1.830444   161A      1.836161
     162A      1.845979   163A      1.868787   164A      1.877231
     165A      1.883616   166A      1.890550   167A      1.892042
     168A      1.908374   169A      1.910898   170A      1.928049
     171A      1.942815   172A      1.951500   173A      1.963424
     174A      1.975505   175A      1.978626   176A      1.987759
     177A      1.993567   178A      1.997783   179A      2.010027
     180A      2.013204   181A      2.037123   182A      2.057527
     183A      2.064055   184A      2.084507   185A      2.093716
     186A      2.108629   187A      2.118555   188A      2.127790
     189A      2.132378   190A      2.168183   191A      2.182507
     192A      2.196308   193A      2.229783   194A      2.233258
     195A      2.259829   196A      2.264987   197A      2.294288
     198A      2.315124   199A      2.320138   200A      2.342974
     201A      2.349447   202A      2.375856   203A      2.390376
     204A      2.422482   205A      2.447186   206A      2.460319
     207A      2.475431   208A      2.483564   209A      2.510743
     210A      2.537492   211A      2.572024   212A      2.580129
     213A      2.602990   214A      2.619879   215A      2.640265
     216A      2.656220   217A      2.669060   218A      2.706251
     219A      2.740963   220A      2.757910   221A      2.776561
     222A      2.779057   223A      2.790887   224A      2.833341
     225A      2.845745   226A      2.856854   227A      2.862467
     228A      2.868092   229A      2.881871   230A      2.909933
     231A      2.946248   232A      2.952950   233A      2.996383
     234A      3.022274   235A      3.032423   236A      3.094909
     237A      3.101000   238A      3.160120   239A      3.218578
     240A      3.295490   241A      3.440436   242A      3.781676
     243A      3.812278

    Final Occupation by Irrep:
              A
    DOCC [    44 ]

  @RHF Final Energy:  -479.64538128678743

   => Energetics <=

    Nuclear Repulsion Energy =            692.8472409829430489
    One-Electron Energy =               -2023.3742353307434314
    Two-Electron Energy =                 850.8816130610130131
    Total Energy =                       -479.6453812867873694

Computation Completed

Properties will be evaluated at   0.000000,   0.000000,   0.000000 [a0]

Properties computed using the SCF density matrix

  Nuclear Dipole Moment: [e a0]
     X:     2.2636      Y:    -5.7526      Z:     7.7389

  Electronic Dipole Moment: [e a0]
     X:    -1.7500      Y:     5.2819      Z:    -8.4983

  Dipole Moment: [e a0]
     X:     0.5135      Y:    -0.4707      Z:    -0.7594     Total:     1.0305

  Dipole Moment: [D]
     X:     1.3053      Y:    -1.1964      Z:    -1.9302     Total:     2.6193

*** tstop() called on ds3 at Tue Apr 28 13:31:18 2020
Module time:
	user time   =     214.29 seconds =       3.57 minutes
	system time =      75.25 seconds =       1.25 minutes
	total time  =        458 seconds =       7.63 minutes
Total time:
	user time   =     214.29 seconds =       3.57 minutes
	system time =      75.25 seconds =       1.25 minutes
	total time  =        458 seconds =       7.63 minutes
                                     G D M A

                                 by Anthony Stone

                           version 2.2.06, 22 June 2011

               Distributed Multipoles from Gaussian wavefunctions

Starting at 13:31:18 on 28 Apr 2020

Using SCF density matrix from file ./SSI/SSI-063THR-092TRP-1-dimer.test.16015.fchk

                         Distributed Multipole Analysis

Standard DMA

Positions and radii in angstrom
Multipole moments in atomic units, ea_0^k for rank k

C          x = -0.788561  y = -1.589143  z =  2.121540 angstrom
           Maximum rank =  0   Radius =  0.650 angstrom
                   Q00  =  -0.227618

C          x = -0.072561  y = -2.930143  z =  2.089540 angstrom
           Maximum rank =  0   Radius =  0.650 angstrom
                   Q00  =  -0.244767

H          x = -1.531561  y = -1.548143  z =  2.896540 angstrom
           Maximum rank =  0   Radius =  0.325 angstrom
                   Q00  =   0.073646

H          x = -0.063561  y = -0.785143  z =  2.250540 angstrom
           Maximum rank =  0   Radius =  0.325 angstrom
                   Q00  =   0.086678

H          x = -1.318561  y = -1.460143  z =  1.188540 angstrom
           Maximum rank =  0   Radius =  0.325 angstrom
                   Q00  =   0.086575

H          x =  0.670439  y = -2.905143  z =  1.291540 angstrom
           Maximum rank =  0   Radius =  0.325 angstrom
                   Q00  =   0.069656

H          x = -0.751671  y = -3.778845  z =  1.920660 angstrom
           Maximum rank =  0   Radius =  0.325 angstrom
                   Q00  =   0.071415

H          x =  0.460959  y = -3.071502  z =  3.041050 angstrom
           Maximum rank =  0   Radius =  0.325 angstrom
                   Q00  =   0.072346

C          x =  2.645439  y =  1.548857  z =  0.520540 angstrom
           Maximum rank =  0   Radius =  0.650 angstrom
                   Q00  =  -0.210303

C          x = -0.301561  y = -0.226143  z = -0.822460 angstrom
           Maximum rank =  0   Radius =  0.650 angstrom
                   Q00  =   0.180402

C          x =  0.244439  y =  0.939857  z = -0.200460 angstrom
           Maximum rank =  0   Radius =  0.650 angstrom
                   Q00  =  -0.070654

C          x =  1.640439  y =  0.659857  z = -0.071460 angstrom
           Maximum rank =  0   Radius =  0.650 angstrom
                   Q00  =  -0.133231

C          x =  1.844439  y = -0.558143  z = -0.619460 angstrom
           Maximum rank =  0   Radius =  0.650 angstrom
                   Q00  =   0.046648

C          x = -1.592561  y = -0.520143  z = -1.179460 angstrom
           Maximum rank =  0   Radius =  0.650 angstrom
                   Q00  =   0.030746

C          x = -2.210561  y =  0.604857  z = -1.055460 angstrom
           Maximum rank =  0   Radius =  0.650 angstrom
                   Q00  =  -0.117979

C          x = -0.609561  y =  1.993857  z =  0.113540 angstrom
           Maximum rank =  0   Radius =  0.650 angstrom
                   Q00  =  -0.050575

C          x = -1.832561  y =  1.861857  z = -0.376460 angstrom
           Maximum rank =  0   Radius =  0.650 angstrom
                   Q00  =  -0.143671

N          x =  0.711439  y = -1.088143  z = -1.039460 angstrom
           Maximum rank =  0   Radius =  0.650 angstrom
                   Q00  =  -0.420035

H          x =  0.643439  y = -1.959143  z = -1.547460 angstrom
           Maximum rank =  0   Radius =  0.325 angstrom
                   Q00  =   0.212755

H          x = -1.904561  y = -1.369143  z = -1.754460 angstrom
           Maximum rank =  0   Radius =  0.325 angstrom
                   Q00  =   0.073757

H          x =  2.788439  y = -0.891143  z = -0.969460 angstrom
           Maximum rank =  0   Radius =  0.325 angstrom
                   Q00  =   0.094015

H          x = -2.625561  y =  0.615857  z = -2.033460 angstrom
           Maximum rank =  0   Radius =  0.325 angstrom
                   Q00  =   0.067325

H          x = -0.245561  y =  2.924857  z =  0.523540 angstrom
           Maximum rank =  0   Radius =  0.325 angstrom
                   Q00  =   0.077405

H          x =  3.058439  y =  1.082857  z =  1.416540 angstrom
           Maximum rank =  0   Radius =  0.325 angstrom
                   Q00  =   0.101632

H          x =  2.137439  y =  2.465857  z =  0.821540 angstrom
           Maximum rank =  0   Radius =  0.325 angstrom
                   Q00  =   0.101904

H          x = -2.349561  y =  2.753857  z = -0.600460 angstrom
           Maximum rank =  0   Radius =  0.325 angstrom
                   Q00  =   0.076088

H          x =  3.448199  y =  1.785352  z = -0.193350 angstrom
           Maximum rank =  0   Radius =  0.325 angstrom
                   Q00  =   0.095841

Total multipoles referred to origin at
           x =   0.000000,  y =    0.000000,  z =    0.000000 angstrom
                   Q00  =  -0.000000

Finished at 13:31:18 on 28 Apr 2020

  DMA results are available in the Python driver through the
	  variable('DMA DISTRIBUTED MULTIPOLES')
  and
	  variable('DMA TOTAL MULTIPOLES')
  commands.

    Psi4 stopped on: Tuesday, 28 April 2020 01:31PM
    Psi4 wall time for execution: 0:07:37.98

*** Psi4 exiting successfully. Buy a developer a beer!
