                               Psi4 1.3.2 release

  ==> Input File <==

--------------------------------------------------------------------------
import numpy as np
set {scf_type pk
basis cc-pvdz
d_convergence 10
gdma_switch   0
gdma_limit    0
gdma_origin   [ 0.0,  0.0,  0.0 ]
}
molecule test {
    units Angstrom
    0 1
    --
    0 1
    C               -2.350852346716591     2.121182548006631    -0.936658107697309
    C               -0.141852346716591     1.300182548006631    -0.010658107697309
    C               -1.478852346716591     1.663182548006631     0.202341892302691
    C                0.650147653283409     0.859182548006631     1.058341892302691
    C                0.113147653283409     0.789182548006631     2.340341892302691
    C               -2.006852346716591     1.581182548006631     1.493341892302691
    C               -1.211852346716591     1.152182548006631     2.558341892302691
    H                0.284147653283409     1.368182548006631    -1.001658107697309
    H                1.676147653283409     0.573182548006631     0.883341892302691
    H               -1.773852346716591     2.811182548006631    -1.554658107697309
    H               -3.206852346716591     2.671182548006631    -0.541658107697309
    H                0.724147653283409     0.446182548006631     3.165341892302691
    H               -3.037852346716591     1.851182548006631     1.675341892302691
    H               -1.634852346716591     1.090182548006631     3.551341892302691
    H               -2.712290646716592     1.292042548006631    -1.562668107697309
    C                1.370147653283409    -2.044817451993369    -1.134658107697309
    C                1.900147653283409    -3.478817451993369    -0.947658107697309
    C                2.479147653283408    -1.083817451993369    -1.591658107697309
    C                0.220147653283409    -2.044817451993369    -2.143658107697309
    H                0.993147653283409    -1.681817451993369    -0.179658107697309
    H                2.138147653283409    -3.880817451993369    -1.931658107697309
    H                2.932147653283409    -1.439817451993369    -2.518658107697309
    H                2.058147653283409    -0.093817451993369    -1.761658107697309
    H                3.245147653283409    -0.978817451993369    -0.821658107697309
    H               -0.596852346716591    -2.672817451993369    -1.786658107697309
    H               -0.158852346716591    -1.031817451993369    -2.264658107697309
    H                0.567147653283409    -2.423817451993369    -3.106658107697309
    H                1.132470653283409    -4.108897451993370    -0.474718107697309
    H                2.816500653283409    -3.483137451993369    -0.339158107697309

}
e, wfn = energy('scf', return_wfn=True)
gdma(wfn)
dmavals = variable('DMA DISTRIBUTED MULTIPOLES')
charges = np.array(dmavals)
print(charges)
np.save('SSI-038PHE-042VAL-1-dimer.npy', np.array(charges))--------------------------------------------------------------------------

*** tstart() called on ds3
*** at Tue Apr 28 11:38:49 2020

   => Loading Basis Set <=

    Name: CC-PVDZ
    Role: ORBITAL
    Keyword: BASIS
    atoms 1-7, 16-19  entry C          line   138 file /theoryfs2/ds/metcalf/miniconda2/envs/tf2gpu/share/psi4/basis/cc-pvdz.gbs
    atoms 8-15, 20-29 entry H          line    22 file /theoryfs2/ds/metcalf/miniconda2/envs/tf2gpu/share/psi4/basis/cc-pvdz.gbs

         ---------------------------------------------------------
                                   SCF
               by Justin Turney, Rob Parrish, Andy Simmonett
                          and Daniel G. A. Smith
                              RHF Reference
                        1 Threads,    500 MiB Core
         ---------------------------------------------------------

  ==> Geometry <==

    Molecular point group: c1
    Full point group: C1

    Geometry (in Angstrom), charge = 0, multiplicity = 1:

       Center              X                  Y                   Z               Mass
    ------------   -----------------  -----------------  -----------------  -----------------
         C           -2.350852346717     2.121182548007    -0.936658107697    12.000000000000
         C           -0.141852346717     1.300182548007    -0.010658107697    12.000000000000
         C           -1.478852346717     1.663182548007     0.202341892303    12.000000000000
         C            0.650147653283     0.859182548007     1.058341892303    12.000000000000
         C            0.113147653283     0.789182548007     2.340341892303    12.000000000000
         C           -2.006852346717     1.581182548007     1.493341892303    12.000000000000
         C           -1.211852346717     1.152182548007     2.558341892303    12.000000000000
         H            0.284147653283     1.368182548007    -1.001658107697     1.007825032230
         H            1.676147653283     0.573182548007     0.883341892303     1.007825032230
         H           -1.773852346717     2.811182548007    -1.554658107697     1.007825032230
         H           -3.206852346717     2.671182548007    -0.541658107697     1.007825032230
         H            0.724147653283     0.446182548007     3.165341892303     1.007825032230
         H           -3.037852346717     1.851182548007     1.675341892303     1.007825032230
         H           -1.634852346717     1.090182548007     3.551341892303     1.007825032230
         H           -2.712290646717     1.292042548007    -1.562668107697     1.007825032230
         C            1.370147653283    -2.044817451993    -1.134658107697    12.000000000000
         C            1.900147653283    -3.478817451993    -0.947658107697    12.000000000000
         C            2.479147653283    -1.083817451993    -1.591658107697    12.000000000000
         C            0.220147653283    -2.044817451993    -2.143658107697    12.000000000000
         H            0.993147653283    -1.681817451993    -0.179658107697     1.007825032230
         H            2.138147653283    -3.880817451993    -1.931658107697     1.007825032230
         H            2.932147653283    -1.439817451993    -2.518658107697     1.007825032230
         H            2.058147653283    -0.093817451993    -1.761658107697     1.007825032230
         H            3.245147653283    -0.978817451993    -0.821658107697     1.007825032230
         H           -0.596852346717    -2.672817451993    -1.786658107697     1.007825032230
         H           -0.158852346717    -1.031817451993    -2.264658107697     1.007825032230
         H            0.567147653283    -2.423817451993    -3.106658107697     1.007825032230
         H            1.132470653283    -4.108897451993    -0.474718107697     1.007825032230
         H            2.816500653283    -3.483137451993    -0.339158107697     1.007825032230

  Running in c1 symmetry.

  Rotational constants: A =      0.05178  B =      0.01633  C =      0.01427 [cm^-1]
  Rotational constants: A =   1552.22319  B =    489.46630  C =    427.67907 [MHz]
  Nuclear repulsion =  578.757306235701549

  Charge       = 0
  Multiplicity = 1
  Electrons    = 84
  Nalpha       = 42
  Nbeta        = 42

  ==> Algorithm <==

  SCF Algorithm Type is PK.
  DIIS enabled.
  MOM disabled.
  Fractional occupation disabled.
  Guess Type is SAD.
  Energy threshold   = 1.00e-06
  Density threshold  = 1.00e-10
  Integral threshold = 0.00e+00

  ==> Primary Basis <==

  Basis Set: CC-PVDZ
    Blend: CC-PVDZ
    Number of shells: 120
    Number of basis function: 244
    Number of Cartesian functions: 255
    Spherical Harmonics?: true
    Max angular momentum: 2

  ==> Pre-Iterations <==

   -------------------------------------------------------
    Irrep   Nso     Nmo     Nalpha   Nbeta   Ndocc  Nsocc
   -------------------------------------------------------
     A        244     244       0       0       0       0
   -------------------------------------------------------
    Total     244     244      42      42      42       0
   -------------------------------------------------------

  ==> Integral Setup <==

  Using integral reordering PK algorithm.
  Sizing the integral batches needed.
  Building batch lookup table.
   Calculation information:
      Number of atoms:                  29
      Number of AO shells:             120
      Number of primitives:            332
      Number of atomic orbitals:       255
      Number of basis functions:       244

      Integral cutoff                 1.00e-12
      Number of threads:                 1

	Batch   1 pq = [       0,    9405] index = [             0,44231715] size =     44231715
	Batch   2 pq = [    9405,   13301] index = [      44231715,88464951] size =     44233236
	Batch   3 pq = [   13301,   16290] index = [      88464951,132690195] size =     44225244
	Batch   4 pq = [   16290,   18810] index = [     132690195,176917455] size =     44227260
	Batch   5 pq = [   18810,   21030] index = [     176917455,221140965] size =     44223510
	Batch   6 pq = [   21030,   23037] index = [     221140965,265363203] size =     44222238
	Batch   7 pq = [   23037,   24883] index = [     265363203,309594286] size =     44231083
	Batch   8 pq = [   24883,   26601] index = [     309594286,353819901] size =     44225615
	Batch   9 pq = [   26601,   28214] index = [     353819901,398029005] size =     44209104
	Batch  10 pq = [   28214,   29740] index = [     398029005,442248670] size =     44219665
	Batch  11 pq = [   29740,   29890] index = [     442248670,446720995] size =      4472325
  Task number: 41
  Buffer size: 11059200
  Buffer per thread: 2
  We computed 25776890 shell quartets total.
  Whereas there are 26357430 unique shell quartets.

  ==> DiskJK: Disk-Based J/K Matrices <==

    J tasked:                  Yes
    K tasked:                  Yes
    wK tasked:                  No
    Memory [MiB]:              375
    Schwarz Cutoff:          1E-12

    OpenMP threads:              1

  Minimum eigenvalue in the overlap matrix is 3.1208525583E-04.
  Using Symmetric Orthogonalization.

  SCF Guess: Superposition of Atomic Densities via on-the-fly atomic UHF.

  ==> Iterations <==

                        Total Energy        Delta E     RMS |[F,P]|

   @RHF iter SAD:  -425.87630711200183   -4.25876e+02   0.00000e+00
   @RHF iter   1:  -426.77550191607963   -8.99195e-01   2.63753e-03 DIIS
   @RHF iter   2:  -427.02369927583226   -2.48197e-01   1.11269e-03 DIIS
   @RHF iter   3:  -427.06369521364962   -3.99959e-02   2.44839e-04 DIIS
   @RHF iter   4:  -427.06698424604298   -3.28903e-03   5.61046e-05 DIIS
   @RHF iter   5:  -427.06710597506304   -1.21729e-04   1.32070e-05 DIIS
   @RHF iter   6:  -427.06711332655789   -7.35149e-06   4.03127e-06 DIIS
   @RHF iter   7:  -427.06711400160629   -6.75048e-07   1.22031e-06 DIIS
   @RHF iter   8:  -427.06711406744773   -6.58414e-08   2.51766e-07 DIIS
   @RHF iter   9:  -427.06711407274497   -5.29724e-09   8.50442e-08 DIIS
   @RHF iter  10:  -427.06711407343352   -6.88544e-10   3.61971e-08 DIIS
   @RHF iter  11:  -427.06711407358716   -1.53648e-10   1.51205e-08 DIIS
   @RHF iter  12:  -427.06711407363224   -4.50768e-11   6.59780e-09 DIIS
   @RHF iter  13:  -427.06711407363696   -4.71800e-12   2.97964e-09 DIIS
   @RHF iter  14:  -427.06711407363730   -3.41061e-13   9.53383e-10 DIIS
   @RHF iter  15:  -427.06711407363832   -1.02318e-12   2.82449e-10 DIIS
   @RHF iter  16:  -427.06711407363719    1.13687e-12   1.16728e-10 DIIS
   @RHF iter  17:  -427.06711407363605    1.13687e-12   4.55954e-11 DIIS
  Energy and wave function converged.

  ==> Post-Iterations <==

    Orbital Energies [Eh]
    ---------------------

    Doubly Occupied:

       1A    -11.242969     2A    -11.237561     3A    -11.236624
       4A    -11.233395     5A    -11.232302     6A    -11.231819
       7A    -11.230403     8A    -11.220465     9A    -11.214399
      10A    -11.214092    11A    -11.210638    12A     -1.150955
      13A     -1.076997    14A     -1.044567    15A     -1.010579
      16A     -0.931298    17A     -0.925852    18A     -0.921518
      19A     -0.825533    20A     -0.795081    21A     -0.761423
      22A     -0.691052    23A     -0.632906    24A     -0.630966
      25A     -0.628106    26A     -0.588494    27A     -0.584231
      28A     -0.580171    29A     -0.577125    30A     -0.562617
      31A     -0.536895    32A     -0.535902    33A     -0.529679
      34A     -0.507182    35A     -0.487489    36A     -0.485705
      37A     -0.481653    38A     -0.456991    39A     -0.454459
      40A     -0.452671    41A     -0.331069    42A     -0.322553

    Virtual:

      43A      0.130883    44A      0.139856    45A      0.168869
      46A      0.191746    47A      0.197627    48A      0.217605
      49A      0.224678    50A      0.232032    51A      0.236058
      52A      0.248862    53A      0.252548    54A      0.262831
      55A      0.272692    56A      0.279707    57A      0.289846
      58A      0.296445    59A      0.310510    60A      0.319583
      61A      0.328426    62A      0.356789    63A      0.360081
      64A      0.374256    65A      0.393155    66A      0.405164
      67A      0.411333    68A      0.456086    69A      0.464879
      70A      0.483270    71A      0.494302    72A      0.560509
      73A      0.571666    74A      0.588953    75A      0.596570
      76A      0.611915    77A      0.622939    78A      0.638960
      79A      0.644052    80A      0.681889    81A      0.686461
      82A      0.701661    83A      0.718511    84A      0.735442
      85A      0.738399    86A      0.745099    87A      0.754144
      88A      0.759713    89A      0.774178    90A      0.778357
      91A      0.782788    92A      0.802550    93A      0.807947
      94A      0.832417    95A      0.838970    96A      0.852674
      97A      0.861996    98A      0.868713    99A      0.875302
     100A      0.879531   101A      0.891586   102A      0.892405
     103A      0.899419   104A      0.903783   105A      0.908909
     106A      0.912712   107A      0.920003   108A      0.925503
     109A      0.929969   110A      0.941968   111A      0.950413
     112A      0.957563   113A      0.975198   114A      0.978770
     115A      0.992520   116A      1.002030   117A      1.022394
     118A      1.025357   119A      1.041799   120A      1.064778
     121A      1.123783   122A      1.128439   123A      1.136334
     124A      1.144114   125A      1.156272   126A      1.167828
     127A      1.184551   128A      1.203599   129A      1.242016
     130A      1.247610   131A      1.253191   132A      1.270593
     133A      1.302568   134A      1.310242   135A      1.320774
     136A      1.324842   137A      1.373772   138A      1.408309
     139A      1.413667   140A      1.427219   141A      1.504562
     142A      1.517059   143A      1.553292   144A      1.560759
     145A      1.569756   146A      1.607912   147A      1.653903
     148A      1.673242   149A      1.679315   150A      1.686535
     151A      1.694175   152A      1.698334   153A      1.711575
     154A      1.719126   155A      1.720002   156A      1.741862
     157A      1.749569   158A      1.766742   159A      1.788888
     160A      1.809116   161A      1.843830   162A      1.848459
     163A      1.851197   164A      1.868527   165A      1.890393
     166A      1.902387   167A      1.904577   168A      1.914960
     169A      1.917561   170A      1.932218   171A      1.940977
     172A      1.945934   173A      1.946614   174A      1.955689
     175A      1.964175   176A      1.971030   177A      1.977828
     178A      1.981133   179A      1.988184   180A      2.002054
     181A      2.010953   182A      2.028718   183A      2.037330
     184A      2.054610   185A      2.061959   186A      2.076941
     187A      2.088521   188A      2.108332   189A      2.113555
     190A      2.123285   191A      2.136958   192A      2.148571
     193A      2.156429   194A      2.166252   195A      2.185559
     196A      2.199245   197A      2.242978   198A      2.260358
     199A      2.266987   200A      2.272933   201A      2.289422
     202A      2.307408   203A      2.311092   204A      2.316440
     205A      2.327380   206A      2.335482   207A      2.348799
     208A      2.372494   209A      2.386774   210A      2.461351
     211A      2.474498   212A      2.485167   213A      2.506753
     214A      2.534571   215A      2.579670   216A      2.604904
     217A      2.624491   218A      2.632145   219A      2.707888
     220A      2.727429   221A      2.735534   222A      2.751611
     223A      2.759855   224A      2.768486   225A      2.784949
     226A      2.792081   227A      2.793708   228A      2.808381
     229A      2.817274   230A      2.838397   231A      2.844137
     232A      2.849768   233A      2.862045   234A      2.877437
     235A      2.973369   236A      2.999310   237A      3.010992
     238A      3.023619   239A      3.041088   240A      3.122451
     241A      3.151133   242A      3.197120   243A      3.291449
     244A      3.956565

    Final Occupation by Irrep:
              A
    DOCC [    42 ]

  @RHF Final Energy:  -427.06711407363605

   => Energetics <=

    Nuclear Repulsion Energy =            578.7573062357015488
    One-Electron Energy =               -1723.6360662818899527
    Two-Electron Energy =                 717.8116459725522418
    Total Energy =                       -427.0671140736360485

Computation Completed

Properties will be evaluated at   0.000000,   0.000000,   0.000000 [a0]

Properties computed using the SCF density matrix

  Nuclear Dipole Moment: [e a0]
     X:     5.1054      Y:    -9.0862      Z:    -9.9094

  Electronic Dipole Moment: [e a0]
     X:    -5.2400      Y:     9.1599      Z:     9.8943

  Dipole Moment: [e a0]
     X:    -0.1346      Y:     0.0737      Z:    -0.0151     Total:     0.1542

  Dipole Moment: [D]
     X:    -0.3422      Y:     0.1874      Z:    -0.0384     Total:     0.3921

*** tstop() called on ds3 at Tue Apr 28 11:43:28 2020
Module time:
	user time   =     172.59 seconds =       2.88 minutes
	system time =      64.17 seconds =       1.07 minutes
	total time  =        279 seconds =       4.65 minutes
Total time:
	user time   =     172.59 seconds =       2.88 minutes
	system time =      64.17 seconds =       1.07 minutes
	total time  =        279 seconds =       4.65 minutes
                                     G D M A

                                 by Anthony Stone

                           version 2.2.06, 22 June 2011

               Distributed Multipoles from Gaussian wavefunctions

Starting at 11:43:28 on 28 Apr 2020

Using SCF density matrix from file ./SSI/SSI-038PHE-042VAL-1-dimer.test.4919.fchk

                         Distributed Multipole Analysis

Standard DMA

Positions and radii in angstrom
Multipole moments in atomic units, ea_0^k for rank k

C          x = -2.350852  y =  2.121183  z = -0.936658 angstrom
           Maximum rank =  0   Radius =  0.650 angstrom
                   Q00  =  -0.202790

C          x = -0.141852  y =  1.300183  z = -0.010658 angstrom
           Maximum rank =  0   Radius =  0.650 angstrom
                   Q00  =  -0.079519

C          x = -1.478852  y =  1.663183  z =  0.202342 angstrom
           Maximum rank =  0   Radius =  0.650 angstrom
                   Q00  =  -0.093368

C          x =  0.650148  y =  0.859183  z =  1.058342 angstrom
           Maximum rank =  0   Radius =  0.650 angstrom
                   Q00  =  -0.079084

C          x =  0.113148  y =  0.789183  z =  2.340342 angstrom
           Maximum rank =  0   Radius =  0.650 angstrom
                   Q00  =  -0.094616

C          x = -2.006852  y =  1.581183  z =  1.493342 angstrom
           Maximum rank =  0   Radius =  0.650 angstrom
                   Q00  =  -0.050198

C          x = -1.211852  y =  1.152183  z =  2.558342 angstrom
           Maximum rank =  0   Radius =  0.650 angstrom
                   Q00  =  -0.015061

H          x =  0.284148  y =  1.368183  z = -1.001658 angstrom
           Maximum rank =  0   Radius =  0.325 angstrom
                   Q00  =   0.058488

H          x =  1.676148  y =  0.573183  z =  0.883342 angstrom
           Maximum rank =  0   Radius =  0.325 angstrom
                   Q00  =   0.067560

H          x = -1.773852  y =  2.811183  z = -1.554658 angstrom
           Maximum rank =  0   Radius =  0.325 angstrom
                   Q00  =   0.098744

H          x = -3.206852  y =  2.671183  z = -0.541658 angstrom
           Maximum rank =  0   Radius =  0.325 angstrom
                   Q00  =   0.097901

H          x =  0.724148  y =  0.446183  z =  3.165342 angstrom
           Maximum rank =  0   Radius =  0.325 angstrom
                   Q00  =   0.061217

H          x = -3.037852  y =  1.851183  z =  1.675342 angstrom
           Maximum rank =  0   Radius =  0.325 angstrom
                   Q00  =   0.059089

H          x = -1.634852  y =  1.090183  z =  3.551342 angstrom
           Maximum rank =  0   Radius =  0.325 angstrom
                   Q00  =   0.065538

H          x = -2.712291  y =  1.292043  z = -1.562668 angstrom
           Maximum rank =  0   Radius =  0.325 angstrom
                   Q00  =   0.105655

C          x =  1.370148  y = -2.044817  z = -1.134658 angstrom
           Maximum rank =  0   Radius =  0.650 angstrom
                   Q00  =  -0.004395

C          x =  1.900148  y = -3.478817  z = -0.947658 angstrom
           Maximum rank =  0   Radius =  0.650 angstrom
                   Q00  =  -0.232536

C          x =  2.479148  y = -1.083817  z = -1.591658 angstrom
           Maximum rank =  0   Radius =  0.650 angstrom
                   Q00  =  -0.252312

C          x =  0.220148  y = -2.044817  z = -2.143658 angstrom
           Maximum rank =  0   Radius =  0.650 angstrom
                   Q00  =  -0.242131

H          x =  0.993148  y = -1.681817  z = -0.179658 angstrom
           Maximum rank =  0   Radius =  0.325 angstrom
                   Q00  =   0.027765

H          x =  2.138148  y = -3.880817  z = -1.931658 angstrom
           Maximum rank =  0   Radius =  0.325 angstrom
                   Q00  =   0.072626

H          x =  2.932148  y = -1.439817  z = -2.518658 angstrom
           Maximum rank =  0   Radius =  0.325 angstrom
                   Q00  =   0.078031

H          x =  2.058148  y = -0.093817  z = -1.761658 angstrom
           Maximum rank =  0   Radius =  0.325 angstrom
                   Q00  =   0.075931

H          x =  3.245148  y = -0.978817  z = -0.821658 angstrom
           Maximum rank =  0   Radius =  0.325 angstrom
                   Q00  =   0.080079

H          x = -0.596852  y = -2.672817  z = -1.786658 angstrom
           Maximum rank =  0   Radius =  0.325 angstrom
                   Q00  =   0.082632

H          x = -0.158852  y = -1.031817  z = -2.264658 angstrom
           Maximum rank =  0   Radius =  0.325 angstrom
                   Q00  =   0.079939

H          x =  0.567148  y = -2.423817  z = -3.106658 angstrom
           Maximum rank =  0   Radius =  0.325 angstrom
                   Q00  =   0.072133

H          x =  1.132471  y = -4.108897  z = -0.474718 angstrom
           Maximum rank =  0   Radius =  0.325 angstrom
                   Q00  =   0.083541

H          x =  2.816501  y = -3.483137  z = -0.339158 angstrom
           Maximum rank =  0   Radius =  0.325 angstrom
                   Q00  =   0.079144

Total multipoles referred to origin at
           x =   0.000000,  y =    0.000000,  z =    0.000000 angstrom
                   Q00  =  -0.000000

Finished at 11:43:28 on 28 Apr 2020

  DMA results are available in the Python driver through the
	  variable('DMA DISTRIBUTED MULTIPOLES')
  and
	  variable('DMA TOTAL MULTIPOLES')
  commands.

    Psi4 stopped on: Tuesday, 28 April 2020 11:43AM
    Psi4 wall time for execution: 0:04:39.75

*** Psi4 exiting successfully. Buy a developer a beer!
