                               Psi4 1.3.2 release

  ==> Input File <==

--------------------------------------------------------------------------
import numpy as np
set {scf_type pk
basis cc-pvdz
d_convergence 10
gdma_switch   0
gdma_limit    0
gdma_origin   [ 0.0,  0.0,  0.0 ]
}
molecule test {
    units Angstrom
    0 1
    --
    0 1
    C                2.320087500197883    -0.792775229304709    -1.649935753119693
    C                0.674087500197883    -0.385775229304709     0.350064246880307
    C                1.983087500197883    -0.402775229304709    -0.248935753119693
    C                0.831087500197883     0.050224770695291     1.691064246880307
    C                2.849087500197883     0.006224770695291     0.715064246880307
    C               -0.617912499802117    -0.679775229304709    -0.110935753119693
    C               -1.691912499802116    -0.543775229304709     0.763064246880307
    C               -1.499912499802117    -0.114775229304709     2.082064246880307
    C               -0.238912499802117     0.193224770695291     2.558064246880307
    N                2.167087500197883     0.279224770695291     1.877064246880307
    H               -0.803912499802116    -0.963775229304709    -1.131935753119693
    H               -2.694912499802117    -0.745775229304709     0.411064246880307
    H               -2.354912499802117     0.021224770695291     2.730064246880307
    H                3.404087500197883    -0.879775229304709    -1.736935753119693
    H                1.994087500197883     0.011224770695291    -2.310935753119693
    H                3.920087500197883     0.099224770695291     0.577064246880307
    H                2.580087500197883     0.690224770695291     2.712064246880307
    H               -0.091912499802117     0.532224770695291     3.571064246880308
    H                1.857747500197883    -1.734675229304709    -1.980176753119693
    C               -2.718912499802117     0.597224770695291    -2.943935753119693
    C               -3.507912499802117     1.472224770695291    -3.907935753119693
    H               -2.350912499802117    -0.287775229304709    -3.457935753119693
    H               -1.863912499802116     1.148224770695291    -2.552935753119693
    H               -3.345912499802117     0.283224770695291    -2.112935753119693
    H               -2.907912499802117     1.769224770695291    -4.741935753119694
    H               -4.380892499802116     0.928494770695291    -4.298156753119692
    H               -3.805482499802117     2.399214770695291    -3.395939753119693

}
e, wfn = energy('scf', return_wfn=True)
gdma(wfn)
dmavals = variable('DMA DISTRIBUTED MULTIPOLES')
charges = np.array(dmavals)
print(charges)
np.save('SSI-096TRP-110LEU-1-dimer.npy', np.array(charges))--------------------------------------------------------------------------

*** tstart() called on ds3
*** at Sun Apr 26 22:45:08 2020

   => Loading Basis Set <=

    Name: CC-PVDZ
    Role: ORBITAL
    Keyword: BASIS
    atoms 1-9, 20-21   entry C          line   138 file /theoryfs2/ds/metcalf/miniconda2/envs/tf2gpu/share/psi4/basis/cc-pvdz.gbs
    atoms 10           entry N          line   168 file /theoryfs2/ds/metcalf/miniconda2/envs/tf2gpu/share/psi4/basis/cc-pvdz.gbs
    atoms 11-19, 22-27 entry H          line    22 file /theoryfs2/ds/metcalf/miniconda2/envs/tf2gpu/share/psi4/basis/cc-pvdz.gbs

         ---------------------------------------------------------
                                   SCF
               by Justin Turney, Rob Parrish, Andy Simmonett
                          and Daniel G. A. Smith
                              RHF Reference
                        1 Threads,    500 MiB Core
         ---------------------------------------------------------

  ==> Geometry <==

    Molecular point group: c1
    Full point group: C1

    Geometry (in Angstrom), charge = 0, multiplicity = 1:

       Center              X                  Y                   Z               Mass
    ------------   -----------------  -----------------  -----------------  -----------------
         C            2.320087500198    -0.792775229305    -1.649935753120    12.000000000000
         C            0.674087500198    -0.385775229305     0.350064246880    12.000000000000
         C            1.983087500198    -0.402775229305    -0.248935753120    12.000000000000
         C            0.831087500198     0.050224770695     1.691064246880    12.000000000000
         C            2.849087500198     0.006224770695     0.715064246880    12.000000000000
         C           -0.617912499802    -0.679775229305    -0.110935753120    12.000000000000
         C           -1.691912499802    -0.543775229305     0.763064246880    12.000000000000
         C           -1.499912499802    -0.114775229305     2.082064246880    12.000000000000
         C           -0.238912499802     0.193224770695     2.558064246880    12.000000000000
         N            2.167087500198     0.279224770695     1.877064246880    14.003074004430
         H           -0.803912499802    -0.963775229305    -1.131935753120     1.007825032230
         H           -2.694912499802    -0.745775229305     0.411064246880     1.007825032230
         H           -2.354912499802     0.021224770695     2.730064246880     1.007825032230
         H            3.404087500198    -0.879775229305    -1.736935753120     1.007825032230
         H            1.994087500198     0.011224770695    -2.310935753120     1.007825032230
         H            3.920087500198     0.099224770695     0.577064246880     1.007825032230
         H            2.580087500198     0.690224770695     2.712064246880     1.007825032230
         H           -0.091912499802     0.532224770695     3.571064246880     1.007825032230
         H            1.857747500198    -1.734675229305    -1.980176753120     1.007825032230
         C           -2.718912499802     0.597224770695    -2.943935753120    12.000000000000
         C           -3.507912499802     1.472224770695    -3.907935753120    12.000000000000
         H           -2.350912499802    -0.287775229305    -3.457935753120     1.007825032230
         H           -1.863912499802     1.148224770695    -2.552935753120     1.007825032230
         H           -3.345912499802     0.283224770695    -2.112935753120     1.007825032230
         H           -2.907912499802     1.769224770695    -4.741935753120     1.007825032230
         H           -4.380892499802     0.928494770695    -4.298156753120     1.007825032230
         H           -3.805482499802     2.399214770695    -3.395939753120     1.007825032230

  Running in c1 symmetry.

  Rotational constants: A =      0.03890  B =      0.01587  C =      0.01206 [cm^-1]
  Rotational constants: A =   1166.22372  B =    475.64097  C =    361.56896 [MHz]
  Nuclear repulsion =  641.555836063900983

  Charge       = 0
  Multiplicity = 1
  Electrons    = 88
  Nalpha       = 44
  Nbeta        = 44

  ==> Algorithm <==

  SCF Algorithm Type is PK.
  DIIS enabled.
  MOM disabled.
  Fractional occupation disabled.
  Guess Type is SAD.
  Energy threshold   = 1.00e-06
  Density threshold  = 1.00e-10
  Integral threshold = 0.00e+00

  ==> Primary Basis <==

  Basis Set: CC-PVDZ
    Blend: CC-PVDZ
    Number of shells: 117
    Number of basis function: 243
    Number of Cartesian functions: 255
    Spherical Harmonics?: true
    Max angular momentum: 2

  ==> Pre-Iterations <==

   -------------------------------------------------------
    Irrep   Nso     Nmo     Nalpha   Nbeta   Ndocc  Nsocc
   -------------------------------------------------------
     A        243     243       0       0       0       0
   -------------------------------------------------------
    Total     243     243      44      44      44       0
   -------------------------------------------------------

  ==> Integral Setup <==

  Using integral reordering PK algorithm.
  Sizing the integral batches needed.
  Building batch lookup table.
   Calculation information:
      Number of atoms:                  27
      Number of AO shells:             117
      Number of primitives:            339
      Number of atomic orbitals:       255
      Number of basis functions:       243

      Integral cutoff                 1.00e-12
      Number of threads:                 1

	Batch   1 pq = [       0,    9405] index = [             0,44231715] size =     44231715
	Batch   2 pq = [    9405,   13301] index = [      44231715,88464951] size =     44233236
	Batch   3 pq = [   13301,   16290] index = [      88464951,132690195] size =     44225244
	Batch   4 pq = [   16290,   18810] index = [     132690195,176917455] size =     44227260
	Batch   5 pq = [   18810,   21030] index = [     176917455,221140965] size =     44223510
	Batch   6 pq = [   21030,   23037] index = [     221140965,265363203] size =     44222238
	Batch   7 pq = [   23037,   24883] index = [     265363203,309594286] size =     44231083
	Batch   8 pq = [   24883,   26601] index = [     309594286,353819901] size =     44225615
	Batch   9 pq = [   26601,   28214] index = [     353819901,398029005] size =     44209104
	Batch  10 pq = [   28214,   29646] index = [     398029005,439457481] size =     41428476
  Task number: 40
  Buffer size: 11059200
  Buffer per thread: 2
  We computed 19749396 shell quartets total.
  Whereas there are 23829156 unique shell quartets.

  ==> DiskJK: Disk-Based J/K Matrices <==

    J tasked:                  Yes
    K tasked:                  Yes
    wK tasked:                  No
    Memory [MiB]:              375
    Schwarz Cutoff:          1E-12

    OpenMP threads:              1

  Minimum eigenvalue in the overlap matrix is 2.3379915265E-04.
  Using Symmetric Orthogonalization.

  SCF Guess: Superposition of Atomic Densities via on-the-fly atomic UHF.

  ==> Iterations <==

                        Total Energy        Delta E     RMS |[F,P]|

   @RHF iter SAD:  -479.07145382317486   -4.79071e+02   0.00000e+00
   @RHF iter   1:  -479.48825986468933   -4.16806e-01   2.61780e-03 DIIS
   @RHF iter   2:  -479.72262187754848   -2.34362e-01   1.16291e-03 DIIS
   @RHF iter   3:  -479.76480340426446   -4.21815e-02   3.01160e-04 DIIS
   @RHF iter   4:  -479.76858086519195   -3.77746e-03   1.39236e-04 DIIS
   @RHF iter   5:  -479.76922624499304   -6.45380e-04   2.01415e-05 DIIS
   @RHF iter   6:  -479.76925590674989   -2.96618e-05   9.27365e-06 DIIS
   @RHF iter   7:  -479.76926203346875   -6.12672e-06   3.88723e-06 DIIS
   @RHF iter   8:  -479.76926380031330   -1.76684e-06   1.52964e-06 DIIS
   @RHF iter   9:  -479.76926415026907   -3.49956e-07   6.73457e-07 DIIS
   @RHF iter  10:  -479.76926421906012   -6.87911e-08   3.09596e-07 DIIS
   @RHF iter  11:  -479.76926423573019   -1.66701e-08   1.14163e-07 DIIS
   @RHF iter  12:  -479.76926423793600   -2.20581e-09   3.64965e-08 DIIS
   @RHF iter  13:  -479.76926423808135   -1.45349e-10   9.80736e-09 DIIS
   @RHF iter  14:  -479.76926423810067   -1.93268e-11   4.01026e-09 DIIS
   @RHF iter  15:  -479.76926423810136   -6.82121e-13   2.23098e-09 DIIS
   @RHF iter  16:  -479.76926423810050    8.52651e-13   9.60638e-10 DIIS
   @RHF iter  17:  -479.76926423809761    2.89901e-12   3.81822e-10 DIIS
   @RHF iter  18:  -479.76926423809988   -2.27374e-12   1.56821e-10 DIIS
   @RHF iter  19:  -479.76926423809658    3.29692e-12   5.14127e-11 DIIS
  Energy and wave function converged.

  ==> Post-Iterations <==

    Orbital Energies [Eh]
    ---------------------

    Doubly Occupied:

       1A    -15.599870     2A    -11.262810     3A    -11.261987
       4A    -11.228959     5A    -11.228375     6A    -11.227125
       7A    -11.226196     8A    -11.219581     9A    -11.219250
      10A    -11.216802    11A    -11.213559    12A    -11.212189
      13A     -1.294547    14A     -1.127633    15A     -1.073289
      16A     -1.017179    17A     -0.997093    18A     -0.986995
      19A     -0.930708    20A     -0.838810    21A     -0.835912
      22A     -0.802464    23A     -0.752308    24A     -0.718768
      25A     -0.662128    26A     -0.640962    27A     -0.601386
      28A     -0.596512    29A     -0.594246    30A     -0.592989
      31A     -0.589007    32A     -0.566322    33A     -0.552517
      34A     -0.537864    35A     -0.527025    36A     -0.501351
      37A     -0.494996    38A     -0.483767    39A     -0.480623
      40A     -0.469069    41A     -0.460577    42A     -0.371328
      43A     -0.294342    44A     -0.274843

    Virtual:

      45A      0.126725    46A      0.169824    47A      0.177169
      48A      0.181749    49A      0.195602    50A      0.202966
      51A      0.221997    52A      0.223328    53A      0.231178
      54A      0.248368    55A      0.256984    56A      0.260923
      57A      0.274779    58A      0.279103    59A      0.283660
      60A      0.303239    61A      0.311646    62A      0.333947
      63A      0.374349    64A      0.385057    65A      0.401044
      66A      0.411226    67A      0.432834    68A      0.448871
      69A      0.478404    70A      0.483192    71A      0.499915
      72A      0.512470    73A      0.589617    74A      0.596285
      75A      0.604215    76A      0.610079    77A      0.633689
      78A      0.635023    79A      0.651294    80A      0.661366
      81A      0.684852    82A      0.692824    83A      0.699295
      84A      0.708451    85A      0.720766    86A      0.731880
      87A      0.740825    88A      0.744446    89A      0.747707
      90A      0.761087    91A      0.771550    92A      0.783157
      93A      0.790022    94A      0.796553    95A      0.805690
      96A      0.835681    97A      0.840894    98A      0.873200
      99A      0.881292   100A      0.888349   101A      0.890625
     102A      0.894209   103A      0.897894   104A      0.901285
     105A      0.909406   106A      0.913320   107A      0.919155
     108A      0.932037   109A      0.947842   110A      0.954719
     111A      0.958180   112A      0.966799   113A      0.989565
     114A      0.995327   115A      1.013817   116A      1.015625
     117A      1.063938   118A      1.072095   119A      1.092792
     120A      1.125252   121A      1.131400   122A      1.135391
     123A      1.139469   124A      1.143926   125A      1.159593
     126A      1.178535   127A      1.211291   128A      1.226667
     129A      1.231003   130A      1.238147   131A      1.254567
     132A      1.258389   133A      1.273065   134A      1.293236
     135A      1.309407   136A      1.328322   137A      1.338195
     138A      1.358936   139A      1.373182   140A      1.403609
     141A      1.446551   142A      1.480192   143A      1.482719
     144A      1.528845   145A      1.563456   146A      1.582990
     147A      1.587618   148A      1.591812   149A      1.634475
     150A      1.642239   151A      1.650780   152A      1.686599
     153A      1.689715   154A      1.696848   155A      1.702749
     156A      1.742565   157A      1.761885   158A      1.779691
     159A      1.788696   160A      1.805764   161A      1.823415
     162A      1.831753   163A      1.868526   164A      1.873431
     165A      1.888204   166A      1.892666   167A      1.906404
     168A      1.919320   169A      1.922394   170A      1.925904
     171A      1.938572   172A      1.943622   173A      1.953235
     174A      1.955088   175A      1.959870   176A      1.961654
     177A      1.968050   178A      1.973980   179A      2.003536
     180A      2.006441   181A      2.021273   182A      2.038688
     183A      2.049299   184A      2.072440   185A      2.088266
     186A      2.092496   187A      2.098701   188A      2.107888
     189A      2.110326   190A      2.116859   191A      2.126619
     192A      2.140330   193A      2.157466   194A      2.176759
     195A      2.190156   196A      2.229667   197A      2.241764
     198A      2.290312   199A      2.296411   200A      2.317487
     201A      2.326898   202A      2.345552   203A      2.351405
     204A      2.361460   205A      2.392889   206A      2.430079
     207A      2.455144   208A      2.463993   209A      2.472969
     210A      2.474563   211A      2.535540   212A      2.571837
     213A      2.574661   214A      2.584063   215A      2.605610
     216A      2.651554   217A      2.656231   218A      2.681051
     219A      2.704512   220A      2.766538   221A      2.775539
     222A      2.780142   223A      2.784505   224A      2.796684
     225A      2.805044   226A      2.833026   227A      2.863129
     228A      2.868592   229A      2.884724   230A      2.891694
     231A      2.918027   232A      2.951556   233A      2.971495
     234A      2.987611   235A      3.044959   236A      3.053119
     237A      3.082636   238A      3.121173   239A      3.208647
     240A      3.314741   241A      3.384140   242A      3.738220
     243A      3.956480

    Final Occupation by Irrep:
              A
    DOCC [    44 ]

  @RHF Final Energy:  -479.76926423809658

   => Energetics <=

    Nuclear Repulsion Energy =            641.5558360639009834
    One-Electron Energy =               -1921.0816735742234869
    Two-Electron Energy =                 799.7565732722259781
    Total Energy =                       -479.7692642380966390

Computation Completed

Properties will be evaluated at   0.000000,   0.000000,   0.000000 [a0]

Properties computed using the SCF density matrix

  Nuclear Dipole Moment: [e a0]
     X:   -10.1728      Y:     3.0654      Z:   -16.6160

  Electronic Dipole Moment: [e a0]
     X:    10.8521      Y:    -2.7606      Z:    16.9648

  Dipole Moment: [e a0]
     X:     0.6793      Y:     0.3048      Z:     0.3488     Total:     0.8222

  Dipole Moment: [D]
     X:     1.7267      Y:     0.7746      Z:     0.8865     Total:     2.0899

*** tstop() called on ds3 at Sun Apr 26 22:55:02 2020
Module time:
	user time   =     156.25 seconds =       2.60 minutes
	system time =      67.16 seconds =       1.12 minutes
	total time  =        594 seconds =       9.90 minutes
Total time:
	user time   =     156.25 seconds =       2.60 minutes
	system time =      67.16 seconds =       1.12 minutes
	total time  =        594 seconds =       9.90 minutes
                                     G D M A

                                 by Anthony Stone

                           version 2.2.06, 22 June 2011

               Distributed Multipoles from Gaussian wavefunctions

Starting at 22:55:2 on 26 Apr 2020

Using SCF density matrix from file ./SSI/SSI-096TRP-110LEU-1-dimer.test.18785.fchk

                         Distributed Multipole Analysis

Standard DMA

Positions and radii in angstrom
Multipole moments in atomic units, ea_0^k for rank k

C          x =  2.320088  y = -0.792775  z = -1.649936 angstrom
           Maximum rank =  0   Radius =  0.650 angstrom
                   Q00  =  -0.205443

C          x =  0.674088  y = -0.385775  z =  0.350064 angstrom
           Maximum rank =  0   Radius =  0.650 angstrom
                   Q00  =  -0.057055

C          x =  1.983088  y = -0.402775  z = -0.248936 angstrom
           Maximum rank =  0   Radius =  0.650 angstrom
                   Q00  =  -0.117874

C          x =  0.831087  y =  0.050225  z =  1.691064 angstrom
           Maximum rank =  0   Radius =  0.650 angstrom
                   Q00  =   0.280444

C          x =  2.849088  y =  0.006225  z =  0.715064 angstrom
           Maximum rank =  0   Radius =  0.650 angstrom
                   Q00  =   0.069431

C          x = -0.617912  y = -0.679775  z = -0.110936 angstrom
           Maximum rank =  0   Radius =  0.650 angstrom
                   Q00  =  -0.102154

C          x = -1.691912  y = -0.543775  z =  0.763064 angstrom
           Maximum rank =  0   Radius =  0.650 angstrom
                   Q00  =  -0.102928

C          x = -1.499913  y = -0.114775  z =  2.082064 angstrom
           Maximum rank =  0   Radius =  0.650 angstrom
                   Q00  =  -0.029168

C          x = -0.238913  y =  0.193225  z =  2.558064 angstrom
           Maximum rank =  0   Radius =  0.650 angstrom
                   Q00  =  -0.121010

N          x =  2.167088  y =  0.279225  z =  1.877064 angstrom
           Maximum rank =  0   Radius =  0.650 angstrom
                   Q00  =  -0.499632

H          x = -0.803912  y = -0.963775  z = -1.131936 angstrom
           Maximum rank =  0   Radius =  0.325 angstrom
                   Q00  =   0.071358

H          x = -2.694913  y = -0.745775  z =  0.411064 angstrom
           Maximum rank =  0   Radius =  0.325 angstrom
                   Q00  =   0.059646

H          x = -2.354912  y =  0.021225  z =  2.730064 angstrom
           Maximum rank =  0   Radius =  0.325 angstrom
                   Q00  =   0.063430

H          x =  3.404088  y = -0.879775  z = -1.736936 angstrom
           Maximum rank =  0   Radius =  0.325 angstrom
                   Q00  =   0.102656

H          x =  1.994088  y =  0.011225  z = -2.310936 angstrom
           Maximum rank =  0   Radius =  0.325 angstrom
                   Q00  =   0.096992

H          x =  3.920088  y =  0.099225  z =  0.577064 angstrom
           Maximum rank =  0   Radius =  0.325 angstrom
                   Q00  =   0.100499

H          x =  2.580088  y =  0.690225  z =  2.712064 angstrom
           Maximum rank =  0   Radius =  0.325 angstrom
                   Q00  =   0.216462

H          x = -0.091912  y =  0.532225  z =  3.571064 angstrom
           Maximum rank =  0   Radius =  0.325 angstrom
                   Q00  =   0.072260

H          x =  1.857748  y = -1.734675  z = -1.980177 angstrom
           Maximum rank =  0   Radius =  0.325 angstrom
                   Q00  =   0.100236

C          x = -2.718912  y =  0.597225  z = -2.943936 angstrom
           Maximum rank =  0   Radius =  0.650 angstrom
                   Q00  =  -0.240111

C          x = -3.507913  y =  1.472225  z = -3.907936 angstrom
           Maximum rank =  0   Radius =  0.650 angstrom
                   Q00  =  -0.233275

H          x = -2.350913  y = -0.287775  z = -3.457936 angstrom
           Maximum rank =  0   Radius =  0.325 angstrom
                   Q00  =   0.073182

H          x = -1.863913  y =  1.148225  z = -2.552936 angstrom
           Maximum rank =  0   Radius =  0.325 angstrom
                   Q00  =   0.084138

H          x = -3.345912  y =  0.283225  z = -2.112936 angstrom
           Maximum rank =  0   Radius =  0.325 angstrom
                   Q00  =   0.081011

H          x = -2.907913  y =  1.769225  z = -4.741936 angstrom
           Maximum rank =  0   Radius =  0.325 angstrom
                   Q00  =   0.082056

H          x = -4.380893  y =  0.928495  z = -4.298157 angstrom
           Maximum rank =  0   Radius =  0.325 angstrom
                   Q00  =   0.077271

H          x = -3.805483  y =  2.399215  z = -3.395940 angstrom
           Maximum rank =  0   Radius =  0.325 angstrom
                   Q00  =   0.077579

Total multipoles referred to origin at
           x =   0.000000,  y =    0.000000,  z =    0.000000 angstrom
                   Q00  =  -0.000000

Finished at 22:55:2 on 26 Apr 2020

  DMA results are available in the Python driver through the
	  variable('DMA DISTRIBUTED MULTIPOLES')
  and
	  variable('DMA TOTAL MULTIPOLES')
  commands.

    Psi4 stopped on: Sunday, 26 April 2020 10:55PM
    Psi4 wall time for execution: 0:09:53.88

*** Psi4 exiting successfully. Buy a developer a beer!
