                               Psi4 1.3.2 release

  ==> Input File <==

--------------------------------------------------------------------------
import numpy as np
set {scf_type pk
basis cc-pvdz
d_convergence 10
gdma_switch   0
gdma_limit    0
gdma_origin   [ 0.0,  0.0,  0.0 ]
}
molecule test {
    units Angstrom
    1 1
    --
    1 1
    C                0.736571914821808    -0.764987153156897    -2.553501718081254
    C               -0.913428085178192    -0.605987153156897    -0.654501718081255
    N                0.267571914821808    -0.969987153156897    -1.175501718081255
    N               -1.829428085178193     0.062012846843103    -1.350501718081255
    N               -1.214428085178193    -0.932987153156897     0.596498281918745
    H                0.881571914821808    -1.497987153156897    -0.570501718081255
    H               -1.674428085178193     0.229012846843103    -2.329501718081255
    H               -2.729428085178192     0.265012846843103    -0.944501718081255
    H               -0.573428085178192    -1.480987153156897     1.148498281918745
    H               -2.105428085178192    -0.679987153156897     0.991498281918745
    H               -0.089428085178192    -0.517987153156897    -3.222501718081255
    H                1.164571914821807    -1.703987153156897    -2.912501718081255
    H                1.510371914821807     0.013112846843103    -2.629589418081254
    C                0.930571914821808     1.197012846843103     2.197498281918746
    C                2.048571914821808     1.974012846843103     2.866498281918746
    H                1.207571914821808     0.150012846843103     2.084498281918745
    H                0.040571914821808     1.234012846843103     2.826498281918745
    H                0.690571914821808     1.629012846843102     1.225498281918745
    H                2.290571914821808     1.506012846843102     3.815498281918746
    H                2.914101914821808     2.004642846843103     2.188323281918746
    H                1.680541914821807     2.996162846843103     3.039013281918746

}
e, wfn = energy('scf', return_wfn=True)
gdma(wfn)
dmavals = variable('DMA DISTRIBUTED MULTIPOLES')
charges = np.array(dmavals)
print(charges)
np.save('SSI-163ARG-201LEU-1-dimer.npy', np.array(charges))--------------------------------------------------------------------------

*** tstart() called on ds3
*** at Tue Apr 28 14:12:13 2020

   => Loading Basis Set <=

    Name: CC-PVDZ
    Role: ORBITAL
    Keyword: BASIS
    atoms 1-2, 14-15  entry C          line   138 file /theoryfs2/ds/metcalf/miniconda2/envs/tf2gpu/share/psi4/basis/cc-pvdz.gbs
    atoms 3-5         entry N          line   168 file /theoryfs2/ds/metcalf/miniconda2/envs/tf2gpu/share/psi4/basis/cc-pvdz.gbs
    atoms 6-13, 16-21 entry H          line    22 file /theoryfs2/ds/metcalf/miniconda2/envs/tf2gpu/share/psi4/basis/cc-pvdz.gbs

         ---------------------------------------------------------
                                   SCF
               by Justin Turney, Rob Parrish, Andy Simmonett
                          and Daniel G. A. Smith
                              RHF Reference
                        1 Threads,    500 MiB Core
         ---------------------------------------------------------

  ==> Geometry <==

    Molecular point group: c1
    Full point group: C1

    Geometry (in Angstrom), charge = 1, multiplicity = 1:

       Center              X                  Y                   Z               Mass
    ------------   -----------------  -----------------  -----------------  -----------------
         C            0.736571914822    -0.764987153157    -2.553501718081    12.000000000000
         C           -0.913428085178    -0.605987153157    -0.654501718081    12.000000000000
         N            0.267571914822    -0.969987153157    -1.175501718081    14.003074004430
         N           -1.829428085178     0.062012846843    -1.350501718081    14.003074004430
         N           -1.214428085178    -0.932987153157     0.596498281919    14.003074004430
         H            0.881571914822    -1.497987153157    -0.570501718081     1.007825032230
         H           -1.674428085178     0.229012846843    -2.329501718081     1.007825032230
         H           -2.729428085178     0.265012846843    -0.944501718081     1.007825032230
         H           -0.573428085178    -1.480987153157     1.148498281919     1.007825032230
         H           -2.105428085178    -0.679987153157     0.991498281919     1.007825032230
         H           -0.089428085178    -0.517987153157    -3.222501718081     1.007825032230
         H            1.164571914822    -1.703987153157    -2.912501718081     1.007825032230
         H            1.510371914822     0.013112846843    -2.629589418081     1.007825032230
         C            0.930571914822     1.197012846843     2.197498281919    12.000000000000
         C            2.048571914822     1.974012846843     2.866498281919    12.000000000000
         H            1.207571914822     0.150012846843     2.084498281919     1.007825032230
         H            0.040571914822     1.234012846843     2.826498281919     1.007825032230
         H            0.690571914822     1.629012846843     1.225498281919     1.007825032230
         H            2.290571914822     1.506012846843     3.815498281919     1.007825032230
         H            2.914101914822     2.004642846843     2.188323281919     1.007825032230
         H            1.680541914822     2.996162846843     3.039013281919     1.007825032230

  Running in c1 symmetry.

  Rotational constants: A =      0.10229  B =      0.03037  C =      0.02631 [cm^-1]
  Rotational constants: A =   3066.72566  B =    910.46141  C =    788.85725 [MHz]
  Nuclear repulsion =  316.796570141812708

  Charge       = 1
  Multiplicity = 1
  Electrons    = 58
  Nalpha       = 29
  Nbeta        = 29

  ==> Algorithm <==

  SCF Algorithm Type is PK.
  DIIS enabled.
  MOM disabled.
  Fractional occupation disabled.
  Guess Type is SAD.
  Energy threshold   = 1.00e-06
  Density threshold  = 1.00e-10
  Integral threshold = 0.00e+00

  ==> Primary Basis <==

  Basis Set: CC-PVDZ
    Blend: CC-PVDZ
    Number of shells: 84
    Number of basis function: 168
    Number of Cartesian functions: 175
    Spherical Harmonics?: true
    Max angular momentum: 2

  ==> Pre-Iterations <==

   -------------------------------------------------------
    Irrep   Nso     Nmo     Nalpha   Nbeta   Ndocc  Nsocc
   -------------------------------------------------------
     A        168     168       0       0       0       0
   -------------------------------------------------------
    Total     168     168      29      29      29       0
   -------------------------------------------------------

  ==> Integral Setup <==

  Using integral reordering PK algorithm.
  Sizing the integral batches needed.
  Building batch lookup table.
   Calculation information:
      Number of atoms:                  21
      Number of AO shells:              84
      Number of primitives:            224
      Number of atomic orbitals:       175
      Number of basis functions:       168

      Integral cutoff                 1.00e-12
      Number of threads:                 1

	Batch   1 pq = [       0,    9405] index = [             0,44231715] size =     44231715
	Batch   2 pq = [    9405,   13301] index = [      44231715,88464951] size =     44233236
	Batch   3 pq = [   13301,   14196] index = [      88464951,100770306] size =     12305355
  Task number: 10
  Buffer size: 11059200
  Buffer per thread: 2
  We computed 5345520 shell quartets total.
  Whereas there are 6374235 unique shell quartets.

  ==> DiskJK: Disk-Based J/K Matrices <==

    J tasked:                  Yes
    K tasked:                  Yes
    wK tasked:                  No
    Memory [MiB]:              375
    Schwarz Cutoff:          1E-12

    OpenMP threads:              1

  Minimum eigenvalue in the overlap matrix is 3.8178329552E-03.
  Using Symmetric Orthogonalization.

  SCF Guess: Superposition of Atomic Densities via on-the-fly atomic UHF.

  ==> Iterations <==

                        Total Energy        Delta E     RMS |[F,P]|

   @RHF iter SAD:  -322.04672552170911   -3.22047e+02   0.00000e+00
   @RHF iter   1:  -322.61193944515912   -5.65214e-01   3.45292e-03 DIIS
   @RHF iter   2:  -322.78573859605081   -1.73799e-01   1.38083e-03 DIIS
   @RHF iter   3:  -322.81225145796640   -2.65129e-02   3.25091e-04 DIIS
   @RHF iter   4:  -322.81471700877307   -2.46555e-03   5.41412e-05 DIIS
   @RHF iter   5:  -322.81478616177935   -6.91530e-05   2.15994e-05 DIIS
   @RHF iter   6:  -322.81479597286074   -9.81108e-06   4.32823e-06 DIIS
   @RHF iter   7:  -322.81479663373636   -6.60876e-07   1.43352e-06 DIIS
   @RHF iter   8:  -322.81479668171386   -4.79775e-08   4.29188e-07 DIIS
   @RHF iter   9:  -322.81479668615577   -4.44192e-09   9.93981e-08 DIIS
   @RHF iter  10:  -322.81479668640748   -2.51703e-10   3.06367e-08 DIIS
   @RHF iter  11:  -322.81479668643328   -2.58069e-11   6.96851e-09 DIIS
   @RHF iter  12:  -322.81479668643459   -1.30740e-12   2.54335e-09 DIIS
   @RHF iter  13:  -322.81479668643408    5.11591e-13   9.55961e-10 DIIS
   @RHF iter  14:  -322.81479668643590   -1.81899e-12   2.91036e-10 DIIS
   @RHF iter  15:  -322.81479668643499    9.09495e-13   6.20300e-11 DIIS
  Energy and wave function converged.

  ==> Post-Iterations <==

    Orbital Energies [Eh]
    ---------------------

    Doubly Occupied:

       1A    -15.790478     2A    -15.789905     3A    -15.786738
       4A    -11.595605     5A    -11.444260     6A    -11.328999
       7A    -11.313462     8A     -1.539005     9A     -1.401731
      10A     -1.387306    11A     -1.141604    12A     -1.127017
      13A     -1.038345    14A     -0.976560    15A     -0.939459
      16A     -0.937663    17A     -0.862704    18A     -0.853941
      19A     -0.818715    20A     -0.796025    21A     -0.743491
      22A     -0.725216    23A     -0.708678    24A     -0.703403
      25A     -0.619081    26A     -0.601189    27A     -0.592664
      28A     -0.586026    29A     -0.584036

    Virtual:

      30A     -0.012253    31A      0.019982    32A      0.023208
      33A      0.030263    34A      0.062453    35A      0.079844
      36A      0.090289    37A      0.110927    38A      0.121323
      39A      0.136570    40A      0.153508    41A      0.160100
      42A      0.171876    43A      0.185935    44A      0.192066
      45A      0.200405    46A      0.265889    47A      0.294259
      48A      0.320406    49A      0.339649    50A      0.428779
      51A      0.435578    52A      0.476759    53A      0.488248
      54A      0.500394    55A      0.521807    56A      0.527700
      57A      0.533252    58A      0.554421    59A      0.559216
      60A      0.577213    61A      0.593427    62A      0.634031
      63A      0.666280    64A      0.679442    65A      0.702233
      66A      0.705831    67A      0.723534    68A      0.748189
      69A      0.760015    70A      0.767267    71A      0.794245
      72A      0.798281    73A      0.803836    74A      0.804999
      75A      0.816101    76A      0.822749    77A      0.854960
      78A      0.865540    79A      0.884576    80A      0.909906
      81A      0.934290    82A      0.945930    83A      1.009247
      84A      1.023124    85A      1.028189    86A      1.051695
      87A      1.108267    88A      1.124301    89A      1.144543
      90A      1.158615    91A      1.181790    92A      1.218158
      93A      1.228527    94A      1.281779    95A      1.366083
      96A      1.376103    97A      1.388550    98A      1.457347
      99A      1.487108   100A      1.492668   101A      1.517604
     102A      1.524225   103A      1.563913   104A      1.572293
     105A      1.587198   106A      1.613935   107A      1.654275
     108A      1.691825   109A      1.705337   110A      1.729027
     111A      1.735579   112A      1.744706   113A      1.760727
     114A      1.766951   115A      1.780154   116A      1.799127
     117A      1.804724   118A      1.830189   119A      1.841687
     120A      1.850447   121A      1.866257   122A      1.869908
     123A      1.877557   124A      1.885555   125A      1.914780
     126A      1.986263   127A      1.995153   128A      2.011691
     129A      2.020928   130A      2.025233   131A      2.116492
     132A      2.149102   133A      2.158461   134A      2.191831
     135A      2.229038   136A      2.245647   137A      2.260993
     138A      2.276264   139A      2.335542   140A      2.337290
     141A      2.350978   142A      2.358192   143A      2.370480
     144A      2.421701   145A      2.443396   146A      2.468318
     147A      2.471928   148A      2.515898   149A      2.575046
     150A      2.579833   151A      2.627583   152A      2.665022
     153A      2.687954   154A      2.715441   155A      2.725219
     156A      2.733128   157A      2.757540   158A      2.766075
     159A      2.805488   160A      2.827605   161A      2.850407
     162A      2.861458   163A      2.900048   164A      3.051198
     165A      3.083598   166A      3.122526   167A      3.529657
     168A      3.630820

    Final Occupation by Irrep:
              A
    DOCC [    29 ]

  @RHF Final Energy:  -322.81479668643499

   => Energetics <=

    Nuclear Repulsion Energy =            316.7965701418127082
    One-Electron Energy =               -1053.7561209976308874
    Two-Electron Energy =                 414.1447541693831909
    Total Energy =                       -322.8147966864349883

Computation Completed

Properties will be evaluated at   0.000000,   0.000000,   0.000000 [a0]

Properties computed using the SCF density matrix

  Nuclear Dipole Moment: [e a0]
     X:     4.8907      Y:     3.8922      Z:     4.4213

  Electronic Dipole Moment: [e a0]
     X:    -6.3590      Y:    -5.0892      Z:    -5.8253

  Dipole Moment: [e a0]
     X:    -1.4683      Y:    -1.1971      Z:    -1.4040     Total:     2.3580

  Dipole Moment: [D]
     X:    -3.7322      Y:    -3.0427      Z:    -3.5686     Total:     5.9935

*** tstop() called on ds3 at Tue Apr 28 14:13:02 2020
Module time:
	user time   =      34.12 seconds =       0.57 minutes
	system time =      16.60 seconds =       0.28 minutes
	total time  =         49 seconds =       0.82 minutes
Total time:
	user time   =      34.12 seconds =       0.57 minutes
	system time =      16.60 seconds =       0.28 minutes
	total time  =         49 seconds =       0.82 minutes
                                     G D M A

                                 by Anthony Stone

                           version 2.2.06, 22 June 2011

               Distributed Multipoles from Gaussian wavefunctions

Starting at 14:13:2 on 28 Apr 2020

Using SCF density matrix from file ./SSI/SSI-163ARG-201LEU-1-dimer.test.6686.fchk

                         Distributed Multipole Analysis

Standard DMA

Positions and radii in angstrom
Multipole moments in atomic units, ea_0^k for rank k

C          x =  0.736572  y = -0.764987  z = -2.553502 angstrom
           Maximum rank =  0   Radius =  0.650 angstrom
                   Q00  =  -0.120443

C          x = -0.913428  y = -0.605987  z = -0.654502 angstrom
           Maximum rank =  0   Radius =  0.650 angstrom
                   Q00  =   1.073989

N          x =  0.267572  y = -0.969987  z = -1.175502 angstrom
           Maximum rank =  0   Radius =  0.650 angstrom
                   Q00  =  -0.497640

N          x = -1.829428  y =  0.062013  z = -1.350502 angstrom
           Maximum rank =  0   Radius =  0.650 angstrom
                   Q00  =  -0.579752

N          x = -1.214428  y = -0.932987  z =  0.596498 angstrom
           Maximum rank =  0   Radius =  0.650 angstrom
                   Q00  =  -0.581824

H          x =  0.881572  y = -1.497987  z = -0.570502 angstrom
           Maximum rank =  0   Radius =  0.325 angstrom
                   Q00  =   0.232992

H          x = -1.674428  y =  0.229013  z = -2.329502 angstrom
           Maximum rank =  0   Radius =  0.325 angstrom
                   Q00  =   0.264845

H          x = -2.729428  y =  0.265013  z = -0.944502 angstrom
           Maximum rank =  0   Radius =  0.325 angstrom
                   Q00  =   0.270377

H          x = -0.573428  y = -1.480987  z =  1.148498 angstrom
           Maximum rank =  0   Radius =  0.325 angstrom
                   Q00  =   0.267219

H          x = -2.105428  y = -0.679987  z =  0.991498 angstrom
           Maximum rank =  0   Radius =  0.325 angstrom
                   Q00  =   0.266338

H          x = -0.089428  y = -0.517987  z = -3.222502 angstrom
           Maximum rank =  0   Radius =  0.325 angstrom
                   Q00  =   0.114981

H          x =  1.164572  y = -1.703987  z = -2.912502 angstrom
           Maximum rank =  0   Radius =  0.325 angstrom
                   Q00  =   0.148372

H          x =  1.510372  y =  0.013113  z = -2.629589 angstrom
           Maximum rank =  0   Radius =  0.325 angstrom
                   Q00  =   0.141779

C          x =  0.930572  y =  1.197013  z =  2.197498 angstrom
           Maximum rank =  0   Radius =  0.650 angstrom
                   Q00  =  -0.258743

C          x =  2.048572  y =  1.974013  z =  2.866498 angstrom
           Maximum rank =  0   Radius =  0.650 angstrom
                   Q00  =  -0.209595

H          x =  1.207572  y =  0.150013  z =  2.084498 angstrom
           Maximum rank =  0   Radius =  0.325 angstrom
                   Q00  =   0.044795

H          x =  0.040572  y =  1.234013  z =  2.826498 angstrom
           Maximum rank =  0   Radius =  0.325 angstrom
                   Q00  =   0.081724

H          x =  0.690572  y =  1.629013  z =  1.225498 angstrom
           Maximum rank =  0   Radius =  0.325 angstrom
                   Q00  =   0.068333

H          x =  2.290572  y =  1.506013  z =  3.815498 angstrom
           Maximum rank =  0   Radius =  0.325 angstrom
                   Q00  =   0.096116

H          x =  2.914102  y =  2.004643  z =  2.188323 angstrom
           Maximum rank =  0   Radius =  0.325 angstrom
                   Q00  =   0.083682

H          x =  1.680542  y =  2.996163  z =  3.039013 angstrom
           Maximum rank =  0   Radius =  0.325 angstrom
                   Q00  =   0.092455

Total multipoles referred to origin at
           x =   0.000000,  y =    0.000000,  z =    0.000000 angstrom
                   Q00  =   1.000000

Finished at 14:13:2 on 28 Apr 2020

  DMA results are available in the Python driver through the
	  variable('DMA DISTRIBUTED MULTIPOLES')
  and
	  variable('DMA TOTAL MULTIPOLES')
  commands.

    Psi4 stopped on: Tuesday, 28 April 2020 02:13PM
    Psi4 wall time for execution: 0:00:49.21

*** Psi4 exiting successfully. Buy a developer a beer!
