                               Psi4 1.3.2 release

  ==> Input File <==

--------------------------------------------------------------------------
import numpy as np
set {scf_type pk
basis cc-pvdz
d_convergence 10
gdma_switch   0
gdma_limit    0
gdma_origin   [ 0.0,  0.0,  0.0 ]
}
molecule test {
    units Angstrom
    0 1
    --
    0 1
    C               -0.340041217012014    -2.834372223157497     2.632206177304693
    C               -0.368041217012014    -1.503372223157498     1.939206177304693
    O               -0.322041217012014    -1.394372223157498     0.661206177304693
    O               -0.449041217012014    -0.556372223157498     2.778206177304693
    H               -1.312041217012014    -2.989372223157497     3.107206177304692
    H                0.410958782987986    -2.827372223157498     3.427206177304693
    H               -0.152521217012014    -3.699232223157498     1.978866177304692
    C                1.815958782987986     1.467627776842502    -0.386793822695307
    C               -0.090041217012014     1.202627776842502    -1.880793822695307
    N                0.475958782987986     0.992627776842502    -0.689793822695307
    N               -1.314041217012014     0.776627776842502    -2.124793822695307
    N                0.582958782987986     1.816627776842502    -2.843793822695307
    H                0.018958782987986     0.352627776842502    -0.039793822695307
    H                1.863958782987986     2.546627776842503    -0.553793822695307
    H                2.499958782987986     0.995627776842502    -1.093793822695307
    H               -1.815041217012014     0.282627776842502    -1.400793822695307
    H               -1.746041217012014     0.929627776842502    -3.020793822695307
    H                1.517958782987986     2.146627776842502    -2.676793822695307
    H                0.152958782987986     1.976627776842502    -3.741793822695307
    H                2.224118782987986     1.276297776842502     0.616596177304693

}
e, wfn = energy('scf', return_wfn=True)
gdma(wfn)
dmavals = variable('DMA DISTRIBUTED MULTIPOLES')
charges = np.array(dmavals)
print(charges)
np.save('SSI-127GLU-146ARG-2-dimer.npy', np.array(charges))--------------------------------------------------------------------------

*** tstart() called on ds3
*** at Tue Apr 28 08:57:30 2020

   => Loading Basis Set <=

    Name: CC-PVDZ
    Role: ORBITAL
    Keyword: BASIS
    atoms 1-2, 8-9   entry C          line   138 file /theoryfs2/ds/metcalf/miniconda2/envs/tf2gpu/share/psi4/basis/cc-pvdz.gbs
    atoms 3-4        entry O          line   198 file /theoryfs2/ds/metcalf/miniconda2/envs/tf2gpu/share/psi4/basis/cc-pvdz.gbs
    atoms 5-7, 13-20 entry H          line    22 file /theoryfs2/ds/metcalf/miniconda2/envs/tf2gpu/share/psi4/basis/cc-pvdz.gbs
    atoms 10-12      entry N          line   168 file /theoryfs2/ds/metcalf/miniconda2/envs/tf2gpu/share/psi4/basis/cc-pvdz.gbs

         ---------------------------------------------------------
                                   SCF
               by Justin Turney, Rob Parrish, Andy Simmonett
                          and Daniel G. A. Smith
                              RHF Reference
                        1 Threads,    500 MiB Core
         ---------------------------------------------------------

  ==> Geometry <==

    Molecular point group: c1
    Full point group: C1

    Geometry (in Angstrom), charge = 0, multiplicity = 1:

       Center              X                  Y                   Z               Mass
    ------------   -----------------  -----------------  -----------------  -----------------
         C           -0.340041217012    -2.834372223157     2.632206177305    12.000000000000
         C           -0.368041217012    -1.503372223157     1.939206177305    12.000000000000
         O           -0.322041217012    -1.394372223157     0.661206177305    15.994914619570
         O           -0.449041217012    -0.556372223157     2.778206177305    15.994914619570
         H           -1.312041217012    -2.989372223157     3.107206177305     1.007825032230
         H            0.410958782988    -2.827372223157     3.427206177305     1.007825032230
         H           -0.152521217012    -3.699232223157     1.978866177305     1.007825032230
         C            1.815958782988     1.467627776843    -0.386793822695    12.000000000000
         C           -0.090041217012     1.202627776843    -1.880793822695    12.000000000000
         N            0.475958782988     0.992627776843    -0.689793822695    14.003074004430
         N           -1.314041217012     0.776627776843    -2.124793822695    14.003074004430
         N            0.582958782988     1.816627776843    -2.843793822695    14.003074004430
         H            0.018958782988     0.352627776843    -0.039793822695     1.007825032230
         H            1.863958782988     2.546627776843    -0.553793822695     1.007825032230
         H            2.499958782988     0.995627776843    -1.093793822695     1.007825032230
         H           -1.815041217012     0.282627776843    -1.400793822695     1.007825032230
         H           -1.746041217012     0.929627776843    -3.020793822695     1.007825032230
         H            1.517958782988     2.146627776843    -2.676793822695     1.007825032230
         H            0.152958782988     1.976627776843    -3.741793822695     1.007825032230
         H            2.224118782988     1.276297776843     0.616596177305     1.007825032230

  Running in c1 symmetry.

  Rotational constants: A =      0.10288  B =      0.01994  C =      0.01803 [cm^-1]
  Rotational constants: A =   3084.30324  B =    597.89638  C =    540.50776 [MHz]
  Nuclear repulsion =  450.325828299711588

  Charge       = 0
  Multiplicity = 1
  Electrons    = 72
  Nalpha       = 36
  Nbeta        = 36

  ==> Algorithm <==

  SCF Algorithm Type is PK.
  DIIS enabled.
  MOM disabled.
  Fractional occupation disabled.
  Guess Type is SAD.
  Energy threshold   = 1.00e-06
  Density threshold  = 1.00e-10
  Integral threshold = 0.00e+00

  ==> Primary Basis <==

  Basis Set: CC-PVDZ
    Blend: CC-PVDZ
    Number of shells: 87
    Number of basis function: 181
    Number of Cartesian functions: 190
    Spherical Harmonics?: true
    Max angular momentum: 2

  ==> Pre-Iterations <==

   -------------------------------------------------------
    Irrep   Nso     Nmo     Nalpha   Nbeta   Ndocc  Nsocc
   -------------------------------------------------------
     A        181     181       0       0       0       0
   -------------------------------------------------------
    Total     181     181      36      36      36       0
   -------------------------------------------------------

  ==> Integral Setup <==

  Using integral reordering PK algorithm.
  Sizing the integral batches needed.
  Building batch lookup table.
   Calculation information:
      Number of atoms:                  20
      Number of AO shells:              87
      Number of primitives:            253
      Number of atomic orbitals:       190
      Number of basis functions:       181

      Integral cutoff                 1.00e-12
      Number of threads:                 1

	Batch   1 pq = [       0,    9405] index = [             0,44231715] size =     44231715
	Batch   2 pq = [    9405,   13301] index = [      44231715,88464951] size =     44233236
	Batch   3 pq = [   13301,   16471] index = [      88464951,135655156] size =     47190205
  Task number: 13
  Buffer size: 11059200
  Buffer per thread: 2
  We computed 5525016 shell quartets total.
  Whereas there are 7328706 unique shell quartets.

  ==> DiskJK: Disk-Based J/K Matrices <==

    J tasked:                  Yes
    K tasked:                  Yes
    wK tasked:                  No
    Memory [MiB]:              375
    Schwarz Cutoff:          1E-12

    OpenMP threads:              1

  Minimum eigenvalue in the overlap matrix is 3.8872742198E-03.
  Using Symmetric Orthogonalization.

  SCF Guess: Superposition of Atomic Densities via on-the-fly atomic UHF.

  ==> Iterations <==

                        Total Energy        Delta E     RMS |[F,P]|

   @RHF iter SAD:  -469.59233831251436   -4.69592e+02   0.00000e+00
   @RHF iter   1:  -470.67537231171372   -1.08303e+00   4.28095e-03 DIIS
   @RHF iter   2:  -470.90253483104482   -2.27163e-01   2.30078e-03 DIIS
   @RHF iter   3:  -470.96550746521973   -6.29726e-02   4.07942e-04 DIIS
   @RHF iter   4:  -470.96892878282978   -3.42132e-03   1.45793e-04 DIIS
   @RHF iter   5:  -470.96936143044337   -4.32648e-04   2.81890e-05 DIIS
   @RHF iter   6:  -470.96938417775522   -2.27473e-05   1.44659e-05 DIIS
   @RHF iter   7:  -470.96938831522192   -4.13747e-06   3.81161e-06 DIIS
   @RHF iter   8:  -470.96938896296280   -6.47741e-07   1.80929e-06 DIIS
   @RHF iter   9:  -470.96938908245039   -1.19488e-07   6.38616e-07 DIIS
   @RHF iter  10:  -470.96938910591876   -2.34684e-08   2.33424e-07 DIIS
   @RHF iter  11:  -470.96938910871881   -2.80005e-09   6.30460e-08 DIIS
   @RHF iter  12:  -470.96938910886860   -1.49782e-10   2.37062e-08 DIIS
   @RHF iter  13:  -470.96938910889037   -2.17710e-11   6.76836e-09 DIIS
   @RHF iter  14:  -470.96938910888923    1.13687e-12   1.72578e-09 DIIS
   @RHF iter  15:  -470.96938910889071   -1.47793e-12   7.33365e-10 DIIS
   @RHF iter  16:  -470.96938910889173   -1.02318e-12   2.49373e-10 DIIS
   @RHF iter  17:  -470.96938910889264   -9.09495e-13   1.10782e-10 DIIS
   @RHF iter  18:  -470.96938910889185    7.95808e-13   3.23904e-11 DIIS
  Energy and wave function converged.

  ==> Post-Iterations <==

    Orbital Energies [Eh]
    ---------------------

    Doubly Occupied:

       1A    -20.416462     2A    -20.390723     3A    -15.667720
       4A    -15.654317     5A    -15.624297     6A    -11.452815
       7A    -11.305632     8A    -11.252920     9A    -11.153761
      10A     -1.407431    11A     -1.272258    12A     -1.263308
      13A     -1.255012    14A     -1.169829    15A     -1.000615
      16A     -0.906912    17A     -0.902629    18A     -0.841126
      19A     -0.811138    20A     -0.728822    21A     -0.719777
      22A     -0.687584    23A     -0.657723    24A     -0.628932
      25A     -0.609596    26A     -0.577313    27A     -0.534708
      28A     -0.519669    29A     -0.518131    30A     -0.494317
      31A     -0.458404    32A     -0.433655    33A     -0.422306
      34A     -0.325939    35A     -0.303817    36A     -0.301732

    Virtual:

      37A      0.107325    38A      0.144569    39A      0.156653
      40A      0.178751    41A      0.208473    42A      0.220740
      43A      0.238006    44A      0.248993    45A      0.262827
      46A      0.285762    47A      0.296813    48A      0.322579
      49A      0.367296    50A      0.391821    51A      0.410546
      52A      0.458521    53A      0.471429    54A      0.476446
      55A      0.567580    56A      0.586378    57A      0.593261
      58A      0.604602    59A      0.639897    60A      0.653471
      61A      0.657925    62A      0.676392    63A      0.685934
      64A      0.700069    65A      0.717183    66A      0.777505
      67A      0.810170    68A      0.822305    69A      0.833886
      70A      0.838959    71A      0.860788    72A      0.863792
      73A      0.875820    74A      0.894544    75A      0.920458
      76A      0.923370    77A      0.932109    78A      0.934090
      79A      0.957656    80A      0.970052    81A      0.984242
      82A      0.999116    83A      1.013391    84A      1.049402
      85A      1.060853    86A      1.090321    87A      1.112818
      88A      1.141400    89A      1.190841    90A      1.219627
      91A      1.228231    92A      1.233388    93A      1.244398
      94A      1.283400    95A      1.316399    96A      1.327703
      97A      1.352369    98A      1.366535    99A      1.391471
     100A      1.426026   101A      1.454506   102A      1.468813
     103A      1.506400   104A      1.538591   105A      1.566100
     106A      1.582710   107A      1.598454   108A      1.610094
     109A      1.647272   110A      1.667425   111A      1.681733
     112A      1.718180   113A      1.746301   114A      1.753288
     115A      1.755121   116A      1.792766   117A      1.815493
     118A      1.844120   119A      1.860556   120A      1.893323
     121A      1.900445   122A      1.904860   123A      1.925187
     124A      1.953676   125A      1.956916   126A      1.970247
     127A      2.002731   128A      2.012312   129A      2.027497
     130A      2.042287   131A      2.109583   132A      2.154910
     133A      2.162090   134A      2.180006   135A      2.199263
     136A      2.221267   137A      2.237692   138A      2.270824
     139A      2.302064   140A      2.355158   141A      2.362997
     142A      2.386333   143A      2.387186   144A      2.433296
     145A      2.458684   146A      2.468462   147A      2.505734
     148A      2.521072   149A      2.552400   150A      2.562108
     151A      2.592009   152A      2.598133   153A      2.628226
     154A      2.685329   155A      2.712437   156A      2.728826
     157A      2.804394   158A      2.814797   159A      2.860754
     160A      2.885842   161A      2.897721   162A      2.914491
     163A      2.923644   164A      2.951146   165A      2.967511
     166A      3.036297   167A      3.103713   168A      3.137920
     169A      3.156598   170A      3.200824   171A      3.225231
     172A      3.237964   173A      3.310270   174A      3.447805
     175A      3.646628   176A      3.680906   177A      3.707367
     178A      3.773309   179A      3.860482   180A      3.945112
     181A      4.032049

    Final Occupation by Irrep:
              A
    DOCC [    36 ]

  @RHF Final Energy:  -470.96938910889185

   => Energetics <=

    Nuclear Repulsion Energy =            450.3258282997115884
    One-Electron Energy =               -1537.2477737663853077
    Two-Electron Energy =                 615.9525563577817593
    Total Energy =                       -470.9693891088918463

Computation Completed

Properties will be evaluated at   0.000000,   0.000000,   0.000000 [a0]

Properties computed using the SCF density matrix

  Nuclear Dipole Moment: [e a0]
     X:     3.4312      Y:     0.9090      Z:    -3.1523

  Electronic Dipole Moment: [e a0]
     X:    -2.7966      Y:     2.0924      Z:    -2.2555

  Dipole Moment: [e a0]
     X:     0.6346      Y:     3.0014      Z:    -5.4078     Total:     6.2173

  Dipole Moment: [D]
     X:     1.6129      Y:     7.6288      Z:   -13.7452     Total:    15.8028

*** tstop() called on ds3 at Tue Apr 28 08:58:42 2020
Module time:
	user time   =      42.87 seconds =       0.71 minutes
	system time =      22.43 seconds =       0.37 minutes
	total time  =         72 seconds =       1.20 minutes
Total time:
	user time   =      42.87 seconds =       0.71 minutes
	system time =      22.43 seconds =       0.37 minutes
	total time  =         72 seconds =       1.20 minutes
                                     G D M A

                                 by Anthony Stone

                           version 2.2.06, 22 June 2011

               Distributed Multipoles from Gaussian wavefunctions

Starting at 8:58:42 on 28 Apr 2020

Using SCF density matrix from file ./SSI/SSI-127GLU-146ARG-2-dimer.test.14937.fchk

                         Distributed Multipole Analysis

Standard DMA

Positions and radii in angstrom
Multipole moments in atomic units, ea_0^k for rank k

C          x = -0.340041  y = -2.834372  z =  2.632206 angstrom
           Maximum rank =  0   Radius =  0.650 angstrom
                   Q00  =  -0.256842

C          x = -0.368041  y = -1.503372  z =  1.939206 angstrom
           Maximum rank =  0   Radius =  0.650 angstrom
                   Q00  =   0.870840

O          x = -0.322041  y = -1.394372  z =  0.661206 angstrom
           Maximum rank =  0   Radius =  0.650 angstrom
                   Q00  =  -0.927522

O          x = -0.449041  y = -0.556372  z =  2.778206 angstrom
           Maximum rank =  0   Radius =  0.650 angstrom
                   Q00  =  -0.871335

H          x = -1.312041  y = -2.989372  z =  3.107206 angstrom
           Maximum rank =  0   Radius =  0.325 angstrom
                   Q00  =   0.099312

H          x =  0.410959  y = -2.827372  z =  3.427206 angstrom
           Maximum rank =  0   Radius =  0.325 angstrom
                   Q00  =   0.093133

H          x = -0.152521  y = -3.699232  z =  1.978866 angstrom
           Maximum rank =  0   Radius =  0.325 angstrom
                   Q00  =   0.050649

C          x =  1.815959  y =  1.467628  z = -0.386794 angstrom
           Maximum rank =  0   Radius =  0.650 angstrom
                   Q00  =  -0.099890

C          x = -0.090041  y =  1.202628  z = -1.880794 angstrom
           Maximum rank =  0   Radius =  0.650 angstrom
                   Q00  =   1.054401

N          x =  0.475959  y =  0.992628  z = -0.689794 angstrom
           Maximum rank =  0   Radius =  0.650 angstrom
                   Q00  =  -0.469331

N          x = -1.314041  y =  0.776628  z = -2.124794 angstrom
           Maximum rank =  0   Radius =  0.650 angstrom
                   Q00  =  -0.584306

N          x =  0.582959  y =  1.816628  z = -2.843794 angstrom
           Maximum rank =  0   Radius =  0.650 angstrom
                   Q00  =  -0.575644

H          x =  0.018959  y =  0.352628  z = -0.039794 angstrom
           Maximum rank =  0   Radius =  0.325 angstrom
                   Q00  =   0.274376

H          x =  1.863959  y =  2.546628  z = -0.553794 angstrom
           Maximum rank =  0   Radius =  0.325 angstrom
                   Q00  =   0.073141

H          x =  2.499959  y =  0.995628  z = -1.093794 angstrom
           Maximum rank =  0   Radius =  0.325 angstrom
                   Q00  =   0.073474

H          x = -1.815041  y =  0.282628  z = -1.400794 angstrom
           Maximum rank =  0   Radius =  0.325 angstrom
                   Q00  =   0.282065

H          x = -1.746041  y =  0.929628  z = -3.020794 angstrom
           Maximum rank =  0   Radius =  0.325 angstrom
                   Q00  =   0.237601

H          x =  1.517959  y =  2.146628  z = -2.676794 angstrom
           Maximum rank =  0   Radius =  0.325 angstrom
                   Q00  =   0.258830

H          x =  0.152959  y =  1.976628  z = -3.741794 angstrom
           Maximum rank =  0   Radius =  0.325 angstrom
                   Q00  =   0.239565

H          x =  2.224119  y =  1.276298  z =  0.616596 angstrom
           Maximum rank =  0   Radius =  0.325 angstrom
                   Q00  =   0.177482

Total multipoles referred to origin at
           x =   0.000000,  y =    0.000000,  z =    0.000000 angstrom
                   Q00  =  -0.000000

Finished at 8:58:42 on 28 Apr 2020

  DMA results are available in the Python driver through the
	  variable('DMA DISTRIBUTED MULTIPOLES')
  and
	  variable('DMA TOTAL MULTIPOLES')
  commands.

    Psi4 stopped on: Tuesday, 28 April 2020 08:58AM
    Psi4 wall time for execution: 0:01:11.61

*** Psi4 exiting successfully. Buy a developer a beer!
