                               Psi4 1.3.2 release

  ==> Input File <==

--------------------------------------------------------------------------
import numpy as np
set {scf_type pk
basis cc-pvdz
d_convergence 10
gdma_switch   0
gdma_limit    0
gdma_origin   [ 0.0,  0.0,  0.0 ]
}
molecule test {
    units Angstrom
    1 1
    --
    1 1
    C                0.497072423389009    -1.884137128773671     1.634252093677202
    C                0.998072423389009    -0.352137128773671    -0.274747906322798
    N                0.419072423389009    -1.431137128773672     0.235252093677202
    N                1.722072423389009     0.467862871226329     0.451252093677202
    N                0.865072423389009    -0.113137128773671    -1.553747906322798
    H               -0.064927576610991    -2.027137128773671    -0.432747906322798
    H                1.831072423389009     0.315862871226329     1.441252093677202
    H                2.152072423389009     1.274862871226329     0.021252093677202
    H                0.305072423389009    -0.722137128773671    -2.136747906322798
    H                1.323072423389009     0.699862871226329    -1.984747906322798
    H                1.414072423389009    -1.532137128773671     2.111252093677202
    H                0.527072423389009    -2.976137128773671     1.649252093677202
    H               -0.373737576610991    -1.547997128773671     2.216227193677202
    C               -1.962927576610991     2.025862871226329     0.346252093677202
    C               -2.508927576610991     1.203862871226329    -0.817747906322798
    H               -2.429927576610991     3.012862871226329     0.360252093677202
    H               -2.191927576610991     1.514862871226329     1.283252093677202
    H               -0.880927576610991     2.127862871226329     0.259252093677202
    H               -2.051927576610991     0.215862871226329    -0.780747906322798
    H               -2.284387576610991     1.678202871226329    -1.784484906322798
    H               -3.600927576610991     1.092482871226329    -0.746090906322798

}
e, wfn = energy('scf', return_wfn=True)
gdma(wfn)
dmavals = variable('DMA DISTRIBUTED MULTIPOLES')
charges = np.array(dmavals)
print(charges)
np.save('SSI-027ARG-055THR-1-dimer.npy', np.array(charges))--------------------------------------------------------------------------

*** tstart() called on ds3
*** at Mon Apr 27 18:58:34 2020

   => Loading Basis Set <=

    Name: CC-PVDZ
    Role: ORBITAL
    Keyword: BASIS
    atoms 1-2, 14-15  entry C          line   138 file /theoryfs2/ds/metcalf/miniconda2/envs/tf2gpu/share/psi4/basis/cc-pvdz.gbs
    atoms 3-5         entry N          line   168 file /theoryfs2/ds/metcalf/miniconda2/envs/tf2gpu/share/psi4/basis/cc-pvdz.gbs
    atoms 6-13, 16-21 entry H          line    22 file /theoryfs2/ds/metcalf/miniconda2/envs/tf2gpu/share/psi4/basis/cc-pvdz.gbs

         ---------------------------------------------------------
                                   SCF
               by Justin Turney, Rob Parrish, Andy Simmonett
                          and Daniel G. A. Smith
                              RHF Reference
                        1 Threads,    500 MiB Core
         ---------------------------------------------------------

  ==> Geometry <==

    Molecular point group: c1
    Full point group: C1

    Geometry (in Angstrom), charge = 1, multiplicity = 1:

       Center              X                  Y                   Z               Mass
    ------------   -----------------  -----------------  -----------------  -----------------
         C            0.497072423389    -1.884137128774     1.634252093677    12.000000000000
         C            0.998072423389    -0.352137128774    -0.274747906323    12.000000000000
         N            0.419072423389    -1.431137128774     0.235252093677    14.003074004430
         N            1.722072423389     0.467862871226     0.451252093677    14.003074004430
         N            0.865072423389    -0.113137128774    -1.553747906323    14.003074004430
         H           -0.064927576611    -2.027137128774    -0.432747906323     1.007825032230
         H            1.831072423389     0.315862871226     1.441252093677     1.007825032230
         H            2.152072423389     1.274862871226     0.021252093677     1.007825032230
         H            0.305072423389    -0.722137128774    -2.136747906323     1.007825032230
         H            1.323072423389     0.699862871226    -1.984747906323     1.007825032230
         H            1.414072423389    -1.532137128774     2.111252093677     1.007825032230
         H            0.527072423389    -2.976137128774     1.649252093677     1.007825032230
         H           -0.373737576611    -1.547997128774     2.216227193677     1.007825032230
         C           -1.962927576611     2.025862871226     0.346252093677    12.000000000000
         C           -2.508927576611     1.203862871226    -0.817747906323    12.000000000000
         H           -2.429927576611     3.012862871226     0.360252093677     1.007825032230
         H           -2.191927576611     1.514862871226     1.283252093677     1.007825032230
         H           -0.880927576611     2.127862871226     0.259252093677     1.007825032230
         H           -2.051927576611     0.215862871226    -0.780747906323     1.007825032230
         H           -2.284387576611     1.678202871226    -1.784484906323     1.007825032230
         H           -3.600927576611     1.092482871226    -0.746090906323     1.007825032230

  Running in c1 symmetry.

  Rotational constants: A =      0.08946  B =      0.04090  C =      0.03667 [cm^-1]
  Rotational constants: A =   2681.90387  B =   1226.21018  C =   1099.32926 [MHz]
  Nuclear repulsion =  328.518836151966241

  Charge       = 1
  Multiplicity = 1
  Electrons    = 58
  Nalpha       = 29
  Nbeta        = 29

  ==> Algorithm <==

  SCF Algorithm Type is PK.
  DIIS enabled.
  MOM disabled.
  Fractional occupation disabled.
  Guess Type is SAD.
  Energy threshold   = 1.00e-06
  Density threshold  = 1.00e-10
  Integral threshold = 0.00e+00

  ==> Primary Basis <==

  Basis Set: CC-PVDZ
    Blend: CC-PVDZ
    Number of shells: 84
    Number of basis function: 168
    Number of Cartesian functions: 175
    Spherical Harmonics?: true
    Max angular momentum: 2

  ==> Pre-Iterations <==

   -------------------------------------------------------
    Irrep   Nso     Nmo     Nalpha   Nbeta   Ndocc  Nsocc
   -------------------------------------------------------
     A        168     168       0       0       0       0
   -------------------------------------------------------
    Total     168     168      29      29      29       0
   -------------------------------------------------------

  ==> Integral Setup <==

  Using integral reordering PK algorithm.
  Sizing the integral batches needed.
  Building batch lookup table.
   Calculation information:
      Number of atoms:                  21
      Number of AO shells:              84
      Number of primitives:            224
      Number of atomic orbitals:       175
      Number of basis functions:       168

      Integral cutoff                 1.00e-12
      Number of threads:                 1

	Batch   1 pq = [       0,    9405] index = [             0,44231715] size =     44231715
	Batch   2 pq = [    9405,   13301] index = [      44231715,88464951] size =     44233236
	Batch   3 pq = [   13301,   14196] index = [      88464951,100770306] size =     12305355
  Task number: 10
  Buffer size: 11059200
  Buffer per thread: 2
  We computed 6279708 shell quartets total.
  Whereas there are 6374235 unique shell quartets.

  ==> DiskJK: Disk-Based J/K Matrices <==

    J tasked:                  Yes
    K tasked:                  Yes
    wK tasked:                  No
    Memory [MiB]:              375
    Schwarz Cutoff:          1E-12

    OpenMP threads:              1

  Minimum eigenvalue in the overlap matrix is 3.4851131543E-03.
  Using Symmetric Orthogonalization.

  SCF Guess: Superposition of Atomic Densities via on-the-fly atomic UHF.

  ==> Iterations <==

                        Total Energy        Delta E     RMS |[F,P]|

   @RHF iter SAD:  -322.11613499614623   -3.22116e+02   0.00000e+00
   @RHF iter   1:  -322.61568355226825   -4.99549e-01   3.41162e-03 DIIS
   @RHF iter   2:  -322.78778465051511   -1.72101e-01   1.34025e-03 DIIS
   @RHF iter   3:  -322.81298673269742   -2.52021e-02   3.15999e-04 DIIS
   @RHF iter   4:  -322.81537720817857   -2.39048e-03   4.64610e-05 DIIS
   @RHF iter   5:  -322.81543356392672   -5.63557e-05   1.88799e-05 DIIS
   @RHF iter   6:  -322.81544060809438   -7.04417e-06   3.94398e-06 DIIS
   @RHF iter   7:  -322.81544114430596   -5.36212e-07   1.28040e-06 DIIS
   @RHF iter   8:  -322.81544118255897   -3.82530e-08   3.74759e-07 DIIS
   @RHF iter   9:  -322.81544118583656   -3.27759e-09   8.98800e-08 DIIS
   @RHF iter  10:  -322.81544118604506   -2.08502e-10   2.62576e-08 DIIS
   @RHF iter  11:  -322.81544118605967   -1.46088e-11   6.29619e-09 DIIS
   @RHF iter  12:  -322.81544118606047   -7.95808e-13   1.95962e-09 DIIS
   @RHF iter  13:  -322.81544118606092   -4.54747e-13   7.66009e-10 DIIS
   @RHF iter  14:  -322.81544118606030    6.25278e-13   2.64316e-10 DIIS
   @RHF iter  15:  -322.81544118606001    2.84217e-13   5.97937e-11 DIIS
  Energy and wave function converged.

  ==> Post-Iterations <==

    Orbital Energies [Eh]
    ---------------------

    Doubly Occupied:

       1A    -15.790348     2A    -15.788590     3A    -15.787693
       4A    -11.588885     5A    -11.443931     6A    -11.331549
       7A    -11.329462     8A     -1.549300     9A     -1.402790
      10A     -1.392305    11A     -1.141448    12A     -1.131491
      13A     -1.040060    14A     -0.978866    15A     -0.948678
      16A     -0.939246    17A     -0.860987    18A     -0.856154
      19A     -0.826600    20A     -0.793699    21A     -0.746729
      22A     -0.724576    23A     -0.712292    24A     -0.707690
      25A     -0.621052    26A     -0.613445    27A     -0.598156
      28A     -0.595168    29A     -0.585330

    Virtual:

      30A     -0.017009    31A      0.020866    32A      0.026115
      33A      0.029389    34A      0.061376    35A      0.068347
      36A      0.087903    37A      0.114503    38A      0.115841
      39A      0.129319    40A      0.148266    41A      0.156130
      42A      0.169815    43A      0.180740    44A      0.190180
      45A      0.195697    46A      0.281026    47A      0.284026
      48A      0.330210    49A      0.342778    50A      0.428489
      51A      0.433932    52A      0.473960    53A      0.489172
      54A      0.495263    55A      0.522275    56A      0.524415
      57A      0.540046    58A      0.547993    59A      0.559228
      60A      0.562105    61A      0.603894    62A      0.648272
      63A      0.677945    64A      0.686953    65A      0.695102
      66A      0.715222    67A      0.730441    68A      0.739413
      69A      0.748819    70A      0.755750    71A      0.771941
      72A      0.776759    73A      0.777358    74A      0.797000
      75A      0.822842    76A      0.846474    77A      0.854799
      78A      0.880363    79A      0.897581    80A      0.910578
      81A      0.932697    82A      0.944420    83A      1.009598
      84A      1.018986    85A      1.031468    86A      1.061651
      87A      1.120245    88A      1.139808    89A      1.142202
      90A      1.165484    91A      1.187181    92A      1.211230
      93A      1.226919    94A      1.288153    95A      1.356812
      96A      1.363582    97A      1.383312    98A      1.435221
      99A      1.490512   100A      1.500701   101A      1.524910
     102A      1.535184   103A      1.549021   104A      1.583955
     105A      1.607446   106A      1.623632   107A      1.662442
     108A      1.692662   109A      1.712268   110A      1.725957
     111A      1.737160   112A      1.746002   113A      1.762962
     114A      1.778525   115A      1.785422   116A      1.795231
     117A      1.799112   118A      1.812152   119A      1.837913
     120A      1.840273   121A      1.849360   122A      1.853235
     123A      1.867538   124A      1.874993   125A      1.887980
     126A      1.976445   127A      1.992240   128A      2.007612
     129A      2.015973   130A      2.044516   131A      2.121236
     132A      2.141195   133A      2.161813   134A      2.195496
     135A      2.202727   136A      2.223710   137A      2.259444
     138A      2.289750   139A      2.301383   140A      2.314129
     141A      2.347217   142A      2.355795   143A      2.373914
     144A      2.422647   145A      2.450104   146A      2.453380
     147A      2.464149   148A      2.545224   149A      2.578367
     150A      2.590111   151A      2.628956   152A      2.655072
     153A      2.682004   154A      2.718948   155A      2.741440
     156A      2.747887   157A      2.758284   158A      2.794376
     159A      2.821091   160A      2.834649   161A      2.847571
     162A      2.860555   163A      2.887277   164A      3.052667
     165A      3.080965   166A      3.121311   167A      3.561373
     168A      3.660238

    Final Occupation by Irrep:
              A
    DOCC [    29 ]

  @RHF Final Energy:  -322.81544118606001

   => Energetics <=

    Nuclear Repulsion Energy =            328.5188361519662408
    One-Electron Energy =               -1077.0155149684849221
    Two-Electron Energy =                 425.6812376304586110
    Total Energy =                       -322.8154411860600135

Computation Completed

Properties will be evaluated at   0.000000,   0.000000,   0.000000 [a0]

Properties computed using the SCF density matrix

  Nuclear Dipole Moment: [e a0]
     X:    -5.9394      Y:     2.9348      Z:     1.3866

  Electronic Dipole Moment: [e a0]
     X:     7.6253      Y:    -3.7081      Z:    -1.6553

  Dipole Moment: [e a0]
     X:     1.6859      Y:    -0.7733      Z:    -0.2687     Total:     1.8741

  Dipole Moment: [D]
     X:     4.2851      Y:    -1.9655      Z:    -0.6829     Total:     4.7636

*** tstop() called on ds3 at Mon Apr 27 18:59:25 2020
Module time:
	user time   =      38.06 seconds =       0.63 minutes
	system time =      14.58 seconds =       0.24 minutes
	total time  =         51 seconds =       0.85 minutes
Total time:
	user time   =      38.06 seconds =       0.63 minutes
	system time =      14.58 seconds =       0.24 minutes
	total time  =         51 seconds =       0.85 minutes
                                     G D M A

                                 by Anthony Stone

                           version 2.2.06, 22 June 2011

               Distributed Multipoles from Gaussian wavefunctions

Starting at 18:59:25 on 27 Apr 2020

Using SCF density matrix from file ./SSI/SSI-027ARG-055THR-1-dimer.test.316.fchk

                         Distributed Multipole Analysis

Standard DMA

Positions and radii in angstrom
Multipole moments in atomic units, ea_0^k for rank k

C          x =  0.497072  y = -1.884137  z =  1.634252 angstrom
           Maximum rank =  0   Radius =  0.650 angstrom
                   Q00  =  -0.122940

C          x =  0.998072  y = -0.352137  z = -0.274748 angstrom
           Maximum rank =  0   Radius =  0.650 angstrom
                   Q00  =   1.089221

N          x =  0.419072  y = -1.431137  z =  0.235252 angstrom
           Maximum rank =  0   Radius =  0.650 angstrom
                   Q00  =  -0.504654

N          x =  1.722072  y =  0.467863  z =  0.451252 angstrom
           Maximum rank =  0   Radius =  0.650 angstrom
                   Q00  =  -0.583805

N          x =  0.865072  y = -0.113137  z = -1.553748 angstrom
           Maximum rank =  0   Radius =  0.650 angstrom
                   Q00  =  -0.595881

H          x = -0.064928  y = -2.027137  z = -0.432748 angstrom
           Maximum rank =  0   Radius =  0.325 angstrom
                   Q00  =   0.233912

H          x =  1.831072  y =  0.315863  z =  1.441252 angstrom
           Maximum rank =  0   Radius =  0.325 angstrom
                   Q00  =   0.272280

H          x =  2.152072  y =  1.274863  z =  0.021252 angstrom
           Maximum rank =  0   Radius =  0.325 angstrom
                   Q00  =   0.269052

H          x =  0.305072  y = -0.722137  z = -2.136748 angstrom
           Maximum rank =  0   Radius =  0.325 angstrom
                   Q00  =   0.267882

H          x =  1.323072  y =  0.699863  z = -1.984748 angstrom
           Maximum rank =  0   Radius =  0.325 angstrom
                   Q00  =   0.271524

H          x =  1.414072  y = -1.532137  z =  2.111252 angstrom
           Maximum rank =  0   Radius =  0.325 angstrom
                   Q00  =   0.113958

H          x =  0.527072  y = -2.976137  z =  1.649252 angstrom
           Maximum rank =  0   Radius =  0.325 angstrom
                   Q00  =   0.155989

H          x = -0.373738  y = -1.547997  z =  2.216227 angstrom
           Maximum rank =  0   Radius =  0.325 angstrom
                   Q00  =   0.135523

C          x = -1.962928  y =  2.025863  z =  0.346252 angstrom
           Maximum rank =  0   Radius =  0.650 angstrom
                   Q00  =  -0.228272

C          x = -2.508928  y =  1.203863  z = -0.817748 angstrom
           Maximum rank =  0   Radius =  0.650 angstrom
                   Q00  =  -0.232297

H          x = -2.429928  y =  3.012863  z =  0.360252 angstrom
           Maximum rank =  0   Radius =  0.325 angstrom
                   Q00  =   0.110755

H          x = -2.191928  y =  1.514863  z =  1.283252 angstrom
           Maximum rank =  0   Radius =  0.325 angstrom
                   Q00  =   0.081569

H          x = -0.880928  y =  2.127863  z =  0.259252 angstrom
           Maximum rank =  0   Radius =  0.325 angstrom
                   Q00  =   0.041940

H          x = -2.051928  y =  0.215863  z = -0.780748 angstrom
           Maximum rank =  0   Radius =  0.325 angstrom
                   Q00  =   0.031905

H          x = -2.284388  y =  1.678203  z = -1.784485 angstrom
           Maximum rank =  0   Radius =  0.325 angstrom
                   Q00  =   0.083472

H          x = -3.600928  y =  1.092483  z = -0.746091 angstrom
           Maximum rank =  0   Radius =  0.325 angstrom
                   Q00  =   0.108868

Total multipoles referred to origin at
           x =   0.000000,  y =    0.000000,  z =    0.000000 angstrom
                   Q00  =   1.000000

Finished at 18:59:25 on 27 Apr 2020

  DMA results are available in the Python driver through the
	  variable('DMA DISTRIBUTED MULTIPOLES')
  and
	  variable('DMA TOTAL MULTIPOLES')
  commands.

    Psi4 stopped on: Monday, 27 April 2020 06:59PM
    Psi4 wall time for execution: 0:00:51.25

*** Psi4 exiting successfully. Buy a developer a beer!
