                               Psi4 1.3.2 release

  ==> Input File <==

--------------------------------------------------------------------------
import numpy as np
set {scf_type pk
basis cc-pvdz
d_convergence 10
gdma_switch   0
gdma_limit    0
gdma_origin   [ 0.0,  0.0,  0.0 ]
}
molecule test {
    units Angstrom
    1 1
    --
    1 1
    C               -1.509480628599487    -0.785337318872264     0.403903487350360
    C               -2.128480628599487    -1.736337318872264    -0.604096512649640
    C               -0.301480628599487     1.368662681127736     0.378903487350360
    N               -0.931480628599487     0.391662681127736    -0.256096512649640
    N               -0.154480628599487     1.326662681127736     1.687903487350360
    N                0.189519371400513     2.387662681127736    -0.297096512649640
    H               -2.293480628599487    -0.455337318872264     1.088903487350360
    H               -0.751480628599487    -1.308337318872264     0.988903487350360
    H               -1.385480628599487    -1.979337318872264    -1.368096512649640
    H               -2.966480628599487    -1.221337318872264    -1.076096512649640
    H               -1.059480628599487     0.492662681127736    -1.254096512649640
    H               -0.541480628599487     0.565662681127736     2.216903487350360
    H                0.380519371400513     2.049662681127736     2.147903487350360
    H                0.076519371400513     2.447662681127736    -1.295096512649640
    H                0.718519371400513     3.093662681127736     0.194903487350360
    H               -2.458632628599487    -2.664665318872264    -0.115008512649640
    C                1.890519371400513    -1.389337318872264    -0.040096512649640
    C                2.779519371400513    -1.586337318872264    -1.262096512649640
    H                2.121519371400513    -2.137337318872264     0.718903487350360
    H                2.052519371400513    -0.400337318872264     0.390903487350360
    H                0.864519371400513    -1.506337318872264    -0.360096512649640
    H                3.802519371400513    -1.663337318872264    -0.935096512649640
    H                2.477427371400513    -2.492614318872264    -1.807441512649640
    H                2.718839371400513    -0.710807318872264    -1.925245512649640

}
e, wfn = energy('scf', return_wfn=True)
gdma(wfn)
dmavals = variable('DMA DISTRIBUTED MULTIPOLES')
charges = np.array(dmavals)
print(charges)
np.save('SSI-001ARG-159VAL-1-dimer.npy', np.array(charges))--------------------------------------------------------------------------

*** tstart() called on ds3
*** at Sun Apr 26 23:23:32 2020

   => Loading Basis Set <=

    Name: CC-PVDZ
    Role: ORBITAL
    Keyword: BASIS
    atoms 1-3, 17-18  entry C          line   138 file /theoryfs2/ds/metcalf/miniconda2/envs/tf2gpu/share/psi4/basis/cc-pvdz.gbs
    atoms 4-6         entry N          line   168 file /theoryfs2/ds/metcalf/miniconda2/envs/tf2gpu/share/psi4/basis/cc-pvdz.gbs
    atoms 7-16, 19-24 entry H          line    22 file /theoryfs2/ds/metcalf/miniconda2/envs/tf2gpu/share/psi4/basis/cc-pvdz.gbs

         ---------------------------------------------------------
                                   SCF
               by Justin Turney, Rob Parrish, Andy Simmonett
                          and Daniel G. A. Smith
                              RHF Reference
                        1 Threads,    500 MiB Core
         ---------------------------------------------------------

  ==> Geometry <==

    Molecular point group: c1
    Full point group: C1

    Geometry (in Angstrom), charge = 1, multiplicity = 1:

       Center              X                  Y                   Z               Mass
    ------------   -----------------  -----------------  -----------------  -----------------
         C           -1.509480628599    -0.785337318872     0.403903487350    12.000000000000
         C           -2.128480628599    -1.736337318872    -0.604096512650    12.000000000000
         C           -0.301480628599     1.368662681128     0.378903487350    12.000000000000
         N           -0.931480628599     0.391662681128    -0.256096512650    14.003074004430
         N           -0.154480628599     1.326662681128     1.687903487350    14.003074004430
         N            0.189519371401     2.387662681128    -0.297096512650    14.003074004430
         H           -2.293480628599    -0.455337318872     1.088903487350     1.007825032230
         H           -0.751480628599    -1.308337318872     0.988903487350     1.007825032230
         H           -1.385480628599    -1.979337318872    -1.368096512650     1.007825032230
         H           -2.966480628599    -1.221337318872    -1.076096512650     1.007825032230
         H           -1.059480628599     0.492662681128    -1.254096512650     1.007825032230
         H           -0.541480628599     0.565662681128     2.216903487350     1.007825032230
         H            0.380519371401     2.049662681128     2.147903487350     1.007825032230
         H            0.076519371401     2.447662681128    -1.295096512650     1.007825032230
         H            0.718519371401     3.093662681128     0.194903487350     1.007825032230
         H           -2.458632628599    -2.664665318872    -0.115008512650     1.007825032230
         C            1.890519371401    -1.389337318872    -0.040096512650    12.000000000000
         C            2.779519371401    -1.586337318872    -1.262096512650    12.000000000000
         H            2.121519371401    -2.137337318872     0.718903487350     1.007825032230
         H            2.052519371401    -0.400337318872     0.390903487350     1.007825032230
         H            0.864519371401    -1.506337318872    -0.360096512650     1.007825032230
         H            3.802519371401    -1.663337318872    -0.935096512650     1.007825032230
         H            2.477427371401    -2.492614318872    -1.807441512650     1.007825032230
         H            2.718839371401    -0.710807318872    -1.925245512650     1.007825032230

  Running in c1 symmetry.

  Rotational constants: A =      0.05289  B =      0.04051  C =      0.02806 [cm^-1]
  Rotational constants: A =   1585.55027  B =   1214.43599  C =    841.31100 [MHz]
  Nuclear repulsion =  409.993672899954163

  Charge       = 1
  Multiplicity = 1
  Electrons    = 66
  Nalpha       = 33
  Nbeta        = 33

  ==> Algorithm <==

  SCF Algorithm Type is PK.
  DIIS enabled.
  MOM disabled.
  Fractional occupation disabled.
  Guess Type is SAD.
  Energy threshold   = 1.00e-06
  Density threshold  = 1.00e-10
  Integral threshold = 0.00e+00

  ==> Primary Basis <==

  Basis Set: CC-PVDZ
    Blend: CC-PVDZ
    Number of shells: 96
    Number of basis function: 192
    Number of Cartesian functions: 200
    Spherical Harmonics?: true
    Max angular momentum: 2

  ==> Pre-Iterations <==

   -------------------------------------------------------
    Irrep   Nso     Nmo     Nalpha   Nbeta   Ndocc  Nsocc
   -------------------------------------------------------
     A        192     192       0       0       0       0
   -------------------------------------------------------
    Total     192     192      33      33      33       0
   -------------------------------------------------------

  ==> Integral Setup <==

  Using integral reordering PK algorithm.
  Sizing the integral batches needed.
  Building batch lookup table.
   Calculation information:
      Number of atoms:                  24
      Number of AO shells:              96
      Number of primitives:            256
      Number of atomic orbitals:       200
      Number of basis functions:       192

      Integral cutoff                 1.00e-12
      Number of threads:                 1

	Batch   1 pq = [       0,    9405] index = [             0,44231715] size =     44231715
	Batch   2 pq = [    9405,   13301] index = [      44231715,88464951] size =     44233236
	Batch   3 pq = [   13301,   16290] index = [      88464951,132690195] size =     44225244
	Batch   4 pq = [   16290,   18528] index = [     132690195,171652656] size =     38962461
  Task number: 16
  Buffer size: 11059200
  Buffer per thread: 2
  We computed 10437159 shell quartets total.
  Whereas there are 10841496 unique shell quartets.

  ==> DiskJK: Disk-Based J/K Matrices <==

    J tasked:                  Yes
    K tasked:                  Yes
    wK tasked:                  No
    Memory [MiB]:              375
    Schwarz Cutoff:          1E-12

    OpenMP threads:              1

  Minimum eigenvalue in the overlap matrix is 3.4410920907E-03.
  Using Symmetric Orthogonalization.

  SCF Guess: Superposition of Atomic Densities via on-the-fly atomic UHF.

  ==> Iterations <==

                        Total Energy        Delta E     RMS |[F,P]|

   @RHF iter SAD:  -361.22970467151720   -3.61230e+02   0.00000e+00
   @RHF iter   1:  -361.61949851218083   -3.89794e-01   3.21687e-03 DIIS
   @RHF iter   2:  -361.82160555743064   -2.02107e-01   1.26239e-03 DIIS
   @RHF iter   3:  -361.85115690884186   -2.95514e-02   3.01357e-04 DIIS
   @RHF iter   4:  -361.85397954494681   -2.82264e-03   5.25887e-05 DIIS
   @RHF iter   5:  -361.85406159091474   -8.20460e-05   1.97085e-05 DIIS
   @RHF iter   6:  -361.85407288028188   -1.12894e-05   3.78924e-06 DIIS
   @RHF iter   7:  -361.85407353206477   -6.51783e-07   1.21164e-06 DIIS
   @RHF iter   8:  -361.85407358167697   -4.96122e-08   3.22950e-07 DIIS
   @RHF iter   9:  -361.85407358511827   -3.44130e-09   9.29220e-08 DIIS
   @RHF iter  10:  -361.85407358540141   -2.83137e-10   2.44902e-08 DIIS
   @RHF iter  11:  -361.85407358542170   -2.02931e-11   7.84218e-09 DIIS
   @RHF iter  12:  -361.85407358542182   -1.13687e-13   2.10768e-09 DIIS
   @RHF iter  13:  -361.85407358542227   -4.54747e-13   6.76876e-10 DIIS
   @RHF iter  14:  -361.85407358542466   -2.38742e-12   2.82207e-10 DIIS
   @RHF iter  15:  -361.85407358542602   -1.36424e-12   5.86679e-11 DIIS
  Energy and wave function converged.

  ==> Post-Iterations <==

    Orbital Energies [Eh]
    ---------------------

    Doubly Occupied:

       1A    -15.786138     2A    -15.785619     3A    -15.778656
       4A    -11.584910     5A    -11.432653     6A    -11.371167
       7A    -11.331973     8A    -11.320513     9A     -1.543724
      10A     -1.400977    11A     -1.389996    12A     -1.188376
      13A     -1.132158    14A     -1.051530    15A     -1.015767
      16A     -0.973579    17A     -0.948751    18A     -0.930289
      19A     -0.857889    20A     -0.854981    21A     -0.829602
      22A     -0.791857    23A     -0.767410    24A     -0.715064
      25A     -0.707128    26A     -0.687935    27A     -0.664069
      28A     -0.661198    29A     -0.616758    30A     -0.608919
      31A     -0.598757    32A     -0.592700    33A     -0.577322

    Virtual:

      34A     -0.008911    35A      0.025760    36A      0.028334
      37A      0.041414    38A      0.058000    39A      0.070958
      40A      0.084652    41A      0.109978    42A      0.122992
      43A      0.127827    44A      0.137452    45A      0.146744
      46A      0.153830    47A      0.165553    48A      0.181485
      49A      0.189549    50A      0.199296    51A      0.227671
      52A      0.260619    53A      0.292542    54A      0.295973
      55A      0.345993    56A      0.359846    57A      0.432573
      58A      0.458489    59A      0.468798    60A      0.480538
      61A      0.491959    62A      0.507890    63A      0.521744
      64A      0.528314    65A      0.545128    66A      0.559269
      67A      0.561621    68A      0.581360    69A      0.590758
      70A      0.654307    71A      0.682647    72A      0.709073
      73A      0.717264    74A      0.743410    75A      0.744211
      76A      0.749113    77A      0.755024    78A      0.758071
      79A      0.762559    80A      0.775381    81A      0.786209
      82A      0.792176    83A      0.805807    84A      0.817247
      85A      0.821777    86A      0.829415    87A      0.840580
      88A      0.855206    89A      0.883451    90A      0.888483
      91A      0.897624    92A      0.945564    93A      0.948431
      94A      0.967827    95A      0.993447    96A      1.018654
      97A      1.038779    98A      1.056219    99A      1.122890
     100A      1.126012   101A      1.138033   102A      1.169976
     103A      1.192708   104A      1.201104   105A      1.242299
     106A      1.260010   107A      1.321235   108A      1.356835
     109A      1.373825   110A      1.392878   111A      1.422793
     112A      1.466053   113A      1.506914   114A      1.528513
     115A      1.539438   116A      1.553050   117A      1.560184
     118A      1.583876   119A      1.590059   120A      1.602813
     121A      1.627121   122A      1.674274   123A      1.707563
     124A      1.724306   125A      1.735780   126A      1.742046
     127A      1.749397   128A      1.762673   129A      1.774914
     130A      1.793105   131A      1.797189   132A      1.808804
     133A      1.817166   134A      1.819249   135A      1.829445
     136A      1.839476   137A      1.851987   138A      1.859879
     139A      1.862325   140A      1.885240   141A      1.909070
     142A      1.943563   143A      1.952355   144A      1.973787
     145A      2.004158   146A      2.008738   147A      2.029917
     148A      2.066460   149A      2.089811   150A      2.108050
     151A      2.138233   152A      2.183277   153A      2.186989
     154A      2.214609   155A      2.243042   156A      2.259059
     157A      2.271172   158A      2.300089   159A      2.342304
     160A      2.348551   161A      2.352214   162A      2.366677
     163A      2.370979   164A      2.381696   165A      2.415816
     166A      2.456745   167A      2.462752   168A      2.494822
     169A      2.502572   170A      2.568310   171A      2.619269
     172A      2.631346   173A      2.649982   174A      2.668756
     175A      2.673765   176A      2.714011   177A      2.723401
     178A      2.736997   179A      2.757428   180A      2.770136
     181A      2.808833   182A      2.842602   183A      2.845442
     184A      2.870064   185A      2.879359   186A      2.919180
     187A      2.943123   188A      3.094280   189A      3.111414
     190A      3.165913   191A      3.583722   192A      3.666030

    Final Occupation by Irrep:
              A
    DOCC [    33 ]

  @RHF Final Energy:  -361.85407358542602

   => Energetics <=

    Nuclear Repulsion Energy =            409.9936728999541629
    One-Electron Energy =               -1290.6987677904921838
    Two-Electron Energy =                 518.8510213051119990
    Total Energy =                       -361.8540735854260220

Computation Completed

Properties will be evaluated at   0.000000,   0.000000,   0.000000 [a0]

Properties computed using the SCF density matrix

  Nuclear Dipole Moment: [e a0]
     X:     3.5241      Y:    -7.4090      Z:    -2.2429

  Electronic Dipole Moment: [e a0]
     X:    -4.1701      Y:     9.3565      Z:     2.8450

  Dipole Moment: [e a0]
     X:    -0.6460      Y:     1.9475      Z:     0.6021     Total:     2.1383

  Dipole Moment: [D]
     X:    -1.6419      Y:     4.9500      Z:     1.5304     Total:     5.4351

*** tstop() called on ds3 at Sun Apr 26 23:24:53 2020
Module time:
	user time   =      61.67 seconds =       1.03 minutes
	system time =      22.75 seconds =       0.38 minutes
	total time  =         81 seconds =       1.35 minutes
Total time:
	user time   =      61.67 seconds =       1.03 minutes
	system time =      22.75 seconds =       0.38 minutes
	total time  =         81 seconds =       1.35 minutes
                                     G D M A

                                 by Anthony Stone

                           version 2.2.06, 22 June 2011

               Distributed Multipoles from Gaussian wavefunctions

Starting at 23:24:54 on 26 Apr 2020

Using SCF density matrix from file ./SSI/SSI-001ARG-159VAL-1-dimer.test.30270.fchk

                         Distributed Multipole Analysis

Standard DMA

Positions and radii in angstrom
Multipole moments in atomic units, ea_0^k for rank k

C          x = -1.509481  y = -0.785337  z =  0.403903 angstrom
           Maximum rank =  0   Radius =  0.650 angstrom
                   Q00  =  -0.028925

C          x = -2.128481  y = -1.736337  z = -0.604097 angstrom
           Maximum rank =  0   Radius =  0.650 angstrom
                   Q00  =  -0.206448

C          x = -0.301481  y =  1.368663  z =  0.378903 angstrom
           Maximum rank =  0   Radius =  0.650 angstrom
                   Q00  =   1.076803

N          x = -0.931481  y =  0.391663  z = -0.256097 angstrom
           Maximum rank =  0   Radius =  0.650 angstrom
                   Q00  =  -0.484162

N          x = -0.154481  y =  1.326663  z =  1.687903 angstrom
           Maximum rank =  0   Radius =  0.650 angstrom
                   Q00  =  -0.578238

N          x =  0.189519  y =  2.387663  z = -0.297097 angstrom
           Maximum rank =  0   Radius =  0.650 angstrom
                   Q00  =  -0.599648

H          x = -2.293481  y = -0.455337  z =  1.088903 angstrom
           Maximum rank =  0   Radius =  0.325 angstrom
                   Q00  =   0.096362

H          x = -0.751481  y = -1.308337  z =  0.988903 angstrom
           Maximum rank =  0   Radius =  0.325 angstrom
                   Q00  =   0.088422

H          x = -1.385481  y = -1.979337  z = -1.368097 angstrom
           Maximum rank =  0   Radius =  0.325 angstrom
                   Q00  =   0.096754

H          x = -2.966481  y = -1.221337  z = -1.076097 angstrom
           Maximum rank =  0   Radius =  0.325 angstrom
                   Q00  =   0.102228

H          x = -1.059481  y =  0.492663  z = -1.254097 angstrom
           Maximum rank =  0   Radius =  0.325 angstrom
                   Q00  =   0.230121

H          x = -0.541481  y =  0.565663  z =  2.216903 angstrom
           Maximum rank =  0   Radius =  0.325 angstrom
                   Q00  =   0.277435

H          x =  0.380519  y =  2.049663  z =  2.147903 angstrom
           Maximum rank =  0   Radius =  0.325 angstrom
                   Q00  =   0.264997

H          x =  0.076519  y =  2.447663  z = -1.295097 angstrom
           Maximum rank =  0   Radius =  0.325 angstrom
                   Q00  =   0.268938

H          x =  0.718519  y =  3.093663  z =  0.194903 angstrom
           Maximum rank =  0   Radius =  0.325 angstrom
                   Q00  =   0.263134

H          x = -2.458633  y = -2.664665  z = -0.115009 angstrom
           Maximum rank =  0   Radius =  0.325 angstrom
                   Q00  =   0.142684

C          x =  1.890519  y = -1.389337  z = -0.040097 angstrom
           Maximum rank =  0   Radius =  0.650 angstrom
                   Q00  =  -0.258102

C          x =  2.779519  y = -1.586337  z = -1.262097 angstrom
           Maximum rank =  0   Radius =  0.650 angstrom
                   Q00  =  -0.218500

H          x =  2.121519  y = -2.137337  z =  0.718903 angstrom
           Maximum rank =  0   Radius =  0.325 angstrom
                   Q00  =   0.101626

H          x =  2.052519  y = -0.400337  z =  0.390903 angstrom
           Maximum rank =  0   Radius =  0.325 angstrom
                   Q00  =   0.055930

H          x =  0.864519  y = -1.506337  z = -0.360097 angstrom
           Maximum rank =  0   Radius =  0.325 angstrom
                   Q00  =   0.046679

H          x =  3.802519  y = -1.663337  z = -0.935097 angstrom
           Maximum rank =  0   Radius =  0.325 angstrom
                   Q00  =   0.101763

H          x =  2.477427  y = -2.492614  z = -1.807442 angstrom
           Maximum rank =  0   Radius =  0.325 angstrom
                   Q00  =   0.093393

H          x =  2.718839  y = -0.710807  z = -1.925246 angstrom
           Maximum rank =  0   Radius =  0.325 angstrom
                   Q00  =   0.066753

Total multipoles referred to origin at
           x =   0.000000,  y =    0.000000,  z =    0.000000 angstrom
                   Q00  =   1.000000

Finished at 23:24:54 on 26 Apr 2020

  DMA results are available in the Python driver through the
	  variable('DMA DISTRIBUTED MULTIPOLES')
  and
	  variable('DMA TOTAL MULTIPOLES')
  commands.

    Psi4 stopped on: Sunday, 26 April 2020 11:24PM
    Psi4 wall time for execution: 0:01:21.67

*** Psi4 exiting successfully. Buy a developer a beer!
