                               Psi4 1.3.2 release

  ==> Input File <==

--------------------------------------------------------------------------
import numpy as np
set {scf_type pk
basis cc-pvdz
d_convergence 10
gdma_switch   0
gdma_limit    0
gdma_origin   [ 0.0,  0.0,  0.0 ]
}
molecule test {
    units Angstrom
    0 1
    --
    0 1
    C               -0.089004000546810     0.874816884504648    -1.186862266390658
    C               -0.214004000546810     1.554816884504649    -2.560862266390658
    H               -0.632004000546810    -0.069183115495352    -1.168862266390658
    H                0.959995999453190     0.657816884504648    -0.987862266390658
    H               -0.462004000546810     1.533816884504648    -0.401862266390658
    H               -0.035004000546810     0.819816884504648    -3.342862266390658
    H                0.574995999453190     2.302816884504649    -2.621862266390658
    H               -1.187334000546810     2.045780884504649    -2.707792266390658
    C               -0.257004000546810    -0.585183115495352     2.058137733609342
    C                0.550995999453190    -1.849183115495352     1.694137733609342
    H               -0.626004000546810    -0.656183115495352     3.083137733609342
    H                0.364995999453190     0.304816884504648     1.969137733609342
    H               -1.102004000546810    -0.448183115495352     1.382137733609342
    H                0.836995999453190    -1.765183115495352     0.643137733609342
    H               -0.055914000546810    -2.759910115495351     1.804747733609342
    H                1.470635999453190    -1.909874115495352     2.294617733609342

}
e, wfn = energy('scf', return_wfn=True)
gdma(wfn)
dmavals = variable('DMA DISTRIBUTED MULTIPOLES')
charges = np.array(dmavals)
print(charges)
np.save('SSI-039ILE-108ILE-1-dimer.npy', np.array(charges))--------------------------------------------------------------------------

*** tstart() called on ds3
*** at Tue Apr 28 09:15:30 2020

   => Loading Basis Set <=

    Name: CC-PVDZ
    Role: ORBITAL
    Keyword: BASIS
    atoms 1-2, 9-10  entry C          line   138 file /theoryfs2/ds/metcalf/miniconda2/envs/tf2gpu/share/psi4/basis/cc-pvdz.gbs
    atoms 3-8, 11-16 entry H          line    22 file /theoryfs2/ds/metcalf/miniconda2/envs/tf2gpu/share/psi4/basis/cc-pvdz.gbs

         ---------------------------------------------------------
                                   SCF
               by Justin Turney, Rob Parrish, Andy Simmonett
                          and Daniel G. A. Smith
                              RHF Reference
                        1 Threads,    500 MiB Core
         ---------------------------------------------------------

  ==> Geometry <==

    Molecular point group: c1
    Full point group: C1

    Geometry (in Angstrom), charge = 0, multiplicity = 1:

       Center              X                  Y                   Z               Mass
    ------------   -----------------  -----------------  -----------------  -----------------
         C           -0.089004000547     0.874816884505    -1.186862266391    12.000000000000
         C           -0.214004000547     1.554816884505    -2.560862266391    12.000000000000
         H           -0.632004000547    -0.069183115495    -1.168862266391     1.007825032230
         H            0.959995999453     0.657816884505    -0.987862266391     1.007825032230
         H           -0.462004000547     1.533816884505    -0.401862266391     1.007825032230
         H           -0.035004000547     0.819816884505    -3.342862266391     1.007825032230
         H            0.574995999453     2.302816884505    -2.621862266391     1.007825032230
         H           -1.187334000547     2.045780884505    -2.707792266391     1.007825032230
         C           -0.257004000547    -0.585183115495     2.058137733609    12.000000000000
         C            0.550995999453    -1.849183115495     1.694137733609    12.000000000000
         H           -0.626004000547    -0.656183115495     3.083137733609     1.007825032230
         H            0.364995999453     0.304816884505     1.969137733609     1.007825032230
         H           -1.102004000547    -0.448183115495     1.382137733609     1.007825032230
         H            0.836995999453    -1.765183115495     0.643137733609     1.007825032230
         H           -0.055914000547    -2.759910115495     1.804747733609     1.007825032230
         H            1.470635999453    -1.909874115495     2.294617733609     1.007825032230

  Running in c1 symmetry.

  Rotational constants: A =      0.55186  B =      0.05048  C =      0.04795 [cm^-1]
  Rotational constants: A =  16544.35223  B =   1513.49294  C =   1437.38453 [MHz]
  Nuclear repulsion =  123.172916839153004

  Charge       = 0
  Multiplicity = 1
  Electrons    = 36
  Nalpha       = 18
  Nbeta        = 18

  ==> Algorithm <==

  SCF Algorithm Type is PK.
  DIIS enabled.
  MOM disabled.
  Fractional occupation disabled.
  Guess Type is SAD.
  Energy threshold   = 1.00e-06
  Density threshold  = 1.00e-10
  Integral threshold = 0.00e+00

  ==> Primary Basis <==

  Basis Set: CC-PVDZ
    Blend: CC-PVDZ
    Number of shells: 60
    Number of basis function: 116
    Number of Cartesian functions: 120
    Spherical Harmonics?: true
    Max angular momentum: 2

  ==> Pre-Iterations <==

   -------------------------------------------------------
    Irrep   Nso     Nmo     Nalpha   Nbeta   Ndocc  Nsocc
   -------------------------------------------------------
     A        116     116       0       0       0       0
   -------------------------------------------------------
    Total     116     116      18      18      18       0
   -------------------------------------------------------

  ==> Integral Setup <==

  Using integral reordering PK algorithm.
  Sizing the integral batches needed.
  Building batch lookup table.
   Calculation information:
      Number of atoms:                  16
      Number of AO shells:              60
      Number of primitives:            148
      Number of atomic orbitals:       120
      Number of basis functions:       116

      Integral cutoff                 1.00e-12
      Number of threads:                 1

	Batch   1 pq = [       0,    6786] index = [             0,23028291] size =     23028291
  Task number: 3
  Buffer size: 11059200
  Buffer per thread: 2
  We computed 1462103 shell quartets total.
  Whereas there are 1675365 unique shell quartets.

  ==> DiskJK: Disk-Based J/K Matrices <==

    J tasked:                  Yes
    K tasked:                  Yes
    wK tasked:                  No
    Memory [MiB]:              375
    Schwarz Cutoff:          1E-12

    OpenMP threads:              1

  Minimum eigenvalue in the overlap matrix is 6.4693750432E-03.
  Using Symmetric Orthogonalization.

  SCF Guess: Superposition of Atomic Densities via on-the-fly atomic UHF.

  ==> Iterations <==

                        Total Energy        Delta E     RMS |[F,P]|

   @RHF iter SAD:  -157.31692181514219   -1.57317e+02   0.00000e+00
   @RHF iter   1:  -158.30884662810450   -9.91925e-01   4.17539e-03 DIIS
   @RHF iter   2:  -158.44082901206971   -1.31982e-01   1.76828e-03 DIIS
   @RHF iter   3:  -158.46360295353119   -2.27739e-02   3.47711e-04 DIIS
   @RHF iter   4:  -158.46541684656256   -1.81389e-03   3.84239e-05 DIIS
   @RHF iter   5:  -158.46543992562161   -2.30791e-05   6.36682e-06 DIIS
   @RHF iter   6:  -158.46544052686082   -6.01239e-07   1.00902e-06 DIIS
   @RHF iter   7:  -158.46544053722300   -1.03622e-08   3.00481e-07 DIIS
   @RHF iter   8:  -158.46544053800221   -7.79210e-10   3.93337e-08 DIIS
   @RHF iter   9:  -158.46544053802333   -2.11173e-11   8.03014e-09 DIIS
   @RHF iter  10:  -158.46544053802495   -1.62004e-12   1.90534e-09 DIIS
   @RHF iter  11:  -158.46544053802452    4.26326e-13   6.08062e-10 DIIS
   @RHF iter  12:  -158.46544053802452    0.00000e+00   1.74702e-10 DIIS
   @RHF iter  13:  -158.46544053802455   -2.84217e-14   2.33222e-11 DIIS
  Energy and wave function converged.

  ==> Post-Iterations <==

    Orbital Energies [Eh]
    ---------------------

    Doubly Occupied:

       1A    -11.220100     2A    -11.218757     3A    -11.217704
       4A    -11.216558     5A     -1.017572     6A     -1.012071
       7A     -0.840767     8A     -0.835996     9A     -0.599708
      10A     -0.598002    11A     -0.594037    12A     -0.592240
      13A     -0.502094    14A     -0.496633    15A     -0.490210
      16A     -0.488940    17A     -0.482625    18A     -0.480361

    Virtual:

      19A      0.173808    20A      0.195781    21A      0.227134
      22A      0.237761    23A      0.238974    24A      0.258695
      25A      0.261786    26A      0.276972    27A      0.284396
      28A      0.298194    29A      0.317460    30A      0.322314
      31A      0.388027    32A      0.397280    33A      0.562060
      34A      0.593767    35A      0.595905    36A      0.598539
      37A      0.612976    38A      0.636269    39A      0.691789
      40A      0.698593    41A      0.717910    42A      0.765692
      43A      0.836670    44A      0.861596    45A      0.881419
      46A      0.888497    47A      0.895177    48A      0.897482
      49A      0.904367    50A      0.913818    51A      0.919568
      52A      0.922887    53A      0.932970    54A      0.963590
      55A      0.968259    56A      1.021069    57A      1.124562
      58A      1.126270    59A      1.130889    60A      1.142031
      61A      1.214144    62A      1.265103    63A      1.461599
      64A      1.466450    65A      1.480451    66A      1.483133
      67A      1.591878    68A      1.593355    69A      1.683920
      70A      1.684318    71A      1.693694    72A      1.697483
      73A      1.862440    74A      1.869061    75A      1.870110
      76A      1.875167    77A      1.896217    78A      1.905453
      79A      1.934172    80A      1.936320    81A      1.942021
      82A      1.944108    83A      1.950231    84A      1.954030
      85A      1.962244    86A      1.965508    87A      1.977113
      88A      2.068832    89A      2.111039    90A      2.112452
      91A      2.127636    92A      2.147691    93A      2.291519
      94A      2.306034    95A      2.316814    96A      2.370414
      97A      2.434455    98A      2.448655    99A      2.452157
     100A      2.461234   101A      2.552586   102A      2.569330
     103A      2.578465   104A      2.589634   105A      2.761041
     106A      2.771951   107A      2.784706   108A      2.792398
     109A      2.839035   110A      2.852190   111A      2.854835
     112A      2.862164   113A      2.928065   114A      2.951432
     115A      2.960465   116A      2.971735

    Final Occupation by Irrep:
              A
    DOCC [    18 ]

  @RHF Final Energy:  -158.46544053802455

   => Energetics <=

    Nuclear Repulsion Energy =            123.1729168391530038
    One-Electron Energy =                -455.4679642820864842
    Two-Electron Energy =                 173.8296069049089283
    Total Energy =                       -158.4654405380245521

Computation Completed

Properties will be evaluated at   0.000000,   0.000000,   0.000000 [a0]

Properties computed using the SCF density matrix

  Nuclear Dipole Moment: [e a0]
     X:     0.1006      Y:     0.0528      Z:    -0.0508

  Electronic Dipole Moment: [e a0]
     X:    -0.0901      Y:    -0.0343      Z:     0.0321

  Dipole Moment: [e a0]
     X:     0.0106      Y:     0.0185      Z:    -0.0187     Total:     0.0284

  Dipole Moment: [D]
     X:     0.0268      Y:     0.0470      Z:    -0.0476     Total:     0.0721

*** tstop() called on ds3 at Tue Apr 28 09:15:43 2020
Module time:
	user time   =      10.76 seconds =       0.18 minutes
	system time =       3.27 seconds =       0.05 minutes
	total time  =         13 seconds =       0.22 minutes
Total time:
	user time   =      10.76 seconds =       0.18 minutes
	system time =       3.27 seconds =       0.05 minutes
	total time  =         13 seconds =       0.22 minutes
                                     G D M A

                                 by Anthony Stone

                           version 2.2.06, 22 June 2011

               Distributed Multipoles from Gaussian wavefunctions

Starting at 9:15:43 on 28 Apr 2020

Using SCF density matrix from file ./SSI/SSI-039ILE-108ILE-1-dimer.test.9859.fchk

                         Distributed Multipole Analysis

Standard DMA

Positions and radii in angstrom
Multipole moments in atomic units, ea_0^k for rank k

C          x = -0.089004  y =  0.874817  z = -1.186862 angstrom
           Maximum rank =  0   Radius =  0.650 angstrom
                   Q00  =  -0.246673

C          x = -0.214004  y =  1.554817  z = -2.560862 angstrom
           Maximum rank =  0   Radius =  0.650 angstrom
                   Q00  =  -0.234251

H          x = -0.632004  y = -0.069183  z = -1.168862 angstrom
           Maximum rank =  0   Radius =  0.325 angstrom
                   Q00  =   0.078141

H          x =  0.959996  y =  0.657817  z = -0.987862 angstrom
           Maximum rank =  0   Radius =  0.325 angstrom
                   Q00  =   0.078613

H          x = -0.462004  y =  1.533817  z = -0.401862 angstrom
           Maximum rank =  0   Radius =  0.325 angstrom
                   Q00  =   0.081360

H          x = -0.035004  y =  0.819817  z = -3.342862 angstrom
           Maximum rank =  0   Radius =  0.325 angstrom
                   Q00  =   0.081161

H          x =  0.574996  y =  2.302817  z = -2.621862 angstrom
           Maximum rank =  0   Radius =  0.325 angstrom
                   Q00  =   0.077491

H          x = -1.187334  y =  2.045781  z = -2.707792 angstrom
           Maximum rank =  0   Radius =  0.325 angstrom
                   Q00  =   0.082641

C          x = -0.257004  y = -0.585183  z =  2.058138 angstrom
           Maximum rank =  0   Radius =  0.650 angstrom
                   Q00  =  -0.250685

C          x =  0.550996  y = -1.849183  z =  1.694138 angstrom
           Maximum rank =  0   Radius =  0.650 angstrom
                   Q00  =  -0.230204

H          x = -0.626004  y = -0.656183  z =  3.083138 angstrom
           Maximum rank =  0   Radius =  0.325 angstrom
                   Q00  =   0.078576

H          x =  0.364996  y =  0.304817  z =  1.969138 angstrom
           Maximum rank =  0   Radius =  0.325 angstrom
                   Q00  =   0.080967

H          x = -1.102004  y = -0.448183  z =  1.382138 angstrom
           Maximum rank =  0   Radius =  0.325 angstrom
                   Q00  =   0.081871

H          x =  0.836996  y = -1.765183  z =  0.643138 angstrom
           Maximum rank =  0   Radius =  0.325 angstrom
                   Q00  =   0.077609

H          x = -0.055914  y = -2.759910  z =  1.804748 angstrom
           Maximum rank =  0   Radius =  0.325 angstrom
                   Q00  =   0.081644

H          x =  1.470636  y = -1.909874  z =  2.294618 angstrom
           Maximum rank =  0   Radius =  0.325 angstrom
                   Q00  =   0.081740

Total multipoles referred to origin at
           x =   0.000000,  y =    0.000000,  z =    0.000000 angstrom
                   Q00  =  -0.000000

Finished at 9:15:43 on 28 Apr 2020

  DMA results are available in the Python driver through the
	  variable('DMA DISTRIBUTED MULTIPOLES')
  and
	  variable('DMA TOTAL MULTIPOLES')
  commands.

    Psi4 stopped on: Tuesday, 28 April 2020 09:15AM
    Psi4 wall time for execution: 0:00:13.72

*** Psi4 exiting successfully. Buy a developer a beer!
