                               Psi4 1.3.2 release

  ==> Input File <==

--------------------------------------------------------------------------
import numpy as np
set {scf_type pk
basis cc-pvdz
d_convergence 10
gdma_switch   0
gdma_limit    0
gdma_origin   [ 0.0,  0.0,  0.0 ]
}
molecule test {
    units Angstrom
    0 1
    --
    0 1
    C               -2.226558269372738    -0.491557179707321    -1.681900370259049
    C               -0.303558269372738    -0.081557179707321    -0.118900370259050
    C               -1.429558269372738    -0.836557179707321    -0.447900370259050
    C                0.474441730627262    -0.404557179707321     0.991099629740950
    C                0.118441730627262    -1.494557179707321     1.793099629740950
    C               -1.790558269372738    -1.919557179707321     0.365099629740950
    C               -1.017558269372738    -2.254557179707322     1.476099629740951
    H               -0.017558269372738     0.754442820292679    -0.740900370259050
    H                1.352441730627262     0.179442820292679     1.230099629740951
    H               -2.673558269372738    -1.409557179707321    -2.062900370259050
    H               -1.542558269372738    -0.131557179707321    -2.448900370259049
    H                0.715441730627262    -1.752557179707321     2.654099629740950
    H               -2.661558269372738    -2.511557179707321     0.125099629740951
    H               -1.294558269372738    -3.095557179707321     2.095099629740950
    H               -3.016370269372738     0.255930820292679    -1.516190370259049
    C                2.374441730627262     2.595442820292679    -0.781900370259050
    C                3.172441730627262     3.899442820292679    -1.066900370259049
    H                1.308441730627262     2.813442820292679    -0.726900370259050
    H                2.540441730627262     1.880442820292679    -1.582900370259049
    H                2.699441730627262     2.154442820292679     0.158099629740950
    H                2.744441730627262     4.354442820292679    -1.960900370259050
    H                3.097688730627262     4.610663820292679    -0.231090370259050
    H                4.225601730627262     3.661655120292679    -1.277390370259049

}
e, wfn = energy('scf', return_wfn=True)
gdma(wfn)
dmavals = variable('DMA DISTRIBUTED MULTIPOLES')
charges = np.array(dmavals)
print(charges)
np.save('SSI-082PHE-104VAL-1-dimer.npy', np.array(charges))--------------------------------------------------------------------------

*** tstart() called on ds3
*** at Mon Apr 27 06:52:48 2020

   => Loading Basis Set <=

    Name: CC-PVDZ
    Role: ORBITAL
    Keyword: BASIS
    atoms 1-7, 16-17  entry C          line   138 file /theoryfs2/ds/metcalf/miniconda2/envs/tf2gpu/share/psi4/basis/cc-pvdz.gbs
    atoms 8-15, 18-23 entry H          line    22 file /theoryfs2/ds/metcalf/miniconda2/envs/tf2gpu/share/psi4/basis/cc-pvdz.gbs

         ---------------------------------------------------------
                                   SCF
               by Justin Turney, Rob Parrish, Andy Simmonett
                          and Daniel G. A. Smith
                              RHF Reference
                        1 Threads,    500 MiB Core
         ---------------------------------------------------------

  ==> Geometry <==

    Molecular point group: c1
    Full point group: C1

    Geometry (in Angstrom), charge = 0, multiplicity = 1:

       Center              X                  Y                   Z               Mass
    ------------   -----------------  -----------------  -----------------  -----------------
         C           -2.226558269373    -0.491557179707    -1.681900370259    12.000000000000
         C           -0.303558269373    -0.081557179707    -0.118900370259    12.000000000000
         C           -1.429558269373    -0.836557179707    -0.447900370259    12.000000000000
         C            0.474441730627    -0.404557179707     0.991099629741    12.000000000000
         C            0.118441730627    -1.494557179707     1.793099629741    12.000000000000
         C           -1.790558269373    -1.919557179707     0.365099629741    12.000000000000
         C           -1.017558269373    -2.254557179707     1.476099629741    12.000000000000
         H           -0.017558269373     0.754442820293    -0.740900370259     1.007825032230
         H            1.352441730627     0.179442820293     1.230099629741     1.007825032230
         H           -2.673558269373    -1.409557179707    -2.062900370259     1.007825032230
         H           -1.542558269373    -0.131557179707    -2.448900370259     1.007825032230
         H            0.715441730627    -1.752557179707     2.654099629741     1.007825032230
         H           -2.661558269373    -2.511557179707     0.125099629741     1.007825032230
         H           -1.294558269373    -3.095557179707     2.095099629741     1.007825032230
         H           -3.016370269373     0.255930820293    -1.516190370259     1.007825032230
         C            2.374441730627     2.595442820293    -0.781900370259    12.000000000000
         C            3.172441730627     3.899442820293    -1.066900370259    12.000000000000
         H            1.308441730627     2.813442820293    -0.726900370259     1.007825032230
         H            2.540441730627     1.880442820293    -1.582900370259     1.007825032230
         H            2.699441730627     2.154442820293     0.158099629741     1.007825032230
         H            2.744441730627     4.354442820293    -1.960900370259     1.007825032230
         H            3.097688730627     4.610663820293    -0.231090370259     1.007825032230
         H            4.225601730627     3.661655120293    -1.277390370259     1.007825032230

  Running in c1 symmetry.

  Rotational constants: A =      0.08175  B =      0.01919  C =      0.01569 [cm^-1]
  Rotational constants: A =   2450.76564  B =    575.29499  C =    470.51118 [MHz]
  Nuclear repulsion =  394.788555688147426

  Charge       = 0
  Multiplicity = 1
  Electrons    = 68
  Nalpha       = 34
  Nbeta        = 34

  ==> Algorithm <==

  SCF Algorithm Type is PK.
  DIIS enabled.
  MOM disabled.
  Fractional occupation disabled.
  Guess Type is SAD.
  Energy threshold   = 1.00e-06
  Density threshold  = 1.00e-10
  Integral threshold = 0.00e+00

  ==> Primary Basis <==

  Basis Set: CC-PVDZ
    Blend: CC-PVDZ
    Number of shells: 96
    Number of basis function: 196
    Number of Cartesian functions: 205
    Spherical Harmonics?: true
    Max angular momentum: 2

  ==> Pre-Iterations <==

   -------------------------------------------------------
    Irrep   Nso     Nmo     Nalpha   Nbeta   Ndocc  Nsocc
   -------------------------------------------------------
     A        196     196       0       0       0       0
   -------------------------------------------------------
    Total     196     196      34      34      34       0
   -------------------------------------------------------

  ==> Integral Setup <==

  Using integral reordering PK algorithm.
  Sizing the integral batches needed.
  Building batch lookup table.
   Calculation information:
      Number of atoms:                  23
      Number of AO shells:              96
      Number of primitives:            268
      Number of atomic orbitals:       205
      Number of basis functions:       196

      Integral cutoff                 1.00e-12
      Number of threads:                 1

	Batch   1 pq = [       0,    9405] index = [             0,44231715] size =     44231715
	Batch   2 pq = [    9405,   13301] index = [      44231715,88464951] size =     44233236
	Batch   3 pq = [   13301,   16290] index = [      88464951,132690195] size =     44225244
	Batch   4 pq = [   16290,   18810] index = [     132690195,176917455] size =     44227260
	Batch   5 pq = [   18810,   19306] index = [     176917455,186370471] size =      9453016
  Task number: 17
  Buffer size: 11059200
  Buffer per thread: 2
  We computed 8213838 shell quartets total.
  Whereas there are 10841496 unique shell quartets.

  ==> DiskJK: Disk-Based J/K Matrices <==

    J tasked:                  Yes
    K tasked:                  Yes
    wK tasked:                  No
    Memory [MiB]:              375
    Schwarz Cutoff:          1E-12

    OpenMP threads:              1

  Minimum eigenvalue in the overlap matrix is 3.1001796035E-04.
  Using Symmetric Orthogonalization.

  SCF Guess: Superposition of Atomic Densities via on-the-fly atomic UHF.

  ==> Iterations <==

                        Total Energy        Delta E     RMS |[F,P]|

   @RHF iter SAD:  -347.76698089789602   -3.47767e+02   0.00000e+00
   @RHF iter   1:  -348.77172344047688   -1.00474e+00   2.85708e-03 DIIS
   @RHF iter   2:  -348.96111164810929   -1.89388e-01   1.17241e-03 DIIS
   @RHF iter   3:  -348.99007200691852   -2.89604e-02   2.57323e-04 DIIS
   @RHF iter   4:  -348.99252007641837   -2.44807e-03   5.43594e-05 DIIS
   @RHF iter   5:  -348.99259631591309   -7.62395e-05   1.86489e-05 DIIS
   @RHF iter   6:  -348.99260475997585   -8.44406e-06   4.84749e-06 DIIS
   @RHF iter   7:  -348.99260542948213   -6.69506e-07   1.21704e-06 DIIS
   @RHF iter   8:  -348.99260547654325   -4.70611e-08   2.89386e-07 DIIS
   @RHF iter   9:  -348.99260548101842   -4.47517e-09   1.20211e-07 DIIS
   @RHF iter  10:  -348.99260548184230   -8.23889e-10   5.49835e-08 DIIS
   @RHF iter  11:  -348.99260548215642   -3.14117e-10   2.18961e-08 DIIS
   @RHF iter  12:  -348.99260548221116   -5.47402e-11   9.53269e-09 DIIS
   @RHF iter  13:  -348.99260548221980   -8.64020e-12   3.48116e-09 DIIS
   @RHF iter  14:  -348.99260548222207   -2.27374e-12   7.02606e-10 DIIS
   @RHF iter  15:  -348.99260548222207    0.00000e+00   2.81433e-10 DIIS
   @RHF iter  16:  -348.99260548221895    3.12639e-12   1.02842e-10 DIIS
   @RHF iter  17:  -348.99260548222031   -1.36424e-12   3.35640e-11 DIIS
  Energy and wave function converged.

  ==> Post-Iterations <==

    Orbital Energies [Eh]
    ---------------------

    Doubly Occupied:

       1A    -11.240396     2A    -11.235929     3A    -11.235056
       4A    -11.231872     5A    -11.230903     6A    -11.228567
       7A    -11.228453     8A    -11.223808     9A    -11.221879
      10A     -1.147988    11A     -1.040360    12A     -1.015325
      13A     -1.009405    14A     -0.928760    15A     -0.842756
      16A     -0.821920    17A     -0.793917    18A     -0.688249
      19A     -0.630120    20A     -0.627778    21A     -0.598671
      22A     -0.597851    23A     -0.581840    24A     -0.576377
      25A     -0.559326    26A     -0.533033    27A     -0.498566
      28A     -0.492841    29A     -0.490839    30A     -0.483523
      31A     -0.480851    32A     -0.480395    33A     -0.330688
      34A     -0.318894

    Virtual:

      35A      0.137399    36A      0.139936    37A      0.174770
      38A      0.192505    39A      0.201858    40A      0.212608
      41A      0.234803    42A      0.241099    43A      0.251493
      44A      0.258917    45A      0.267971    46A      0.278198
      47A      0.282573    48A      0.286408    49A      0.323228
      50A      0.338505    51A      0.362662    52A      0.367750
      53A      0.403814    54A      0.460215    55A      0.462934
      56A      0.479994    57A      0.492333    58A      0.558975
      59A      0.589759    60A      0.593067    61A      0.595442
      62A      0.640211    63A      0.661576    64A      0.675985
      65A      0.682677    66A      0.695128    67A      0.701598
      68A      0.711430    69A      0.726172    70A      0.736903
      71A      0.743470    72A      0.747586    73A      0.761850
      74A      0.764708    75A      0.776287    76A      0.785368
      77A      0.837086    78A      0.846948    79A      0.867320
      80A      0.870723    81A      0.875140    82A      0.885120
      83A      0.889104    84A      0.891772    85A      0.897395
      86A      0.905309    87A      0.914547    88A      0.920975
      89A      0.931135    90A      0.936724    91A      0.943068
      92A      0.950790    93A      0.970557    94A      1.001711
      95A      1.030339    96A      1.043667    97A      1.118928
      98A      1.123003    99A      1.135544   100A      1.147603
     101A      1.154910   102A      1.165985   103A      1.197448
     104A      1.223259   105A      1.246184   106A      1.248759
     107A      1.251102   108A      1.274746   109A      1.302847
     110A      1.314008   111A      1.321779   112A      1.347293
     113A      1.414335   114A      1.462913   115A      1.479918
     116A      1.516793   117A      1.522231   118A      1.554317
     119A      1.581792   120A      1.614965   121A      1.678419
     122A      1.682623   123A      1.691480   124A      1.704993
     125A      1.731228   126A      1.751584   127A      1.755297
     128A      1.788821   129A      1.807017   130A      1.853060
     131A      1.861347   132A      1.876143   133A      1.882362
     134A      1.896491   135A      1.904769   136A      1.907549
     137A      1.912931   138A      1.922324   139A      1.929941
     140A      1.933836   141A      1.938771   142A      1.945334
     143A      1.954433   144A      1.955066   145A      1.977012
     146A      1.981736   147A      1.996998   148A      2.013369
     149A      2.039676   150A      2.060458   151A      2.072644
     152A      2.090403   153A      2.112880   154A      2.118402
     155A      2.145388   156A      2.155040   157A      2.159749
     158A      2.181773   159A      2.194546   160A      2.263015
     161A      2.279375   162A      2.290968   163A      2.295957
     164A      2.301079   165A      2.305713   166A      2.319586
     167A      2.359011   168A      2.449020   169A      2.455934
     170A      2.473262   171A      2.484330   172A      2.498024
     173A      2.542509   174A      2.552716   175A      2.576168
     176A      2.618970   177A      2.744581   178A      2.750716
     179A      2.758264   180A      2.770014   181A      2.783149
     182A      2.791412   183A      2.824814   184A      2.839787
     185A      2.847838   186A      2.851972   187A      2.876311
     188A      2.936276   189A      2.951127   190A      2.976954
     191A      3.000937   192A      3.015099   193A      3.146806
     194A      3.197501   195A      3.292895   196A      3.951583

    Final Occupation by Irrep:
              A
    DOCC [    34 ]

  @RHF Final Energy:  -348.99260548222031

   => Energetics <=

    Nuclear Repulsion Energy =            394.7885556881474258
    One-Electron Energy =               -1252.2680496967363979
    Two-Electron Energy =                 508.4868885263686593
    Total Energy =                       -348.9926054822203128

Computation Completed

Properties will be evaluated at   0.000000,   0.000000,   0.000000 [a0]

Properties computed using the SCF density matrix

  Nuclear Dipole Moment: [e a0]
     X:     7.0102      Y:    11.0285      Z:    -5.8925

  Electronic Dipole Moment: [e a0]
     X:    -7.0455      Y:   -10.9825      Z:     5.7682

  Dipole Moment: [e a0]
     X:    -0.0353      Y:     0.0460      Z:    -0.1243     Total:     0.1372

  Dipole Moment: [D]
     X:    -0.0898      Y:     0.1169      Z:    -0.3159     Total:     0.3486

*** tstop() called on ds3 at Mon Apr 27 06:54:58 2020
Module time:
	user time   =      57.97 seconds =       0.97 minutes
	system time =      27.85 seconds =       0.46 minutes
	total time  =        130 seconds =       2.17 minutes
Total time:
	user time   =      57.97 seconds =       0.97 minutes
	system time =      27.85 seconds =       0.46 minutes
	total time  =        130 seconds =       2.17 minutes
                                     G D M A

                                 by Anthony Stone

                           version 2.2.06, 22 June 2011

               Distributed Multipoles from Gaussian wavefunctions

Starting at 6:54:58 on 27 Apr 2020

Using SCF density matrix from file ./SSI/SSI-082PHE-104VAL-1-dimer.test.7515.fchk

                         Distributed Multipole Analysis

Standard DMA

Positions and radii in angstrom
Multipole moments in atomic units, ea_0^k for rank k

C          x = -2.226558  y = -0.491557  z = -1.681900 angstrom
           Maximum rank =  0   Radius =  0.650 angstrom
                   Q00  =  -0.203587

C          x = -0.303558  y = -0.081557  z = -0.118900 angstrom
           Maximum rank =  0   Radius =  0.650 angstrom
                   Q00  =  -0.013312

C          x = -1.429558  y = -0.836557  z = -0.447900 angstrom
           Maximum rank =  0   Radius =  0.650 angstrom
                   Q00  =  -0.101708

C          x =  0.474442  y = -0.404557  z =  0.991100 angstrom
           Maximum rank =  0   Radius =  0.650 angstrom
                   Q00  =  -0.074733

C          x =  0.118442  y = -1.494557  z =  1.793100 angstrom
           Maximum rank =  0   Radius =  0.650 angstrom
                   Q00  =  -0.090460

C          x = -1.790558  y = -1.919557  z =  0.365100 angstrom
           Maximum rank =  0   Radius =  0.650 angstrom
                   Q00  =  -0.054774

C          x = -1.017558  y = -2.254557  z =  1.476100 angstrom
           Maximum rank =  0   Radius =  0.650 angstrom
                   Q00  =  -0.070673

H          x = -0.017558  y =  0.754443  z = -0.740900 angstrom
           Maximum rank =  0   Radius =  0.325 angstrom
                   Q00  =   0.056748

H          x =  1.352442  y =  0.179443  z =  1.230100 angstrom
           Maximum rank =  0   Radius =  0.325 angstrom
                   Q00  =   0.065137

H          x = -2.673558  y = -1.409557  z = -2.062900 angstrom
           Maximum rank =  0   Radius =  0.325 angstrom
                   Q00  =   0.097029

H          x = -1.542558  y = -0.131557  z = -2.448900 angstrom
           Maximum rank =  0   Radius =  0.325 angstrom
                   Q00  =   0.098376

H          x =  0.715442  y = -1.752557  z =  2.654100 angstrom
           Maximum rank =  0   Radius =  0.325 angstrom
                   Q00  =   0.061960

H          x = -2.661558  y = -2.511557  z =  0.125100 angstrom
           Maximum rank =  0   Radius =  0.325 angstrom
                   Q00  =   0.058295

H          x = -1.294558  y = -3.095557  z =  2.095100 angstrom
           Maximum rank =  0   Radius =  0.325 angstrom
                   Q00  =   0.066136

H          x = -3.016370  y =  0.255931  z = -1.516190 angstrom
           Maximum rank =  0   Radius =  0.325 angstrom
                   Q00  =   0.105617

C          x =  2.374442  y =  2.595443  z = -0.781900 angstrom
           Maximum rank =  0   Radius =  0.650 angstrom
                   Q00  =  -0.256269

C          x =  3.172442  y =  3.899443  z = -1.066900 angstrom
           Maximum rank =  0   Radius =  0.650 angstrom
                   Q00  =  -0.238563

H          x =  1.308442  y =  2.813443  z = -0.726900 angstrom
           Maximum rank =  0   Radius =  0.325 angstrom
                   Q00  =   0.079325

H          x =  2.540442  y =  1.880443  z = -1.582900 angstrom
           Maximum rank =  0   Radius =  0.325 angstrom
                   Q00  =   0.083871

H          x =  2.699442  y =  2.154443  z =  0.158100 angstrom
           Maximum rank =  0   Radius =  0.325 angstrom
                   Q00  =   0.082878

H          x =  2.744442  y =  4.354443  z = -1.960900 angstrom
           Maximum rank =  0   Radius =  0.325 angstrom
                   Q00  =   0.080326

H          x =  3.097689  y =  4.610664  z = -0.231090 angstrom
           Maximum rank =  0   Radius =  0.325 angstrom
                   Q00  =   0.085286

H          x =  4.225602  y =  3.661655  z = -1.277390 angstrom
           Maximum rank =  0   Radius =  0.325 angstrom
                   Q00  =   0.083095

Total multipoles referred to origin at
           x =   0.000000,  y =    0.000000,  z =    0.000000 angstrom
                   Q00  =  -0.000000

Finished at 6:54:59 on 27 Apr 2020

  DMA results are available in the Python driver through the
	  variable('DMA DISTRIBUTED MULTIPOLES')
  and
	  variable('DMA TOTAL MULTIPOLES')
  commands.

    Psi4 stopped on: Monday, 27 April 2020 06:54AM
    Psi4 wall time for execution: 0:02:11.02

*** Psi4 exiting successfully. Buy a developer a beer!
