                               Psi4 1.3.2 release

  ==> Input File <==

--------------------------------------------------------------------------
import numpy as np
set {scf_type pk
basis cc-pvdz
d_convergence 10
gdma_switch   0
gdma_limit    0
gdma_origin   [ 0.0,  0.0,  0.0 ]
}
molecule test {
    units Angstrom
    -1 1
    --
    -1 1
    C                1.895084386730065     2.424715331813746    -0.042114564015188
    C                0.529084386730065     1.784715331813747     0.074885435984812
    O                0.040084386730065     1.671715331813747     1.221885435984812
    O               -0.043915613269935     1.386715331813747    -0.967114564015188
    H                1.764084386730065     3.498715331813746    -0.186114564015188
    H                2.417084386730066     2.028715331813747    -0.916114564015188
    H                2.506934386730065     2.261506831813747     0.857329635984812
    C               -0.414915613269935    -1.564284668186254     0.115885435984812
    C               -1.175915613269935    -2.507284668186254     1.058885435984812
    C                0.653084386730065    -2.273284668186254    -0.679114564015188
    O               -1.397915613269935    -0.917284668186254    -0.705114564015188
    H                0.082084386730065    -0.809284668186254     0.717885435984812
    H               -0.450915613269935    -2.936284668186254     1.735885435984812
    H                0.224084386730065    -3.058284668186254    -1.301114564015188
    H                1.156084386730065    -1.550284668186253    -1.322114564015188
    H                1.392084386730065    -2.702284668186254    -0.003114564015188
    H               -0.979915613269935    -0.049284668186254    -0.922114564015188
    H               -1.690915613269935    -3.311637668186254     0.513184035984812
    H               -1.872525613269935    -1.927012668186253     1.681792135984812

}
e, wfn = energy('scf', return_wfn=True)
gdma(wfn)
dmavals = variable('DMA DISTRIBUTED MULTIPOLES')
charges = np.array(dmavals)
print(charges)
np.save('SSI-018ASP-032THR-1-dimer.npy', np.array(charges))--------------------------------------------------------------------------

*** tstart() called on ds3
*** at Tue Apr 28 07:56:12 2020

   => Loading Basis Set <=

    Name: CC-PVDZ
    Role: ORBITAL
    Keyword: BASIS
    atoms 1-2, 8-10  entry C          line   138 file /theoryfs2/ds/metcalf/miniconda2/envs/tf2gpu/share/psi4/basis/cc-pvdz.gbs
    atoms 3-4, 11    entry O          line   198 file /theoryfs2/ds/metcalf/miniconda2/envs/tf2gpu/share/psi4/basis/cc-pvdz.gbs
    atoms 5-7, 12-19 entry H          line    22 file /theoryfs2/ds/metcalf/miniconda2/envs/tf2gpu/share/psi4/basis/cc-pvdz.gbs

         ---------------------------------------------------------
                                   SCF
               by Justin Turney, Rob Parrish, Andy Simmonett
                          and Daniel G. A. Smith
                              RHF Reference
                        1 Threads,    500 MiB Core
         ---------------------------------------------------------

  ==> Geometry <==

    Molecular point group: c1
    Full point group: C1

    Geometry (in Angstrom), charge = -1, multiplicity = 1:

       Center              X                  Y                   Z               Mass
    ------------   -----------------  -----------------  -----------------  -----------------
         C            1.895084386730     2.424715331814    -0.042114564015    12.000000000000
         C            0.529084386730     1.784715331814     0.074885435985    12.000000000000
         O            0.040084386730     1.671715331814     1.221885435985    15.994914619570
         O           -0.043915613270     1.386715331814    -0.967114564015    15.994914619570
         H            1.764084386730     3.498715331814    -0.186114564015     1.007825032230
         H            2.417084386730     2.028715331814    -0.916114564015     1.007825032230
         H            2.506934386730     2.261506831814     0.857329635985     1.007825032230
         C           -0.414915613270    -1.564284668186     0.115885435985    12.000000000000
         C           -1.175915613270    -2.507284668186     1.058885435985    12.000000000000
         C            0.653084386730    -2.273284668186    -0.679114564015    12.000000000000
         O           -1.397915613270    -0.917284668186    -0.705114564015    15.994914619570
         H            0.082084386730    -0.809284668186     0.717885435985     1.007825032230
         H           -0.450915613270    -2.936284668186     1.735885435985     1.007825032230
         H            0.224084386730    -3.058284668186    -1.301114564015     1.007825032230
         H            1.156084386730    -1.550284668186    -1.322114564015     1.007825032230
         H            1.392084386730    -2.702284668186    -0.003114564015     1.007825032230
         H           -0.979915613270    -0.049284668186    -0.922114564015     1.007825032230
         H           -1.690915613270    -3.311637668186     0.513184035985     1.007825032230
         H           -1.872525613270    -1.927012668186     1.681792135985     1.007825032230

  Running in c1 symmetry.

  Rotational constants: A =      0.10819  B =      0.03076  C =      0.02967 [cm^-1]
  Rotational constants: A =   3243.50875  B =    922.09817  C =    889.57758 [MHz]
  Nuclear repulsion =  386.822153123829253

  Charge       = -1
  Multiplicity = 1
  Electrons    = 66
  Nalpha       = 33
  Nbeta        = 33

  ==> Algorithm <==

  SCF Algorithm Type is PK.
  DIIS enabled.
  MOM disabled.
  Fractional occupation disabled.
  Guess Type is SAD.
  Energy threshold   = 1.00e-06
  Density threshold  = 1.00e-10
  Integral threshold = 0.00e+00

  ==> Primary Basis <==

  Basis Set: CC-PVDZ
    Blend: CC-PVDZ
    Number of shells: 81
    Number of basis function: 167
    Number of Cartesian functions: 175
    Spherical Harmonics?: true
    Max angular momentum: 2

  ==> Pre-Iterations <==

   -------------------------------------------------------
    Irrep   Nso     Nmo     Nalpha   Nbeta   Ndocc  Nsocc
   -------------------------------------------------------
     A        167     167       0       0       0       0
   -------------------------------------------------------
    Total     167     167      33      33      33       0
   -------------------------------------------------------

  ==> Integral Setup <==

  Using integral reordering PK algorithm.
  Sizing the integral batches needed.
  Building batch lookup table.
   Calculation information:
      Number of atoms:                  19
      Number of AO shells:              81
      Number of primitives:            231
      Number of atomic orbitals:       175
      Number of basis functions:       167

      Integral cutoff                 1.00e-12
      Number of threads:                 1

	Batch   1 pq = [       0,    9405] index = [             0,44231715] size =     44231715
	Batch   2 pq = [    9405,   13301] index = [      44231715,88464951] size =     44233236
	Batch   3 pq = [   13301,   14028] index = [      88464951,98399406] size =      9934455
  Task number: 9
  Buffer size: 11059200
  Buffer per thread: 2
  We computed 4761018 shell quartets total.
  Whereas there are 5516181 unique shell quartets.

  ==> DiskJK: Disk-Based J/K Matrices <==

    J tasked:                  Yes
    K tasked:                  Yes
    wK tasked:                  No
    Memory [MiB]:              375
    Schwarz Cutoff:          1E-12

    OpenMP threads:              1

  Minimum eigenvalue in the overlap matrix is 4.5592642427E-03.
  Using Symmetric Orthogonalization.

  SCF Guess: Superposition of Atomic Densities via on-the-fly atomic UHF.

  ==> Iterations <==

                        Total Energy        Delta E     RMS |[F,P]|

   @RHF iter SAD:  -418.69416112250843   -4.18694e+02   0.00000e+00
   @RHF iter   1:  -420.08828090678628   -1.39412e+00   4.70249e-03 DIIS
   @RHF iter   2:  -420.33007504949552   -2.41794e-01   2.56631e-03 DIIS
   @RHF iter   3:  -420.39697918104855   -6.69041e-02   4.13037e-04 DIIS
   @RHF iter   4:  -420.40011239064313   -3.13321e-03   1.57471e-04 DIIS
   @RHF iter   5:  -420.40055591043586   -4.43520e-04   3.00312e-05 DIIS
   @RHF iter   6:  -420.40057172894137   -1.58185e-05   1.29287e-05 DIIS
   @RHF iter   7:  -420.40057420508845   -2.47615e-06   2.77572e-06 DIIS
   @RHF iter   8:  -420.40057441795796   -2.12870e-07   1.09256e-06 DIIS
   @RHF iter   9:  -420.40057444989435   -3.19364e-08   4.23041e-07 DIIS
   @RHF iter  10:  -420.40057445679076   -6.89641e-09   1.65857e-07 DIIS
   @RHF iter  11:  -420.40057445790103   -1.11027e-09   6.13804e-08 DIIS
   @RHF iter  12:  -420.40057445803188   -1.30854e-10   2.00360e-08 DIIS
   @RHF iter  13:  -420.40057445804530   -1.34150e-11   4.97170e-09 DIIS
   @RHF iter  14:  -420.40057445804638   -1.08002e-12   1.35706e-09 DIIS
   @RHF iter  15:  -420.40057445804968   -3.29692e-12   3.93879e-10 DIIS
   @RHF iter  16:  -420.40057445804831    1.36424e-12   1.54617e-10 DIIS
   @RHF iter  17:  -420.40057445805030   -1.98952e-12   6.52077e-11 DIIS
  Energy and wave function converged.

  ==> Post-Iterations <==

    Orbital Energies [Eh]
    ---------------------

    Doubly Occupied:

       1A    -20.354429     2A    -20.296636     3A    -20.286047
       4A    -11.144999     5A    -11.114870     6A    -11.083821
       7A    -11.081225     8A    -11.068960     9A     -1.182694
      10A     -1.158228    11A     -1.068084    12A     -0.893971
      13A     -0.818021    14A     -0.799392    15A     -0.636547
      16A     -0.545228    17A     -0.515629    18A     -0.462702
      19A     -0.451379    20A     -0.433556    21A     -0.432196
      22A     -0.430656    23A     -0.410639    24A     -0.399893
      25A     -0.368285    26A     -0.363016    27A     -0.352877
      28A     -0.328935    29A     -0.304698    30A     -0.258647
      31A     -0.214388    32A     -0.201223    33A     -0.193168

    Virtual:

      34A      0.310913    35A      0.335260    36A      0.360232
      37A      0.363991    38A      0.374156    39A      0.384795
      40A      0.401557    41A      0.423004    42A      0.429536
      43A      0.450697    44A      0.458742    45A      0.495786
      46A      0.517921    47A      0.555434    48A      0.561022
      49A      0.604003    50A      0.692768    51A      0.700801
      52A      0.723157    53A      0.748622    54A      0.801706
      55A      0.811882    56A      0.819283    57A      0.858442
      58A      0.871427    59A      0.919730    60A      0.929868
      61A      0.946813    62A      0.970265    63A      0.985054
      64A      1.000873    65A      1.008650    66A      1.011636
      67A      1.018845    68A      1.023910    69A      1.033172
      70A      1.039690    71A      1.047375    72A      1.051136
      73A      1.081548    74A      1.091360    75A      1.097921
      76A      1.124686    77A      1.131566    78A      1.220114
      79A      1.273553    80A      1.294207    81A      1.306209
      82A      1.327605    83A      1.377106    84A      1.398688
      85A      1.459305    86A      1.503219    87A      1.528508
      88A      1.543408    89A      1.558373    90A      1.583317
      91A      1.609580    92A      1.618912    93A      1.645463
      94A      1.666503    95A      1.694913    96A      1.722350
      97A      1.765887    98A      1.786362    99A      1.802968
     100A      1.816296   101A      1.817429   102A      1.823649
     103A      1.839926   104A      1.859909   105A      1.920777
     106A      1.999944   107A      2.009312   108A      2.028697
     109A      2.031400   110A      2.041890   111A      2.048578
     112A      2.052987   113A      2.090643   114A      2.120015
     115A      2.124387   116A      2.141211   117A      2.144748
     118A      2.152541   119A      2.182878   120A      2.191766
     121A      2.206535   122A      2.235680   123A      2.255254
     124A      2.306987   125A      2.349295   126A      2.380916
     127A      2.391198   128A      2.410823   129A      2.433599
     130A      2.459205   131A      2.486921   132A      2.512311
     133A      2.541104   134A      2.620728   135A      2.663680
     136A      2.668708   137A      2.692020   138A      2.723377
     139A      2.743296   140A      2.750879   141A      2.805194
     142A      2.879659   143A      2.891807   144A      2.900125
     145A      2.913109   146A      2.935754   147A      2.959052
     148A      2.964303   149A      2.980711   150A      3.021754
     151A      3.049930   152A      3.154331   153A      3.243622
     154A      3.247146   155A      3.326106   156A      3.391466
     157A      3.533869   158A      3.590974   159A      3.599949
     160A      3.691091   161A      3.761532   162A      3.801949
     163A      3.835827   164A      4.047029   165A      4.059888
     166A      4.171066   167A      4.357292

    Final Occupation by Irrep:
              A
    DOCC [    33 ]

  @RHF Final Energy:  -420.40057445805030

   => Energetics <=

    Nuclear Repulsion Energy =            386.8221531238292528
    One-Electron Energy =               -1355.1353804246484742
    Two-Electron Energy =                 547.9126528427689209
    Total Energy =                       -420.4005744580503006

Computation Completed

Properties will be evaluated at   0.000000,   0.000000,   0.000000 [a0]

Properties computed using the SCF density matrix

  Nuclear Dipole Moment: [e a0]
     X:     4.2570      Y:    -8.0102      Z:     0.7997

  Electronic Dipole Moment: [e a0]
     X:    -3.1591      Y:     6.6426      Z:    -0.8249

  Dipole Moment: [e a0]
     X:     1.0980      Y:    -1.3676      Z:    -0.0251     Total:     1.7540

  Dipole Moment: [D]
     X:     2.7908      Y:    -3.4760      Z:    -0.0639     Total:     4.4581

*** tstop() called on ds3 at Tue Apr 28 07:57:00 2020
Module time:
	user time   =      33.05 seconds =       0.55 minutes
	system time =      14.15 seconds =       0.24 minutes
	total time  =         48 seconds =       0.80 minutes
Total time:
	user time   =      33.05 seconds =       0.55 minutes
	system time =      14.15 seconds =       0.24 minutes
	total time  =         48 seconds =       0.80 minutes
                                     G D M A

                                 by Anthony Stone

                           version 2.2.06, 22 June 2011

               Distributed Multipoles from Gaussian wavefunctions

Starting at 7:57:0 on 28 Apr 2020

Using SCF density matrix from file ./SSI/SSI-018ASP-032THR-1-dimer.test.7844.fchk

                         Distributed Multipole Analysis

Standard DMA

Positions and radii in angstrom
Multipole moments in atomic units, ea_0^k for rank k

C          x =  1.895084  y =  2.424715  z = -0.042115 angstrom
           Maximum rank =  0   Radius =  0.650 angstrom
                   Q00  =  -0.270004

C          x =  0.529084  y =  1.784715  z =  0.074885 angstrom
           Maximum rank =  0   Radius =  0.650 angstrom
                   Q00  =   0.934181

O          x =  0.040084  y =  1.671715  z =  1.221885 angstrom
           Maximum rank =  0   Radius =  0.650 angstrom
                   Q00  =  -0.899153

O          x = -0.043916  y =  1.386715  z = -0.967115 angstrom
           Maximum rank =  0   Radius =  0.650 angstrom
                   Q00  =  -0.946480

H          x =  1.764084  y =  3.498715  z = -0.186115 angstrom
           Maximum rank =  0   Radius =  0.325 angstrom
                   Q00  =   0.088121

H          x =  2.417084  y =  2.028715  z = -0.916115 angstrom
           Maximum rank =  0   Radius =  0.325 angstrom
                   Q00  =   0.059423

H          x =  2.506934  y =  2.261507  z =  0.857330 angstrom
           Maximum rank =  0   Radius =  0.325 angstrom
                   Q00  =   0.064248

C          x = -0.414916  y = -1.564285  z =  0.115885 angstrom
           Maximum rank =  0   Radius =  0.650 angstrom
                   Q00  =   0.272778

C          x = -1.175916  y = -2.507285  z =  1.058885 angstrom
           Maximum rank =  0   Radius =  0.650 angstrom
                   Q00  =  -0.250430

C          x =  0.653084  y = -2.273285  z = -0.679115 angstrom
           Maximum rank =  0   Radius =  0.650 angstrom
                   Q00  =  -0.252384

O          x = -1.397916  y = -0.917285  z = -0.705115 angstrom
           Maximum rank =  0   Radius =  0.650 angstrom
                   Q00  =  -0.733176

H          x =  0.082084  y = -0.809285  z =  0.717885 angstrom
           Maximum rank =  0   Radius =  0.325 angstrom
                   Q00  =   0.021300

H          x = -0.450916  y = -2.936285  z =  1.735885 angstrom
           Maximum rank =  0   Radius =  0.325 angstrom
                   Q00  =   0.042569

H          x =  0.224084  y = -3.058285  z = -1.301115 angstrom
           Maximum rank =  0   Radius =  0.325 angstrom
                   Q00  =   0.055727

H          x =  1.156084  y = -1.550285  z = -1.322115 angstrom
           Maximum rank =  0   Radius =  0.325 angstrom
                   Q00  =   0.087675

H          x =  1.392084  y = -2.702285  z = -0.003115 angstrom
           Maximum rank =  0   Radius =  0.325 angstrom
                   Q00  =   0.044952

H          x = -0.979916  y = -0.049285  z = -0.922115 angstrom
           Maximum rank =  0   Radius =  0.325 angstrom
                   Q00  =   0.533404

H          x = -1.690916  y = -3.311638  z =  0.513184 angstrom
           Maximum rank =  0   Radius =  0.325 angstrom
                   Q00  =   0.056887

H          x = -1.872526  y = -1.927013  z =  1.681792 angstrom
           Maximum rank =  0   Radius =  0.325 angstrom
                   Q00  =   0.090360

Total multipoles referred to origin at
           x =   0.000000,  y =    0.000000,  z =    0.000000 angstrom
                   Q00  =  -1.000000

Finished at 7:57:0 on 28 Apr 2020

  DMA results are available in the Python driver through the
	  variable('DMA DISTRIBUTED MULTIPOLES')
  and
	  variable('DMA TOTAL MULTIPOLES')
  commands.

    Psi4 stopped on: Tuesday, 28 April 2020 07:57AM
    Psi4 wall time for execution: 0:00:48.19

*** Psi4 exiting successfully. Buy a developer a beer!
