                               Psi4 1.3.2 release

  ==> Input File <==

--------------------------------------------------------------------------
import numpy as np
set {scf_type pk
basis cc-pvdz
d_convergence 10
gdma_switch   0
gdma_limit    0
gdma_origin   [ 0.0,  0.0,  0.0 ]
}
molecule test {
    units Angstrom
    0 1
    --
    0 1
    C                0.453150890953178     4.585365171131414    -0.163374814408658
    C                1.442150890953178     1.158365171131415     1.052625185591342
    C                2.514150890953178     0.853365171131415     0.217625185591342
    C                0.777150890953178     2.371365171131415     0.932625185591342
    C                1.191150890953178     3.299365171131415    -0.012374814408658
    C                2.932150890953178     1.777365171131415    -0.728374814408658
    C                2.263150890953178     2.991365171131415    -0.845374814408658
    H                1.126150890953178     0.451365171131415     1.803625185591342
    H                3.032150890953178    -0.091634828868585     0.320625185591342
    H               -0.042849109046822     2.602365171131415     1.597625185591342
    H                3.783150890953178     1.558365171131415    -1.359374814408658
    H                1.149150890953178     5.418365171131415    -0.059374814408658
    H               -0.272849109046822     4.677365171131416     0.646625185591342
    H                2.650150890953178     3.721365171131415    -1.539374814408659
    H               -0.093159109046822     4.651495171131415    -1.115824814408658
    C               -2.270849109046822    -4.899634828868584    -0.515374814408658
    C               -0.998849109046822    -1.677634828868585     0.605625185591342
    C               -1.991849109046822    -3.446634828868585    -0.241374814408658
    C               -2.657849109046822    -2.344634828868585    -0.672374814408658
    N               -0.962849109046822    -3.000634828868586     0.560625185591342
    N               -2.019849109046822    -1.250634828868585    -0.128374814408658
    H               -0.350849109046822    -1.063634828868585     1.215625185591341
    H               -2.395849109046822    -0.312634828868585    -0.069374814408658
    H               -3.544849109046822    -2.346634828868585    -1.294374814408659
    H               -3.217849109046822    -4.951634828868585    -1.048374814408658
    H               -2.379849109046822    -5.428634828868584     0.428625185591342
    H               -1.503499109046822    -5.398524828868585    -1.125524814408658

}
e, wfn = energy('scf', return_wfn=True)
gdma(wfn)
dmavals = variable('DMA DISTRIBUTED MULTIPOLES')
charges = np.array(dmavals)
print(charges)
np.save('SSI-034PHE-062HIE-1-dimer.npy', np.array(charges))--------------------------------------------------------------------------

*** tstart() called on ds3
*** at Tue Apr 28 14:36:49 2020

   => Loading Basis Set <=

    Name: CC-PVDZ
    Role: ORBITAL
    Keyword: BASIS
    atoms 1-7, 16-19  entry C          line   138 file /theoryfs2/ds/metcalf/miniconda2/envs/tf2gpu/share/psi4/basis/cc-pvdz.gbs
    atoms 8-15, 22-27 entry H          line    22 file /theoryfs2/ds/metcalf/miniconda2/envs/tf2gpu/share/psi4/basis/cc-pvdz.gbs
    atoms 20-21       entry N          line   168 file /theoryfs2/ds/metcalf/miniconda2/envs/tf2gpu/share/psi4/basis/cc-pvdz.gbs

         ---------------------------------------------------------
                                   SCF
               by Justin Turney, Rob Parrish, Andy Simmonett
                          and Daniel G. A. Smith
                              RHF Reference
                        1 Threads,    500 MiB Core
         ---------------------------------------------------------

  ==> Geometry <==

    Molecular point group: c1
    Full point group: C1

    Geometry (in Angstrom), charge = 0, multiplicity = 1:

       Center              X                  Y                   Z               Mass
    ------------   -----------------  -----------------  -----------------  -----------------
         C            0.453150890953     4.585365171131    -0.163374814409    12.000000000000
         C            1.442150890953     1.158365171131     1.052625185591    12.000000000000
         C            2.514150890953     0.853365171131     0.217625185591    12.000000000000
         C            0.777150890953     2.371365171131     0.932625185591    12.000000000000
         C            1.191150890953     3.299365171131    -0.012374814409    12.000000000000
         C            2.932150890953     1.777365171131    -0.728374814409    12.000000000000
         C            2.263150890953     2.991365171131    -0.845374814409    12.000000000000
         H            1.126150890953     0.451365171131     1.803625185591     1.007825032230
         H            3.032150890953    -0.091634828869     0.320625185591     1.007825032230
         H           -0.042849109047     2.602365171131     1.597625185591     1.007825032230
         H            3.783150890953     1.558365171131    -1.359374814409     1.007825032230
         H            1.149150890953     5.418365171131    -0.059374814409     1.007825032230
         H           -0.272849109047     4.677365171131     0.646625185591     1.007825032230
         H            2.650150890953     3.721365171131    -1.539374814409     1.007825032230
         H           -0.093159109047     4.651495171131    -1.115824814409     1.007825032230
         C           -2.270849109047    -4.899634828869    -0.515374814409    12.000000000000
         C           -0.998849109047    -1.677634828869     0.605625185591    12.000000000000
         C           -1.991849109047    -3.446634828869    -0.241374814409    12.000000000000
         C           -2.657849109047    -2.344634828869    -0.672374814409    12.000000000000
         N           -0.962849109047    -3.000634828869     0.560625185591    14.003074004430
         N           -2.019849109047    -1.250634828869    -0.128374814409    14.003074004430
         H           -0.350849109047    -1.063634828869     1.215625185591     1.007825032230
         H           -2.395849109047    -0.312634828869    -0.069374814409     1.007825032230
         H           -3.544849109047    -2.346634828869    -1.294374814409     1.007825032230
         H           -3.217849109047    -4.951634828869    -1.048374814409     1.007825032230
         H           -2.379849109047    -5.428634828869     0.428625185591     1.007825032230
         H           -1.503499109047    -5.398524828869    -1.125524814409     1.007825032230

  Running in c1 symmetry.

  Rotational constants: A =      0.05870  B =      0.00848  C =      0.00793 [cm^-1]
  Rotational constants: A =   1759.92600  B =    254.10953  C =    237.73700 [MHz]
  Nuclear repulsion =  681.267279905149508

  Charge       = 0
  Multiplicity = 1
  Electrons    = 94
  Nalpha       = 47
  Nbeta        = 47

  ==> Algorithm <==

  SCF Algorithm Type is PK.
  DIIS enabled.
  MOM disabled.
  Fractional occupation disabled.
  Guess Type is SAD.
  Energy threshold   = 1.00e-06
  Density threshold  = 1.00e-10
  Integral threshold = 0.00e+00

  ==> Primary Basis <==

  Basis Set: CC-PVDZ
    Blend: CC-PVDZ
    Number of shells: 120
    Number of basis function: 252
    Number of Cartesian functions: 265
    Spherical Harmonics?: true
    Max angular momentum: 2

  ==> Pre-Iterations <==

   -------------------------------------------------------
    Irrep   Nso     Nmo     Nalpha   Nbeta   Ndocc  Nsocc
   -------------------------------------------------------
     A        252     252       0       0       0       0
   -------------------------------------------------------
    Total     252     252      47      47      47       0
   -------------------------------------------------------

  ==> Integral Setup <==

  Using integral reordering PK algorithm.
  Sizing the integral batches needed.
  Building batch lookup table.
   Calculation information:
      Number of atoms:                  27
      Number of AO shells:             120
      Number of primitives:            356
      Number of atomic orbitals:       265
      Number of basis functions:       252

      Integral cutoff                 1.00e-12
      Number of threads:                 1

	Batch   1 pq = [       0,    9405] index = [             0,44231715] size =     44231715
	Batch   2 pq = [    9405,   13301] index = [      44231715,88464951] size =     44233236
	Batch   3 pq = [   13301,   16290] index = [      88464951,132690195] size =     44225244
	Batch   4 pq = [   16290,   18810] index = [     132690195,176917455] size =     44227260
	Batch   5 pq = [   18810,   21030] index = [     176917455,221140965] size =     44223510
	Batch   6 pq = [   21030,   23037] index = [     221140965,265363203] size =     44222238
	Batch   7 pq = [   23037,   24883] index = [     265363203,309594286] size =     44231083
	Batch   8 pq = [   24883,   26601] index = [     309594286,353819901] size =     44225615
	Batch   9 pq = [   26601,   28214] index = [     353819901,398029005] size =     44209104
	Batch  10 pq = [   28214,   29740] index = [     398029005,442248670] size =     44219665
	Batch  11 pq = [   29740,   31191] index = [     442248670,486454836] size =     44206166
	Batch  12 pq = [   31191,   31878] index = [     486454836,508119381] size =     21664545
  Task number: 46
  Buffer size: 11059200
  Buffer per thread: 2
  We computed 19255549 shell quartets total.
  Whereas there are 26357430 unique shell quartets.

  ==> DiskJK: Disk-Based J/K Matrices <==

    J tasked:                  Yes
    K tasked:                  Yes
    wK tasked:                  No
    Memory [MiB]:              375
    Schwarz Cutoff:          1E-12

    OpenMP threads:              1

  Minimum eigenvalue in the overlap matrix is 3.1131864168E-04.
  Using Symmetric Orthogonalization.

  SCF Guess: Superposition of Atomic Densities via on-the-fly atomic UHF.

  ==> Iterations <==

                        Total Energy        Delta E     RMS |[F,P]|

   @RHF iter SAD:  -532.79178942900091   -5.32792e+02   0.00000e+00
   @RHF iter   1:  -533.34440185682001   -5.52612e-01   2.57393e-03 DIIS
   @RHF iter   2:  -533.57779001168433   -2.33388e-01   1.24366e-03 DIIS
   @RHF iter   3:  -533.62509206177970   -4.73021e-02   3.32657e-04 DIIS
   @RHF iter   4:  -533.62944013729907   -4.34808e-03   1.37582e-04 DIIS
   @RHF iter   5:  -533.63010001989926   -6.59883e-04   2.05108e-05 DIIS
   @RHF iter   6:  -533.63012541810724   -2.53982e-05   8.81733e-06 DIIS
   @RHF iter   7:  -533.63012988426908   -4.46616e-06   2.99231e-06 DIIS
   @RHF iter   8:  -533.63013079535688   -9.11088e-07   1.26019e-06 DIIS
   @RHF iter   9:  -533.63013098227543   -1.86919e-07   5.01936e-07 DIIS
   @RHF iter  10:  -533.63013100540161   -2.31262e-08   1.58213e-07 DIIS
   @RHF iter  11:  -533.63013100830221   -2.90061e-09   6.82543e-08 DIIS
   @RHF iter  12:  -533.63013100869512   -3.92902e-10   2.86949e-08 DIIS
   @RHF iter  13:  -533.63013100877083   -7.57154e-11   8.10841e-09 DIIS
   @RHF iter  14:  -533.63013100877890   -8.07177e-12   3.25308e-09 DIIS
   @RHF iter  15:  -533.63013100877731    1.59162e-12   1.32593e-09 DIIS
   @RHF iter  16:  -533.63013100877708    2.27374e-13   4.24407e-10 DIIS
   @RHF iter  17:  -533.63013100877640    6.82121e-13   1.94544e-10 DIIS
   @RHF iter  18:  -533.63013100877879   -2.38742e-12   5.07124e-11 DIIS
  Energy and wave function converged.

  ==> Post-Iterations <==

    Orbital Energies [Eh]
    ---------------------

    Doubly Occupied:

       1A    -15.614739     2A    -15.523053     3A    -11.286997
       4A    -11.247015     5A    -11.244333     6A    -11.240960
       7A    -11.239627     8A    -11.238425     9A    -11.236083
      10A    -11.235418    11A    -11.234486    12A    -11.233351
      13A    -11.222230    14A     -1.337830    15A     -1.160766
      16A     -1.149298    17A     -1.052463    18A     -1.027994
      19A     -1.018844    20A     -0.937490    21A     -0.936933
      22A     -0.831498    23A     -0.812441    24A     -0.801755
      25A     -0.758153    26A     -0.737965    27A     -0.696667
      28A     -0.639445    29A     -0.635863    30A     -0.608708
      31A     -0.599606    32A     -0.590638    33A     -0.587408
      34A     -0.585643    35A     -0.568568    36A     -0.551103
      37A     -0.537578    38A     -0.537064    39A     -0.518804
      40A     -0.494600    41A     -0.491333    42A     -0.485654
      43A     -0.405632    44A     -0.374775    45A     -0.339335
      46A     -0.327256    47A     -0.306790

    Virtual:

      48A      0.127740    49A      0.137147    50A      0.167217
      51A      0.188673    52A      0.191791    53A      0.197113
      54A      0.201747    55A      0.214093    56A      0.230390
      57A      0.235400    58A      0.241364    59A      0.245823
      60A      0.261096    61A      0.271340    62A      0.283131
      63A      0.289718    64A      0.304006    65A      0.341285
      66A      0.367848    67A      0.371329    68A      0.382149
      69A      0.398121    70A      0.414971    71A      0.447153
      72A      0.457912    73A      0.469288    74A      0.476587
      75A      0.492975    76A      0.503176    77A      0.562271
      78A      0.593037    79A      0.613297    80A      0.616908
      81A      0.625463    82A      0.639896    83A      0.657711
      84A      0.674688    85A      0.679041    86A      0.690818
      87A      0.700299    88A      0.706306    89A      0.713999
      90A      0.734830    91A      0.742504    92A      0.746918
      93A      0.748654    94A      0.752310    95A      0.760339
      96A      0.774503    97A      0.778416    98A      0.780701
      99A      0.794954   100A      0.815497   101A      0.831835
     102A      0.842058   103A      0.845041   104A      0.860794
     105A      0.862821   106A      0.875166   107A      0.885837
     108A      0.889788   109A      0.896939   110A      0.897819
     111A      0.902538   112A      0.920194   113A      0.927927
     114A      0.933511   115A      0.947898   116A      0.956321
     117A      0.973272   118A      0.988016   119A      0.998931
     120A      1.012196   121A      1.028770   122A      1.049655
     123A      1.071474   124A      1.089767   125A      1.114310
     126A      1.115425   127A      1.124963   128A      1.137145
     129A      1.141981   130A      1.154664   131A      1.168281
     132A      1.185690   133A      1.205882   134A      1.216315
     135A      1.236625   136A      1.243690   137A      1.249587
     138A      1.258627   139A      1.271854   140A      1.296404
     141A      1.305937   142A      1.308721   143A      1.319763
     144A      1.326018   145A      1.337439   146A      1.355990
     147A      1.411197   148A      1.431017   149A      1.463578
     150A      1.493731   151A      1.498944   152A      1.520913
     153A      1.529052   154A      1.556161   155A      1.571094
     156A      1.592829   157A      1.601759   158A      1.648015
     159A      1.671370   160A      1.681344   161A      1.691987
     162A      1.692094   163A      1.732723   164A      1.737496
     165A      1.757329   166A      1.779039   167A      1.787516
     168A      1.810866   169A      1.815191   170A      1.817814
     171A      1.854548   172A      1.865675   173A      1.885422
     174A      1.888267   175A      1.895582   176A      1.908292
     177A      1.913943   178A      1.924517   179A      1.929846
     180A      1.940842   181A      1.951404   182A      1.952078
     183A      1.964328   184A      1.973432   185A      1.980144
     186A      1.986076   187A      1.994050   188A      2.020279
     189A      2.025769   190A      2.029761   191A      2.050769
     192A      2.069735   193A      2.090868   194A      2.105372
     195A      2.120032   196A      2.127347   197A      2.135105
     198A      2.154583   199A      2.158549   200A      2.174026
     201A      2.181477   202A      2.194687   203A      2.211589
     204A      2.229118   205A      2.246810   206A      2.265622
     207A      2.290051   208A      2.294322   209A      2.300320
     210A      2.321938   211A      2.343756   212A      2.349296
     213A      2.392285   214A      2.448602   215A      2.449098
     216A      2.472469   217A      2.477169   218A      2.488156
     219A      2.516437   220A      2.535429   221A      2.552863
     222A      2.610288   223A      2.632115   224A      2.687787
     225A      2.729280   226A      2.735924   227A      2.747668
     228A      2.758032   229A      2.764412   230A      2.774149
     231A      2.787512   232A      2.790011   233A      2.807411
     234A      2.834306   235A      2.841467   236A      2.869791
     237A      2.887248   238A      2.910436   239A      2.940948
     240A      2.979131   241A      2.982986   242A      3.011810
     243A      3.023417   244A      3.064874   245A      3.156021
     246A      3.172820   247A      3.206739   248A      3.248787
     249A      3.300527   250A      3.471530   251A      3.779273
     252A      3.973847

    Final Occupation by Irrep:
              A
    DOCC [    47 ]

  @RHF Final Energy:  -533.63013100877879

   => Energetics <=

    Nuclear Repulsion Energy =            681.2672799051495076
    One-Electron Energy =               -2073.3095901226697606
    Two-Electron Energy =                 858.4121792087414633
    Total Energy =                       -533.6301310087787897

Computation Completed

Properties will be evaluated at   0.000000,   0.000000,   0.000000 [a0]

Properties computed using the SCF density matrix

  Nuclear Dipole Moment: [e a0]
     X:    -1.9233      Y:     3.2816      Z:    -1.5001

  Electronic Dipole Moment: [e a0]
     X:     1.2814      Y:    -2.0128      Z:     1.1831

  Dipole Moment: [e a0]
     X:    -0.6419      Y:     1.2688      Z:    -0.3171     Total:     1.4569

  Dipole Moment: [D]
     X:    -1.6315      Y:     3.2250      Z:    -0.8059     Total:     3.7029

*** tstop() called on ds3 at Tue Apr 28 14:41:55 2020
Module time:
	user time   =     167.04 seconds =       2.78 minutes
	system time =      77.78 seconds =       1.30 minutes
	total time  =        306 seconds =       5.10 minutes
Total time:
	user time   =     167.04 seconds =       2.78 minutes
	system time =      77.78 seconds =       1.30 minutes
	total time  =        306 seconds =       5.10 minutes
                                     G D M A

                                 by Anthony Stone

                           version 2.2.06, 22 June 2011

               Distributed Multipoles from Gaussian wavefunctions

Starting at 14:41:55 on 28 Apr 2020

Using SCF density matrix from file ./SSI/SSI-034PHE-062HIE-1-dimer.test.4333.fchk

                         Distributed Multipole Analysis

Standard DMA

Positions and radii in angstrom
Multipole moments in atomic units, ea_0^k for rank k

C          x =  0.453151  y =  4.585365  z = -0.163375 angstrom
           Maximum rank =  0   Radius =  0.650 angstrom
                   Q00  =  -0.204416

C          x =  1.442151  y =  1.158365  z =  1.052625 angstrom
           Maximum rank =  0   Radius =  0.650 angstrom
                   Q00  =  -0.080130

C          x =  2.514151  y =  0.853365  z =  0.217625 angstrom
           Maximum rank =  0   Radius =  0.650 angstrom
                   Q00  =  -0.077267

C          x =  0.777151  y =  2.371365  z =  0.932625 angstrom
           Maximum rank =  0   Radius =  0.650 angstrom
                   Q00  =  -0.087733

C          x =  1.191151  y =  3.299365  z = -0.012375 angstrom
           Maximum rank =  0   Radius =  0.650 angstrom
                   Q00  =  -0.088718

C          x =  2.932151  y =  1.777365  z = -0.728375 angstrom
           Maximum rank =  0   Radius =  0.650 angstrom
                   Q00  =  -0.074161

C          x =  2.263151  y =  2.991365  z = -0.845375 angstrom
           Maximum rank =  0   Radius =  0.650 angstrom
                   Q00  =   0.000366

H          x =  1.126151  y =  0.451365  z =  1.803625 angstrom
           Maximum rank =  0   Radius =  0.325 angstrom
                   Q00  =   0.061202

H          x =  3.032151  y = -0.091635  z =  0.320625 angstrom
           Maximum rank =  0   Radius =  0.325 angstrom
                   Q00  =   0.068968

H          x = -0.042849  y =  2.602365  z =  1.597625 angstrom
           Maximum rank =  0   Radius =  0.325 angstrom
                   Q00  =   0.056285

H          x =  3.783151  y =  1.558365  z = -1.359375 angstrom
           Maximum rank =  0   Radius =  0.325 angstrom
                   Q00  =   0.068394

H          x =  1.149151  y =  5.418365  z = -0.059375 angstrom
           Maximum rank =  0   Radius =  0.325 angstrom
                   Q00  =   0.103688

H          x = -0.272849  y =  4.677365  z =  0.646625 angstrom
           Maximum rank =  0   Radius =  0.325 angstrom
                   Q00  =   0.092276

H          x =  2.650151  y =  3.721365  z = -1.539375 angstrom
           Maximum rank =  0   Radius =  0.325 angstrom
                   Q00  =   0.057123

H          x = -0.093159  y =  4.651495  z = -1.115825 angstrom
           Maximum rank =  0   Radius =  0.325 angstrom
                   Q00  =   0.103097

C          x = -2.270849  y = -4.899635  z = -0.515375 angstrom
           Maximum rank =  0   Radius =  0.650 angstrom
                   Q00  =  -0.191462

C          x = -0.998849  y = -1.677635  z =  0.605625 angstrom
           Maximum rank =  0   Radius =  0.650 angstrom
                   Q00  =   0.469774

C          x = -1.991849  y = -3.446635  z = -0.241375 angstrom
           Maximum rank =  0   Radius =  0.650 angstrom
                   Q00  =   0.223270

C          x = -2.657849  y = -2.344635  z = -0.672375 angstrom
           Maximum rank =  0   Radius =  0.650 angstrom
                   Q00  =  -0.001465

N          x = -0.962849  y = -3.000635  z =  0.560625 angstrom
           Maximum rank =  0   Radius =  0.650 angstrom
                   Q00  =  -0.766953

N          x = -2.019849  y = -1.250635  z = -0.128375 angstrom
           Maximum rank =  0   Radius =  0.650 angstrom
                   Q00  =  -0.478696

H          x = -0.350849  y = -1.063635  z =  1.215625 angstrom
           Maximum rank =  0   Radius =  0.325 angstrom
                   Q00  =   0.120643

H          x = -2.395849  y = -0.312635  z = -0.069375 angstrom
           Maximum rank =  0   Radius =  0.325 angstrom
                   Q00  =   0.216801

H          x = -3.544849  y = -2.346635  z = -1.294375 angstrom
           Maximum rank =  0   Radius =  0.325 angstrom
                   Q00  =   0.100174

H          x = -3.217849  y = -4.951635  z = -1.048375 angstrom
           Maximum rank =  0   Radius =  0.325 angstrom
                   Q00  =   0.089483

H          x = -2.379849  y = -5.428635  z =  0.428625 angstrom
           Maximum rank =  0   Radius =  0.325 angstrom
                   Q00  =   0.111837

H          x = -1.503499  y = -5.398525  z = -1.125525 angstrom
           Maximum rank =  0   Radius =  0.325 angstrom
                   Q00  =   0.107620

Total multipoles referred to origin at
           x =   0.000000,  y =    0.000000,  z =    0.000000 angstrom
                   Q00  =  -0.000000

Finished at 14:41:55 on 28 Apr 2020

  DMA results are available in the Python driver through the
	  variable('DMA DISTRIBUTED MULTIPOLES')
  and
	  variable('DMA TOTAL MULTIPOLES')
  commands.

    Psi4 stopped on: Tuesday, 28 April 2020 02:41PM
    Psi4 wall time for execution: 0:05:06.54

*** Psi4 exiting successfully. Buy a developer a beer!
