                               Psi4 1.3.2 release

  ==> Input File <==

--------------------------------------------------------------------------
import numpy as np
set {scf_type pk
basis cc-pvdz
d_convergence 10
gdma_switch   0
gdma_limit    0
gdma_origin   [ 0.0,  0.0,  0.0 ]
}
molecule test {
    units Angstrom
    0 1
    --
    0 1
    C               -1.908993541332368    -0.458069096774033    -1.307825357001825
    C               -3.420993541332368    -0.257069096774033    -1.051825357001825
    H               -1.756993541332368    -0.968069096774033    -2.257825357001825
    H               -1.419993541332368     0.512930903225967    -1.345825357001825
    H               -1.453993541332368    -1.040069096774033    -0.506825357001825
    H               -3.825993541332368     0.352930903225967    -1.858825357001824
    H               -3.953223541332368    -1.219209096774033    -1.019845357001824
    H               -3.589703541332368     0.318390903225967    -0.129665357001825
    C                1.267006458667632     0.175930903225967     0.768174642998175
    C                2.257006458667632    -1.006069096774033     0.751174642998175
    C                1.899006458667632     1.550930903225967     0.889174642998175
    H                0.685006458667632     0.149930903225967    -0.152825357001825
    H                0.580006458667632     0.035930903225967     1.599174642998175
    H                2.945006458667632    -0.897069096774033    -0.085825357001825
    H                2.497006458667632     1.576930903225967     1.798174642998176
    H                1.672886458667632    -1.931999096774033     0.644074642998175
    H                2.819266458667632    -1.061499096774033     1.694994642998175
    H                2.566806458667632     1.776920903225967     0.044794642998175
    H                1.126196458667632     2.326620903225967     0.994324642998175

}
e, wfn = energy('scf', return_wfn=True)
gdma(wfn)
dmavals = variable('DMA DISTRIBUTED MULTIPOLES')
charges = np.array(dmavals)
print(charges)
np.save('SSI-019VAL-081LEU-1-dimer.npy', np.array(charges))--------------------------------------------------------------------------

*** tstart() called on ds3
*** at Mon Apr 27 17:05:37 2020

   => Loading Basis Set <=

    Name: CC-PVDZ
    Role: ORBITAL
    Keyword: BASIS
    atoms 1-2, 9-11  entry C          line   138 file /theoryfs2/ds/metcalf/miniconda2/envs/tf2gpu/share/psi4/basis/cc-pvdz.gbs
    atoms 3-8, 12-19 entry H          line    22 file /theoryfs2/ds/metcalf/miniconda2/envs/tf2gpu/share/psi4/basis/cc-pvdz.gbs

         ---------------------------------------------------------
                                   SCF
               by Justin Turney, Rob Parrish, Andy Simmonett
                          and Daniel G. A. Smith
                              RHF Reference
                        1 Threads,    500 MiB Core
         ---------------------------------------------------------

  ==> Geometry <==

    Molecular point group: c1
    Full point group: C1

    Geometry (in Angstrom), charge = 0, multiplicity = 1:

       Center              X                  Y                   Z               Mass
    ------------   -----------------  -----------------  -----------------  -----------------
         C           -1.908993541332    -0.458069096774    -1.307825357002    12.000000000000
         C           -3.420993541332    -0.257069096774    -1.051825357002    12.000000000000
         H           -1.756993541332    -0.968069096774    -2.257825357002     1.007825032230
         H           -1.419993541332     0.512930903226    -1.345825357002     1.007825032230
         H           -1.453993541332    -1.040069096774    -0.506825357002     1.007825032230
         H           -3.825993541332     0.352930903226    -1.858825357002     1.007825032230
         H           -3.953223541332    -1.219209096774    -1.019845357002     1.007825032230
         H           -3.589703541332     0.318390903226    -0.129665357002     1.007825032230
         C            1.267006458668     0.175930903226     0.768174642998    12.000000000000
         C            2.257006458668    -1.006069096774     0.751174642998    12.000000000000
         C            1.899006458668     1.550930903226     0.889174642998    12.000000000000
         H            0.685006458668     0.149930903226    -0.152825357002     1.007825032230
         H            0.580006458668     0.035930903226     1.599174642998     1.007825032230
         H            2.945006458668    -0.897069096774    -0.085825357002     1.007825032230
         H            2.497006458668     1.576930903226     1.798174642998     1.007825032230
         H            1.672886458668    -1.931999096774     0.644074642998     1.007825032230
         H            2.819266458668    -1.061499096774     1.694994642998     1.007825032230
         H            2.566806458668     1.776920903226     0.044794642998     1.007825032230
         H            1.126196458668     2.326620903226     0.994324642998     1.007825032230

  Running in c1 symmetry.

  Rotational constants: A =      0.22433  B =      0.03540  C =      0.03215 [cm^-1]
  Rotational constants: A =   6725.12571  B =   1061.22430  C =    963.78140 [MHz]
  Nuclear repulsion =  174.352136736427042

  Charge       = 0
  Multiplicity = 1
  Electrons    = 44
  Nalpha       = 22
  Nbeta        = 22

  ==> Algorithm <==

  SCF Algorithm Type is PK.
  DIIS enabled.
  MOM disabled.
  Fractional occupation disabled.
  Guess Type is SAD.
  Energy threshold   = 1.00e-06
  Density threshold  = 1.00e-10
  Integral threshold = 0.00e+00

  ==> Primary Basis <==

  Basis Set: CC-PVDZ
    Blend: CC-PVDZ
    Number of shells: 72
    Number of basis function: 140
    Number of Cartesian functions: 145
    Spherical Harmonics?: true
    Max angular momentum: 2

  ==> Pre-Iterations <==

   -------------------------------------------------------
    Irrep   Nso     Nmo     Nalpha   Nbeta   Ndocc  Nsocc
   -------------------------------------------------------
     A        140     140       0       0       0       0
   -------------------------------------------------------
    Total     140     140      22      22      22       0
   -------------------------------------------------------

  ==> Integral Setup <==

  Using integral reordering PK algorithm.
  Sizing the integral batches needed.
  Building batch lookup table.
   Calculation information:
      Number of atoms:                  19
      Number of AO shells:              72
      Number of primitives:            180
      Number of atomic orbitals:       145
      Number of basis functions:       140

      Integral cutoff                 1.00e-12
      Number of threads:                 1

	Batch   1 pq = [       0,    9405] index = [             0,44231715] size =     44231715
	Batch   2 pq = [    9405,    9870] index = [      44231715,48713385] size =      4481670
  Task number: 5
  Buffer size: 11059200
  Buffer per thread: 2
  We computed 2720792 shell quartets total.
  Whereas there are 3454506 unique shell quartets.

  ==> DiskJK: Disk-Based J/K Matrices <==

    J tasked:                  Yes
    K tasked:                  Yes
    wK tasked:                  No
    Memory [MiB]:              375
    Schwarz Cutoff:          1E-12

    OpenMP threads:              1

  Minimum eigenvalue in the overlap matrix is 5.4725963003E-03.
  Using Symmetric Orthogonalization.

  SCF Guess: Superposition of Atomic Densities via on-the-fly atomic UHF.

  ==> Iterations <==

                        Total Energy        Delta E     RMS |[F,P]|

   @RHF iter SAD:  -196.31265568364944   -1.96313e+02   0.00000e+00
   @RHF iter   1:  -197.31475144740472   -1.00210e+00   3.77252e-03 DIIS
   @RHF iter   2:  -197.47305209620754   -1.58301e-01   1.62010e-03 DIIS
   @RHF iter   3:  -197.50083914770175   -2.77871e-02   3.24130e-04 DIIS
   @RHF iter   4:  -197.50305031024033   -2.21116e-03   4.89943e-05 DIIS
   @RHF iter   5:  -197.50308974591394   -3.94357e-05   1.49778e-05 DIIS
   @RHF iter   6:  -197.50309319264545   -3.44673e-06   2.42681e-06 DIIS
   @RHF iter   7:  -197.50309330091710   -1.08272e-07   4.64148e-07 DIIS
   @RHF iter   8:  -197.50309330547037   -4.55327e-09   1.21201e-07 DIIS
   @RHF iter   9:  -197.50309330576886   -2.98485e-10   3.85095e-08 DIIS
   @RHF iter  10:  -197.50309330580262   -3.37650e-11   8.46691e-09 DIIS
   @RHF iter  11:  -197.50309330580461   -1.98952e-12   1.61026e-09 DIIS
   @RHF iter  12:  -197.50309330580549   -8.81073e-13   3.01402e-10 DIIS
   @RHF iter  13:  -197.50309330580484    6.53699e-13   5.76146e-11 DIIS
  Energy and wave function converged.

  ==> Post-Iterations <==

    Orbital Energies [Eh]
    ---------------------

    Doubly Occupied:

       1A    -11.220906     2A    -11.218353     3A    -11.218314
       4A    -11.217628     5A    -11.215744     6A     -1.051148
       7A     -1.014150     8A     -0.924723     9A     -0.839908
      10A     -0.794620    11A     -0.624824    12A     -0.598191
      13A     -0.595176    14A     -0.589917    15A     -0.550642
      16A     -0.531913    17A     -0.498688    18A     -0.491437
      19A     -0.485900    20A     -0.473385    21A     -0.466892
      22A     -0.461161

    Virtual:

      23A      0.171461    24A      0.193253    25A      0.212173
      26A      0.226112    27A      0.232841    28A      0.250769
      29A      0.258535    30A      0.268267    31A      0.275397
      32A      0.281170    33A      0.286474    34A      0.303014
      35A      0.311335    36A      0.328455    37A      0.369076
      38A      0.406829    39A      0.432095    40A      0.571380
      41A      0.585079    42A      0.594237    43A      0.608911
      44A      0.612897    45A      0.618930    46A      0.625011
      47A      0.645127    48A      0.686744    49A      0.766579
      50A      0.789676    51A      0.803419    52A      0.855324
      53A      0.857871    54A      0.876299    55A      0.888650
      56A      0.891788    57A      0.893602    58A      0.894791
      59A      0.899616    60A      0.902617    61A      0.906277
      62A      0.912163    63A      0.920678    64A      0.929809
      65A      0.949123    66A      0.971931    67A      0.977981
      68A      1.010125    69A      1.122295    70A      1.124377
      71A      1.133096    72A      1.160395    73A      1.225097
      74A      1.252489    75A      1.376498    76A      1.464054
      77A      1.467267    78A      1.471751    79A      1.490091
      80A      1.523514    81A      1.571512    82A      1.631850
      83A      1.676372    84A      1.682399    85A      1.683193
      86A      1.694172    87A      1.700891    88A      1.847261
      89A      1.866961    90A      1.872418    91A      1.874576
      92A      1.886804    93A      1.905004    94A      1.912700
      95A      1.918201    96A      1.933601    97A      1.943172
      98A      1.947425    99A      1.950247   100A      1.953222
     101A      1.964113   102A      1.976948   103A      1.978685
     104A      1.993363   105A      1.997024   106A      2.023561
     107A      2.049969   108A      2.090569   109A      2.109501
     110A      2.131574   111A      2.155147   112A      2.281531
     113A      2.297755   114A      2.305376   115A      2.314145
     116A      2.326667   117A      2.347219   118A      2.448409
     119A      2.471167   120A      2.500525   121A      2.529889
     122A      2.556535   123A      2.565689   124A      2.591162
     125A      2.605090   126A      2.628073   127A      2.747565
     128A      2.753879   129A      2.762265   130A      2.783218
     131A      2.790841   132A      2.806010   133A      2.846665
     134A      2.860999   135A      2.922164   136A      2.937748
     137A      2.960958   138A      2.964344   139A      2.979328
     140A      3.082599

    Final Occupation by Irrep:
              A
    DOCC [    22 ]

  @RHF Final Energy:  -197.50309330580484

   => Energetics <=

    Nuclear Repulsion Energy =            174.3521367364270418
    One-Electron Energy =                -609.5432189236779550
    Two-Electron Energy =                 237.6879888814460742
    Total Energy =                       -197.5030933058048390

Computation Completed

Properties will be evaluated at   0.000000,   0.000000,   0.000000 [a0]

Properties computed using the SCF density matrix

  Nuclear Dipole Moment: [e a0]
     X:    -1.0385      Y:    -0.0631      Z:    -0.5455

  Electronic Dipole Moment: [e a0]
     X:     0.9982      Y:     0.0648      Z:     0.5331

  Dipole Moment: [e a0]
     X:    -0.0402      Y:     0.0017      Z:    -0.0125     Total:     0.0421

  Dipole Moment: [D]
     X:    -0.1022      Y:     0.0044      Z:    -0.0317     Total:     0.1071

*** tstop() called on ds3 at Mon Apr 27 17:06:02 2020
Module time:
	user time   =      13.92 seconds =       0.23 minutes
	system time =       5.75 seconds =       0.10 minutes
	total time  =         25 seconds =       0.42 minutes
Total time:
	user time   =      13.92 seconds =       0.23 minutes
	system time =       5.75 seconds =       0.10 minutes
	total time  =         25 seconds =       0.42 minutes
                                     G D M A

                                 by Anthony Stone

                           version 2.2.06, 22 June 2011

               Distributed Multipoles from Gaussian wavefunctions

Starting at 17:6:2 on 27 Apr 2020

Using SCF density matrix from file ./SSI/SSI-019VAL-081LEU-1-dimer.test.8161.fchk

                         Distributed Multipole Analysis

Standard DMA

Positions and radii in angstrom
Multipole moments in atomic units, ea_0^k for rank k

C          x = -1.908994  y = -0.458069  z = -1.307825 angstrom
           Maximum rank =  0   Radius =  0.650 angstrom
                   Q00  =  -0.241576

C          x = -3.420994  y = -0.257069  z = -1.051825 angstrom
           Maximum rank =  0   Radius =  0.650 angstrom
                   Q00  =  -0.242256

H          x = -1.756994  y = -0.968069  z = -2.257825 angstrom
           Maximum rank =  0   Radius =  0.325 angstrom
                   Q00  =   0.082099

H          x = -1.419994  y =  0.512931  z = -1.345825 angstrom
           Maximum rank =  0   Radius =  0.325 angstrom
                   Q00  =   0.079447

H          x = -1.453994  y = -1.040069  z = -0.506825 angstrom
           Maximum rank =  0   Radius =  0.325 angstrom
                   Q00  =   0.081983

H          x = -3.825994  y =  0.352931  z = -1.858825 angstrom
           Maximum rank =  0   Radius =  0.325 angstrom
                   Q00  =   0.078750

H          x = -3.953224  y = -1.219209  z = -1.019845 angstrom
           Maximum rank =  0   Radius =  0.325 angstrom
                   Q00  =   0.083002

H          x = -3.589704  y =  0.318391  z = -0.129665 angstrom
           Maximum rank =  0   Radius =  0.325 angstrom
                   Q00  =   0.080070

C          x =  1.267006  y =  0.175931  z =  0.768175 angstrom
           Maximum rank =  0   Radius =  0.650 angstrom
                   Q00  =  -0.058199

C          x =  2.257006  y = -1.006069  z =  0.751175 angstrom
           Maximum rank =  0   Radius =  0.650 angstrom
                   Q00  =  -0.259307

C          x =  1.899006  y =  1.550931  z =  0.889175 angstrom
           Maximum rank =  0   Radius =  0.650 angstrom
                   Q00  =  -0.251548

H          x =  0.685006  y =  0.149931  z = -0.152825 angstrom
           Maximum rank =  0   Radius =  0.325 angstrom
                   Q00  =   0.049236

H          x =  0.580006  y =  0.035931  z =  1.599175 angstrom
           Maximum rank =  0   Radius =  0.325 angstrom
                   Q00  =   0.045082

H          x =  2.945006  y = -0.897069  z = -0.085825 angstrom
           Maximum rank =  0   Radius =  0.325 angstrom
                   Q00  =   0.079752

H          x =  2.497006  y =  1.576931  z =  1.798175 angstrom
           Maximum rank =  0   Radius =  0.325 angstrom
                   Q00  =   0.072782

H          x =  1.672886  y = -1.931999  z =  0.644075 angstrom
           Maximum rank =  0   Radius =  0.325 angstrom
                   Q00  =   0.083205

H          x =  2.819266  y = -1.061499  z =  1.694995 angstrom
           Maximum rank =  0   Radius =  0.325 angstrom
                   Q00  =   0.077556

H          x =  2.566806  y =  1.776921  z =  0.044795 angstrom
           Maximum rank =  0   Radius =  0.325 angstrom
                   Q00  =   0.076730

H          x =  1.126196  y =  2.326621  z =  0.994325 angstrom
           Maximum rank =  0   Radius =  0.325 angstrom
                   Q00  =   0.083193

Total multipoles referred to origin at
           x =   0.000000,  y =    0.000000,  z =    0.000000 angstrom
                   Q00  =  -0.000000

Finished at 17:6:2 on 27 Apr 2020

  DMA results are available in the Python driver through the
	  variable('DMA DISTRIBUTED MULTIPOLES')
  and
	  variable('DMA TOTAL MULTIPOLES')
  commands.

    Psi4 stopped on: Monday, 27 April 2020 05:06PM
    Psi4 wall time for execution: 0:00:25.66

*** Psi4 exiting successfully. Buy a developer a beer!
