                               Psi4 1.3.2 release

  ==> Input File <==

--------------------------------------------------------------------------
import numpy as np
set {scf_type pk
basis cc-pvdz
d_convergence 10
gdma_switch   0
gdma_limit    0
gdma_origin   [ 0.0,  0.0,  0.0 ]
}
molecule test {
    units Angstrom
    -1 1
    --
    -1 1
    C               -1.250206069486160     0.495580519353909    -2.449226324666828
    C               -1.025206069486160     1.091580519353909    -3.830226324666827
    H               -2.034206069486160     1.016580519353909    -1.905226324666828
    H               -1.546206069486160    -0.544419480646091    -2.564226324666827
    H               -0.325206069486160     0.555580519353909    -1.874226324666827
    H               -1.906206069486160     0.888580519353909    -4.439226324666827
    H               -0.871166069486160     2.178450519353909    -3.759626324666827
    H               -0.150426069486160     0.617500519353909    -4.299266324666827
    C               -0.401206069486160    -0.814419480646091     0.871773675333173
    C                0.368793930513840    -1.839419480646091     0.048773675333173
    C                0.531793930513840     0.095580519353909     1.648773675333173
    O                1.610793930513840     0.429580519353909     1.111773675333172
    O                0.175793930513840     0.489580519353909     2.780773675333173
    H               -1.007206069486160    -0.206419480646091     0.201773675333173
    H               -1.094206069486160    -1.306419480646091     1.536773675333173
    H                1.059793930513840    -2.374419480646091     0.694773675333173
    H                0.947793930513840    -1.305419480646091    -0.702226324666827
    H               -0.280316069486160    -2.544657480646091    -0.490946324666827

}
e, wfn = energy('scf', return_wfn=True)
gdma(wfn)
dmavals = variable('DMA DISTRIBUTED MULTIPOLES')
charges = np.array(dmavals)
print(charges)
np.save('SSI-025VAL-083GLU-2-dimer.npy', np.array(charges))--------------------------------------------------------------------------

*** tstart() called on ds3
*** at Mon Apr 27 21:10:20 2020

   => Loading Basis Set <=

    Name: CC-PVDZ
    Role: ORBITAL
    Keyword: BASIS
    atoms 1-2, 9-11  entry C          line   138 file /theoryfs2/ds/metcalf/miniconda2/envs/tf2gpu/share/psi4/basis/cc-pvdz.gbs
    atoms 3-8, 14-18 entry H          line    22 file /theoryfs2/ds/metcalf/miniconda2/envs/tf2gpu/share/psi4/basis/cc-pvdz.gbs
    atoms 12-13      entry O          line   198 file /theoryfs2/ds/metcalf/miniconda2/envs/tf2gpu/share/psi4/basis/cc-pvdz.gbs

         ---------------------------------------------------------
                                   SCF
               by Justin Turney, Rob Parrish, Andy Simmonett
                          and Daniel G. A. Smith
                              RHF Reference
                        1 Threads,    500 MiB Core
         ---------------------------------------------------------

  ==> Geometry <==

    Molecular point group: c1
    Full point group: C1

    Geometry (in Angstrom), charge = -1, multiplicity = 1:

       Center              X                  Y                   Z               Mass
    ------------   -----------------  -----------------  -----------------  -----------------
         C           -1.250206069486     0.495580519354    -2.449226324667    12.000000000000
         C           -1.025206069486     1.091580519354    -3.830226324667    12.000000000000
         H           -2.034206069486     1.016580519354    -1.905226324667     1.007825032230
         H           -1.546206069486    -0.544419480646    -2.564226324667     1.007825032230
         H           -0.325206069486     0.555580519354    -1.874226324667     1.007825032230
         H           -1.906206069486     0.888580519354    -4.439226324667     1.007825032230
         H           -0.871166069486     2.178450519354    -3.759626324667     1.007825032230
         H           -0.150426069486     0.617500519354    -4.299266324667     1.007825032230
         C           -0.401206069486    -0.814419480646     0.871773675333    12.000000000000
         C            0.368793930514    -1.839419480646     0.048773675333    12.000000000000
         C            0.531793930514     0.095580519354     1.648773675333    12.000000000000
         O            1.610793930514     0.429580519354     1.111773675333    15.994914619570
         O            0.175793930514     0.489580519354     2.780773675333    15.994914619570
         H           -1.007206069486    -0.206419480646     0.201773675333     1.007825032230
         H           -1.094206069486    -1.306419480646     1.536773675333     1.007825032230
         H            1.059793930514    -2.374419480646     0.694773675333     1.007825032230
         H            0.947793930514    -1.305419480646    -0.702226324667     1.007825032230
         H           -0.280316069486    -2.544657480646    -0.490946324667     1.007825032230

  Running in c1 symmetry.

  Rotational constants: A =      0.12394  B =      0.02772  C =      0.02608 [cm^-1]
  Rotational constants: A =   3715.57549  B =    831.16744  C =    781.72562 [MHz]
  Nuclear repulsion =  289.366891674460817

  Charge       = -1
  Multiplicity = 1
  Electrons    = 58
  Nalpha       = 29
  Nbeta        = 29

  ==> Algorithm <==

  SCF Algorithm Type is PK.
  DIIS enabled.
  MOM disabled.
  Fractional occupation disabled.
  Guess Type is SAD.
  Energy threshold   = 1.00e-06
  Density threshold  = 1.00e-10
  Integral threshold = 0.00e+00

  ==> Primary Basis <==

  Basis Set: CC-PVDZ
    Blend: CC-PVDZ
    Number of shells: 75
    Number of basis function: 153
    Number of Cartesian functions: 160
    Spherical Harmonics?: true
    Max angular momentum: 2

  ==> Pre-Iterations <==

   -------------------------------------------------------
    Irrep   Nso     Nmo     Nalpha   Nbeta   Ndocc  Nsocc
   -------------------------------------------------------
     A        153     153       0       0       0       0
   -------------------------------------------------------
    Total     153     153      29      29      29       0
   -------------------------------------------------------

  ==> Integral Setup <==

  Using integral reordering PK algorithm.
  Sizing the integral batches needed.
  Building batch lookup table.
   Calculation information:
      Number of atoms:                  18
      Number of AO shells:              75
      Number of primitives:            209
      Number of atomic orbitals:       160
      Number of basis functions:       153

      Integral cutoff                 1.00e-12
      Number of threads:                 1

	Batch   1 pq = [       0,    9405] index = [             0,44231715] size =     44231715
	Batch   2 pq = [    9405,   11781] index = [      44231715,69401871] size =     25170156
  Task number: 7
  Buffer size: 11059200
  Buffer per thread: 2
  We computed 3421920 shell quartets total.
  Whereas there are 4062675 unique shell quartets.

  ==> DiskJK: Disk-Based J/K Matrices <==

    J tasked:                  Yes
    K tasked:                  Yes
    wK tasked:                  No
    Memory [MiB]:              375
    Schwarz Cutoff:          1E-12

    OpenMP threads:              1

  Minimum eigenvalue in the overlap matrix is 4.0136520222E-03.
  Using Symmetric Orthogonalization.

  SCF Guess: Superposition of Atomic Densities via on-the-fly atomic UHF.

  ==> Iterations <==

                        Total Energy        Delta E     RMS |[F,P]|

   @RHF iter SAD:  -343.92652572048684   -3.43927e+02   0.00000e+00
   @RHF iter   1:  -345.22074511051028   -1.29422e+00   4.90865e-03 DIIS
   @RHF iter   2:  -345.44299111717771   -2.22246e-01   2.69164e-03 DIIS
   @RHF iter   3:  -345.50683594677366   -6.38448e-02   4.23952e-04 DIIS
   @RHF iter   4:  -345.50982482045470   -2.98887e-03   1.67986e-04 DIIS
   @RHF iter   5:  -345.51026270640313   -4.37886e-04   2.42407e-05 DIIS
   @RHF iter   6:  -345.51027628429995   -1.35779e-05   5.52808e-06 DIIS
   @RHF iter   7:  -345.51027690530321   -6.21003e-07   2.33200e-06 DIIS
   @RHF iter   8:  -345.51027698257366   -7.72704e-08   7.24454e-07 DIIS
   @RHF iter   9:  -345.51027699279700   -1.02233e-08   2.90717e-07 DIIS
   @RHF iter  10:  -345.51027699466658   -1.86958e-09   7.28578e-08 DIIS
   @RHF iter  11:  -345.51027699487366   -2.07081e-10   2.38400e-08 DIIS
   @RHF iter  12:  -345.51027699489498   -2.13163e-11   8.29276e-09 DIIS
   @RHF iter  13:  -345.51027699489777   -2.78533e-12   2.76265e-09 DIIS
   @RHF iter  14:  -345.51027699489862   -8.52651e-13   7.67532e-10 DIIS
   @RHF iter  15:  -345.51027699489839    2.27374e-13   2.85044e-10 DIIS
   @RHF iter  16:  -345.51027699489845   -5.68434e-14   9.10811e-11 DIIS
  Energy and wave function converged.

  ==> Post-Iterations <==

    Orbital Energies [Eh]
    ---------------------

    Doubly Occupied:

       1A    -20.255873     2A    -20.252577     3A    -11.131433
       4A    -11.114530     5A    -11.108457     6A    -11.067800
       7A    -11.046087     8A     -1.144989     9A     -1.031575
      10A     -0.927155    11A     -0.869357    12A     -0.741847
      13A     -0.700171    14A     -0.508010    15A     -0.506155
      16A     -0.505058    17A     -0.455305    18A     -0.428462
      19A     -0.406914    20A     -0.392542    21A     -0.388002
      22A     -0.385975    23A     -0.359148    24A     -0.355140
      25A     -0.321059    26A     -0.294433    27A     -0.177060
      28A     -0.167437    29A     -0.156172

    Virtual:

      30A      0.274091    31A      0.314620    32A      0.334631
      33A      0.339487    34A      0.362487    35A      0.375750
      36A      0.389763    37A      0.399375    38A      0.412897
      39A      0.426934    40A      0.466424    41A      0.491628
      42A      0.507050    43A      0.563857    44A      0.610265
      45A      0.677267    46A      0.693197    47A      0.698773
      48A      0.717350    49A      0.726135    50A      0.765348
      51A      0.777511    52A      0.805436    53A      0.870679
      54A      0.889281    55A      0.952847    56A      0.969948
      57A      0.976524    58A      0.980447    59A      0.987972
      60A      0.991114    61A      1.002933    62A      1.015648
      63A      1.026141    64A      1.033130    65A      1.050620
      66A      1.064760    67A      1.072750    68A      1.087433
      69A      1.098231    70A      1.116158    71A      1.136188
      72A      1.159333    73A      1.219389    74A      1.243897
      75A      1.286835    76A      1.305369    77A      1.317695
      78A      1.348960    79A      1.395824    80A      1.455980
      81A      1.513019    82A      1.553008    83A      1.567777
      84A      1.580891    85A      1.606124    86A      1.628377
      87A      1.649640    88A      1.666044    89A      1.681494
      90A      1.717018    91A      1.764777    92A      1.772504
      93A      1.797818    94A      1.843250    95A      1.904203
      96A      1.925488    97A      1.958738    98A      1.964864
      99A      2.004822   100A      2.030897   101A      2.035350
     102A      2.039766   103A      2.045393   104A      2.049791
     105A      2.062488   106A      2.083962   107A      2.110591
     108A      2.152794   109A      2.157548   110A      2.162627
     111A      2.192384   112A      2.198971   113A      2.211683
     114A      2.224557   115A      2.230176   116A      2.282935
     117A      2.369794   118A      2.382786   119A      2.403570
     120A      2.424130   121A      2.489387   122A      2.532473
     123A      2.547402   124A      2.551050   125A      2.559532
     126A      2.596916   127A      2.657443   128A      2.666382
     129A      2.679482   130A      2.728114   131A      2.767324
     132A      2.833194   133A      2.849915   134A      2.898669
     135A      2.930250   136A      2.940737   137A      2.947360
     138A      3.021422   139A      3.029956   140A      3.043156
     141A      3.069566   142A      3.082107   143A      3.154382
     144A      3.256514   145A      3.293104   146A      3.313112
     147A      3.370868   148A      3.641073   149A      3.799332
     150A      3.837931   151A      4.058048   152A      4.092266
     153A      4.207525

    Final Occupation by Irrep:
              A
    DOCC [    29 ]

  @RHF Final Energy:  -345.51027699489845

   => Energetics <=

    Nuclear Repulsion Energy =            289.3668916744608168
    One-Electron Energy =               -1055.3568853496626616
    Two-Electron Energy =                 420.4797166803033974
    Total Energy =                       -345.5102769948984474

Computation Completed

Properties will be evaluated at   0.000000,   0.000000,   0.000000 [a0]

Properties computed using the SCF density matrix

  Nuclear Dipole Moment: [e a0]
     X:    -6.7483      Y:    -2.8315      Z:   -16.4823

  Electronic Dipole Moment: [e a0]
     X:     5.0346      Y:     2.0063      Z:    13.0184

  Dipole Moment: [e a0]
     X:    -1.7137      Y:    -0.8252      Z:    -3.4639     Total:     3.9517

  Dipole Moment: [D]
     X:    -4.3558      Y:    -2.0974      Z:    -8.8043     Total:    10.0443

*** tstop() called on ds3 at Mon Apr 27 21:11:15 2020
Module time:
	user time   =      22.31 seconds =       0.37 minutes
	system time =       8.84 seconds =       0.15 minutes
	total time  =         55 seconds =       0.92 minutes
Total time:
	user time   =      22.31 seconds =       0.37 minutes
	system time =       8.84 seconds =       0.15 minutes
	total time  =         55 seconds =       0.92 minutes
                                     G D M A

                                 by Anthony Stone

                           version 2.2.06, 22 June 2011

               Distributed Multipoles from Gaussian wavefunctions

Starting at 21:11:15 on 27 Apr 2020

Using SCF density matrix from file ./SSI/SSI-025VAL-083GLU-2-dimer.test.24564.fchk

                         Distributed Multipole Analysis

Standard DMA

Positions and radii in angstrom
Multipole moments in atomic units, ea_0^k for rank k

C          x = -1.250206  y =  0.495581  z = -2.449226 angstrom
           Maximum rank =  0   Radius =  0.650 angstrom
                   Q00  =  -0.217707

C          x = -1.025206  y =  1.091581  z = -3.830226 angstrom
           Maximum rank =  0   Radius =  0.650 angstrom
                   Q00  =  -0.232693

H          x = -2.034206  y =  1.016581  z = -1.905226 angstrom
           Maximum rank =  0   Radius =  0.325 angstrom
                   Q00  =   0.074235

H          x = -1.546206  y = -0.544419  z = -2.564226 angstrom
           Maximum rank =  0   Radius =  0.325 angstrom
                   Q00  =   0.067614

H          x = -0.325206  y =  0.555581  z = -1.874226 angstrom
           Maximum rank =  0   Radius =  0.325 angstrom
                   Q00  =   0.105950

H          x = -1.906206  y =  0.888581  z = -4.439226 angstrom
           Maximum rank =  0   Radius =  0.325 angstrom
                   Q00  =   0.055812

H          x = -0.871166  y =  2.178451  z = -3.759626 angstrom
           Maximum rank =  0   Radius =  0.325 angstrom
                   Q00  =   0.074878

H          x = -0.150426  y =  0.617501  z = -4.299266 angstrom
           Maximum rank =  0   Radius =  0.325 angstrom
                   Q00  =   0.074455

C          x = -0.401206  y = -0.814419  z =  0.871774 angstrom
           Maximum rank =  0   Radius =  0.650 angstrom
                   Q00  =  -0.141830

C          x =  0.368794  y = -1.839419  z =  0.048774 angstrom
           Maximum rank =  0   Radius =  0.650 angstrom
                   Q00  =  -0.226781

C          x =  0.531794  y =  0.095581  z =  1.648774 angstrom
           Maximum rank =  0   Radius =  0.650 angstrom
                   Q00  =   1.016422

O          x =  1.610794  y =  0.429581  z =  1.111774 angstrom
           Maximum rank =  0   Radius =  0.650 angstrom
                   Q00  =  -0.967227

O          x =  0.175794  y =  0.489581  z =  2.780774 angstrom
           Maximum rank =  0   Radius =  0.650 angstrom
                   Q00  =  -0.936280

H          x = -1.007206  y = -0.206419  z =  0.201774 angstrom
           Maximum rank =  0   Radius =  0.325 angstrom
                   Q00  =   0.051586

H          x = -1.094206  y = -1.306419  z =  1.536774 angstrom
           Maximum rank =  0   Radius =  0.325 angstrom
                   Q00  =   0.025667

H          x =  1.059794  y = -2.374419  z =  0.694774 angstrom
           Maximum rank =  0   Radius =  0.325 angstrom
                   Q00  =   0.075729

H          x =  0.947794  y = -1.305419  z = -0.702226 angstrom
           Maximum rank =  0   Radius =  0.325 angstrom
                   Q00  =   0.087242

H          x = -0.280316  y = -2.544657  z = -0.490946 angstrom
           Maximum rank =  0   Radius =  0.325 angstrom
                   Q00  =   0.012926

Total multipoles referred to origin at
           x =   0.000000,  y =    0.000000,  z =    0.000000 angstrom
                   Q00  =  -1.000000

Finished at 21:11:15 on 27 Apr 2020

  DMA results are available in the Python driver through the
	  variable('DMA DISTRIBUTED MULTIPOLES')
  and
	  variable('DMA TOTAL MULTIPOLES')
  commands.

    Psi4 stopped on: Monday, 27 April 2020 09:11PM
    Psi4 wall time for execution: 0:00:54.80

*** Psi4 exiting successfully. Buy a developer a beer!
