                               Psi4 1.3.2 release

  ==> Input File <==

--------------------------------------------------------------------------
import numpy as np
set {scf_type pk
basis cc-pvdz
d_convergence 10
gdma_switch   0
gdma_limit    0
gdma_origin   [ 0.0,  0.0,  0.0 ]
}
molecule test {
    units Angstrom
    -1 1
    --
    -1 1
    C                0.837712807021317    -1.367937475712549    -0.379899453293132
    C                1.347712807021317     0.020062524287451    -0.001899453293132
    O                0.463712807021317     0.874062524287451     0.274100546706868
    O                2.575712807021317     0.270062524287451     0.003100546706868
    H                0.054712807021317    -1.283937475712549    -1.136899453293132
    H                0.378712807021317    -1.807937475712549     0.508100546706868
    H                1.614712807021317    -2.061897475712549    -0.733019453293132
    C               -2.823287192978683    -0.330937475712549     0.453100546706868
    O               -2.044287192978683     0.506062524287451    -0.369899453293132
    H               -1.134287192978683     0.630062524287451     0.010100546706868
    H               -2.265287192978683    -1.237937475712549     0.689100546706868
    H               -3.721287192978683    -0.611937475712549    -0.097899453293132
    H               -3.125937192978684     0.173242524287451     1.382730546706868

}
e, wfn = energy('scf', return_wfn=True)
gdma(wfn)
dmavals = variable('DMA DISTRIBUTED MULTIPOLES')
charges = np.array(dmavals)
print(charges)
np.save('SSI-221GLU-262SER-1-dimer.npy', np.array(charges))--------------------------------------------------------------------------

*** tstart() called on ds3
*** at Mon Apr 27 14:21:34 2020

   => Loading Basis Set <=

    Name: CC-PVDZ
    Role: ORBITAL
    Keyword: BASIS
    atoms 1-2, 8     entry C          line   138 file /theoryfs2/ds/metcalf/miniconda2/envs/tf2gpu/share/psi4/basis/cc-pvdz.gbs
    atoms 3-4, 9     entry O          line   198 file /theoryfs2/ds/metcalf/miniconda2/envs/tf2gpu/share/psi4/basis/cc-pvdz.gbs
    atoms 5-7, 10-13 entry H          line    22 file /theoryfs2/ds/metcalf/miniconda2/envs/tf2gpu/share/psi4/basis/cc-pvdz.gbs

         ---------------------------------------------------------
                                   SCF
               by Justin Turney, Rob Parrish, Andy Simmonett
                          and Daniel G. A. Smith
                              RHF Reference
                        1 Threads,    500 MiB Core
         ---------------------------------------------------------

  ==> Geometry <==

    Molecular point group: c1
    Full point group: C1

    Geometry (in Angstrom), charge = -1, multiplicity = 1:

       Center              X                  Y                   Z               Mass
    ------------   -----------------  -----------------  -----------------  -----------------
         C            0.837712807021    -1.367937475713    -0.379899453293    12.000000000000
         C            1.347712807021     0.020062524287    -0.001899453293    12.000000000000
         O            0.463712807021     0.874062524287     0.274100546707    15.994914619570
         O            2.575712807021     0.270062524287     0.003100546707    15.994914619570
         H            0.054712807021    -1.283937475713    -1.136899453293     1.007825032230
         H            0.378712807021    -1.807937475713     0.508100546707     1.007825032230
         H            1.614712807021    -2.061897475713    -0.733019453293     1.007825032230
         C           -2.823287192979    -0.330937475713     0.453100546707    12.000000000000
         O           -2.044287192979     0.506062524287    -0.369899453293    15.994914619570
         H           -1.134287192979     0.630062524287     0.010100546707     1.007825032230
         H           -2.265287192979    -1.237937475713     0.689100546707     1.007825032230
         H           -3.721287192979    -0.611937475713    -0.097899453293     1.007825032230
         H           -3.125937192979     0.173242524287     1.382730546707     1.007825032230

  Running in c1 symmetry.

  Rotational constants: A =      0.26123  B =      0.04867  C =      0.04326 [cm^-1]
  Rotational constants: A =   7831.59457  B =   1459.14996  C =   1296.98129 [MHz]
  Nuclear repulsion =  232.725716668235890

  Charge       = -1
  Multiplicity = 1
  Electrons    = 50
  Nalpha       = 25
  Nbeta        = 25

  ==> Algorithm <==

  SCF Algorithm Type is PK.
  DIIS enabled.
  MOM disabled.
  Fractional occupation disabled.
  Guess Type is SAD.
  Energy threshold   = 1.00e-06
  Density threshold  = 1.00e-10
  Integral threshold = 0.00e+00

  ==> Primary Basis <==

  Basis Set: CC-PVDZ
    Blend: CC-PVDZ
    Number of shells: 57
    Number of basis function: 119
    Number of Cartesian functions: 125
    Spherical Harmonics?: true
    Max angular momentum: 2

  ==> Pre-Iterations <==

   -------------------------------------------------------
    Irrep   Nso     Nmo     Nalpha   Nbeta   Ndocc  Nsocc
   -------------------------------------------------------
     A        119     119       0       0       0       0
   -------------------------------------------------------
    Total     119     119      25      25      25       0
   -------------------------------------------------------

  ==> Integral Setup <==

  Using integral reordering PK algorithm.
  Sizing the integral batches needed.
  Building batch lookup table.
   Calculation information:
      Number of atoms:                  13
      Number of AO shells:              57
      Number of primitives:            167
      Number of atomic orbitals:       125
      Number of basis functions:       119

      Integral cutoff                 1.00e-12
      Number of threads:                 1

	Batch   1 pq = [       0,    7140] index = [             0,25493370] size =     25493370
  Task number: 3
  Buffer size: 11059200
  Buffer per thread: 2
  We computed 1240180 shell quartets total.
  Whereas there are 1367031 unique shell quartets.

  ==> DiskJK: Disk-Based J/K Matrices <==

    J tasked:                  Yes
    K tasked:                  Yes
    wK tasked:                  No
    Memory [MiB]:              375
    Schwarz Cutoff:          1E-12

    OpenMP threads:              1

  Minimum eigenvalue in the overlap matrix is 5.5428121358E-03.
  Using Symmetric Orthogonalization.

  SCF Guess: Superposition of Atomic Densities via on-the-fly atomic UHF.

  ==> Iterations <==

                        Total Energy        Delta E     RMS |[F,P]|

   @RHF iter SAD:  -340.67237897553389   -3.40672e+02   0.00000e+00
   @RHF iter   1:  -342.08322194906896   -1.41084e+00   5.95675e-03 DIIS
   @RHF iter   2:  -342.25288754107504   -1.69666e-01   3.44320e-03 DIIS
   @RHF iter   3:  -342.31142947178512   -5.85419e-02   4.79511e-04 DIIS
   @RHF iter   4:  -342.31356087737714   -2.13141e-03   1.77614e-04 DIIS
   @RHF iter   5:  -342.31386325844039   -3.02381e-04   4.04168e-05 DIIS
   @RHF iter   6:  -342.31387805307781   -1.47946e-05   1.75346e-05 DIIS
   @RHF iter   7:  -342.31388058148895   -2.52841e-06   3.82099e-06 DIIS
   @RHF iter   8:  -342.31388086874045   -2.87252e-07   1.92136e-06 DIIS
   @RHF iter   9:  -342.31388091772470   -4.89842e-08   8.01865e-07 DIIS
   @RHF iter  10:  -342.31388093142118   -1.36965e-08   2.34837e-07 DIIS
   @RHF iter  11:  -342.31388093269538   -1.27420e-09   5.67689e-08 DIIS
   @RHF iter  12:  -342.31388093275086   -5.54792e-11   1.86335e-08 DIIS
   @RHF iter  13:  -342.31388093275876   -7.90124e-12   4.77704e-09 DIIS
   @RHF iter  14:  -342.31388093275831    4.54747e-13   1.36574e-09 DIIS
   @RHF iter  15:  -342.31388093275888   -5.68434e-13   4.93916e-10 DIIS
   @RHF iter  16:  -342.31388093275814    7.38964e-13   1.58179e-10 DIIS
   @RHF iter  17:  -342.31388093275837   -2.27374e-13   6.79068e-11 DIIS
  Energy and wave function converged.

  ==> Post-Iterations <==

    Orbital Energies [Eh]
    ---------------------

    Doubly Occupied:

       1A    -20.362701     2A    -20.288345     3A    -20.280768
       4A    -11.140519     5A    -11.133588     6A    -11.061278
       7A     -1.176145     8A     -1.164027     9A     -1.060077
      10A     -0.807902    11A     -0.771993    12A     -0.539767
      13A     -0.507462    14A     -0.467664    15A     -0.442554
      16A     -0.422541    17A     -0.421099    18A     -0.414833
      19A     -0.360501    20A     -0.326864    21A     -0.321791
      22A     -0.272274    23A     -0.206885    24A     -0.194398
      25A     -0.187145

    Virtual:

      26A      0.314044    27A      0.353589    28A      0.384341
      29A      0.385787    30A      0.408186    31A      0.434808
      32A      0.467948    33A      0.474211    34A      0.557637
      35A      0.590734    36A      0.680331    37A      0.735573
      38A      0.767757    39A      0.793298    40A      0.809496
      41A      0.866604    42A      0.912797    43A      0.936339
      44A      0.945963    45A      0.979418    46A      1.000470
      47A      1.010591    48A      1.026192    49A      1.045130
      50A      1.052077    51A      1.060164    52A      1.079776
      53A      1.111900    54A      1.204666    55A      1.274914
      56A      1.307101    57A      1.320671    58A      1.329271
      59A      1.344715    60A      1.390301    61A      1.503909
      62A      1.517428    63A      1.541808    64A      1.565535
      65A      1.583370    66A      1.598972    67A      1.672898
      68A      1.698501    69A      1.716989    70A      1.806325
      71A      1.821191    72A      1.840733    73A      1.850624
      74A      1.864488    75A      1.909922    76A      1.999757
      77A      2.027350    78A      2.048709    79A      2.071784
      80A      2.093051    81A      2.096631    82A      2.111782
      83A      2.150763    84A      2.198816    85A      2.209758
      86A      2.249478    87A      2.274747    88A      2.309587
      89A      2.406727    90A      2.426102    91A      2.448197
      92A      2.519387    93A      2.571125    94A      2.581201
      95A      2.633423    96A      2.658515    97A      2.717280
      98A      2.866785    99A      2.892193   100A      2.913084
     101A      2.914656   102A      2.938916   103A      2.967135
     104A      3.001218   105A      3.219538   106A      3.268916
     107A      3.296861   108A      3.443743   109A      3.500874
     110A      3.581243   111A      3.589251   112A      3.644171
     113A      3.768586   114A      3.790118   115A      3.806112
     116A      4.014097   117A      4.084028   118A      4.146625
     119A      4.367512

    Final Occupation by Irrep:
              A
    DOCC [    25 ]

  @RHF Final Energy:  -342.31388093275837

   => Energetics <=

    Nuclear Repulsion Energy =            232.7257166682358900
    One-Electron Energy =                -941.4129533435803978
    Two-Electron Energy =                 366.3733557425861136
    Total Energy =                       -342.3138809327583658

Computation Completed

Properties will be evaluated at   0.000000,   0.000000,   0.000000 [a0]

Properties computed using the SCF density matrix

  Nuclear Dipole Moment: [e a0]
     X:    -7.6812      Y:    -5.8047      Z:     0.5829

  Electronic Dipole Moment: [e a0]
     X:     5.8529      Y:     4.2948      Z:    -0.3790

  Dipole Moment: [e a0]
     X:    -1.8283      Y:    -1.5099      Z:     0.2039     Total:     2.3800

  Dipole Moment: [D]
     X:    -4.6472      Y:    -3.8379      Z:     0.5183     Total:     6.0493

*** tstop() called on ds3 at Mon Apr 27 14:21:56 2020
Module time:
	user time   =      10.19 seconds =       0.17 minutes
	system time =       3.52 seconds =       0.06 minutes
	total time  =         22 seconds =       0.37 minutes
Total time:
	user time   =      10.19 seconds =       0.17 minutes
	system time =       3.52 seconds =       0.06 minutes
	total time  =         22 seconds =       0.37 minutes
                                     G D M A

                                 by Anthony Stone

                           version 2.2.06, 22 June 2011

               Distributed Multipoles from Gaussian wavefunctions

Starting at 14:21:56 on 27 Apr 2020

Using SCF density matrix from file ./SSI/SSI-221GLU-262SER-1-dimer.test.9220.fchk

                         Distributed Multipole Analysis

Standard DMA

Positions and radii in angstrom
Multipole moments in atomic units, ea_0^k for rank k

C          x =  0.837713  y = -1.367937  z = -0.379899 angstrom
           Maximum rank =  0   Radius =  0.650 angstrom
                   Q00  =  -0.288704

C          x =  1.347713  y =  0.020063  z = -0.001899 angstrom
           Maximum rank =  0   Radius =  0.650 angstrom
                   Q00  =   0.941520

O          x =  0.463713  y =  0.874063  z =  0.274101 angstrom
           Maximum rank =  0   Radius =  0.650 angstrom
                   Q00  =  -0.942256

O          x =  2.575713  y =  0.270063  z =  0.003101 angstrom
           Maximum rank =  0   Radius =  0.650 angstrom
                   Q00  =  -0.895018

H          x =  0.054713  y = -1.283937  z = -1.136899 angstrom
           Maximum rank =  0   Radius =  0.325 angstrom
                   Q00  =   0.084340

H          x =  0.378713  y = -1.807937  z =  0.508101 angstrom
           Maximum rank =  0   Radius =  0.325 angstrom
                   Q00  =   0.074344

H          x =  1.614713  y = -2.061897  z = -0.733019 angstrom
           Maximum rank =  0   Radius =  0.325 angstrom
                   Q00  =   0.054369

C          x = -2.823287  y = -0.330937  z =  0.453101 angstrom
           Maximum rank =  0   Radius =  0.650 angstrom
                   Q00  =   0.017835

O          x = -2.044287  y =  0.506063  z = -0.369899 angstrom
           Maximum rank =  0   Radius =  0.650 angstrom
                   Q00  =  -0.712896

H          x = -1.134287  y =  0.630063  z =  0.010101 angstrom
           Maximum rank =  0   Radius =  0.325 angstrom
                   Q00  =   0.550463

H          x = -2.265287  y = -1.237937  z =  0.689101 angstrom
           Maximum rank =  0   Radius =  0.325 angstrom
                   Q00  =   0.034336

H          x = -3.721287  y = -0.611937  z = -0.097899 angstrom
           Maximum rank =  0   Radius =  0.325 angstrom
                   Q00  =   0.056287

H          x = -3.125937  y =  0.173243  z =  1.382731 angstrom
           Maximum rank =  0   Radius =  0.325 angstrom
                   Q00  =   0.025381

Total multipoles referred to origin at
           x =   0.000000,  y =    0.000000,  z =    0.000000 angstrom
                   Q00  =  -1.000000

Finished at 14:21:56 on 27 Apr 2020

  DMA results are available in the Python driver through the
	  variable('DMA DISTRIBUTED MULTIPOLES')
  and
	  variable('DMA TOTAL MULTIPOLES')
  commands.

    Psi4 stopped on: Monday, 27 April 2020 02:21PM
    Psi4 wall time for execution: 0:00:22.03

*** Psi4 exiting successfully. Buy a developer a beer!
