                               Psi4 1.3.2 release

  ==> Input File <==

--------------------------------------------------------------------------
import numpy as np
set {scf_type pk
basis cc-pvdz
d_convergence 10
gdma_switch   0
gdma_limit    0
gdma_origin   [ 0.0,  0.0,  0.0 ]
}
molecule test {
    units Angstrom
    0 1
    --
    0 1
    C                1.032851887257947    -0.861581609400774     2.311089480758249
    C                1.659851887257947    -1.482581609400774     1.067089480758249
    O                1.434851887257947    -1.033581609400774    -0.054910519241751
    N                2.460851887257946    -2.518581609400774     1.247089480758249
    H                0.242851887257946    -0.186581609400774     1.980089480758249
    H                1.787851887257947    -0.272581609400774     2.835089480758249
    H                2.922851887257946    -2.856581609400774     0.414089480758249
    H                2.877851887257946    -2.680581609400774     2.148089480758249
    H                0.595471887257946    -1.614841609400774     2.982879480758249
    C               -2.863148112742053     0.691418390599226    -0.981910519241751
    C               -1.589148112742053     1.488418390599226    -1.111910519241751
    O               -0.618148112742054     1.254418390599226    -0.398910519241751
    N               -1.578148112742054     2.440418390599226    -2.028910519241751
    H               -3.326148112742054     0.578418390599226    -1.963910519241751
    H               -3.545148112742054     1.263418390599226    -0.351910519241751
    H               -0.740148112742053     2.992418390599226    -2.140910519241751
    H               -2.394148112742053     2.614418390599226    -2.595910519241751
    H               -2.696398112742053    -0.299711609400774    -0.534860519241751

}
e, wfn = energy('scf', return_wfn=True)
gdma(wfn)
dmavals = variable('DMA DISTRIBUTED MULTIPOLES')
charges = np.array(dmavals)
print(charges)
np.save('SSI-054ASN-141ASN-1-dimer.npy', np.array(charges))--------------------------------------------------------------------------

*** tstart() called on ds3
*** at Tue Apr 28 13:57:38 2020

   => Loading Basis Set <=

    Name: CC-PVDZ
    Role: ORBITAL
    Keyword: BASIS
    atoms 1-2, 10-11 entry C          line   138 file /theoryfs2/ds/metcalf/miniconda2/envs/tf2gpu/share/psi4/basis/cc-pvdz.gbs
    atoms 3, 12      entry O          line   198 file /theoryfs2/ds/metcalf/miniconda2/envs/tf2gpu/share/psi4/basis/cc-pvdz.gbs
    atoms 4, 13      entry N          line   168 file /theoryfs2/ds/metcalf/miniconda2/envs/tf2gpu/share/psi4/basis/cc-pvdz.gbs
    atoms 5-9, 14-18 entry H          line    22 file /theoryfs2/ds/metcalf/miniconda2/envs/tf2gpu/share/psi4/basis/cc-pvdz.gbs

         ---------------------------------------------------------
                                   SCF
               by Justin Turney, Rob Parrish, Andy Simmonett
                          and Daniel G. A. Smith
                              RHF Reference
                        1 Threads,    500 MiB Core
         ---------------------------------------------------------

  ==> Geometry <==

    Molecular point group: c1
    Full point group: C1

    Geometry (in Angstrom), charge = 0, multiplicity = 1:

       Center              X                  Y                   Z               Mass
    ------------   -----------------  -----------------  -----------------  -----------------
         C            1.032851887258    -0.861581609401     2.311089480758    12.000000000000
         C            1.659851887258    -1.482581609401     1.067089480758    12.000000000000
         O            1.434851887258    -1.033581609401    -0.054910519242    15.994914619570
         N            2.460851887258    -2.518581609401     1.247089480758    14.003074004430
         H            0.242851887258    -0.186581609401     1.980089480758     1.007825032230
         H            1.787851887258    -0.272581609401     2.835089480758     1.007825032230
         H            2.922851887258    -2.856581609401     0.414089480758     1.007825032230
         H            2.877851887258    -2.680581609401     2.148089480758     1.007825032230
         H            0.595471887258    -1.614841609401     2.982879480758     1.007825032230
         C           -2.863148112742     0.691418390599    -0.981910519242    12.000000000000
         C           -1.589148112742     1.488418390599    -1.111910519242    12.000000000000
         O           -0.618148112742     1.254418390599    -0.398910519242    15.994914619570
         N           -1.578148112742     2.440418390599    -2.028910519242    14.003074004430
         H           -3.326148112742     0.578418390599    -1.963910519242     1.007825032230
         H           -3.545148112742     1.263418390599    -0.351910519242     1.007825032230
         H           -0.740148112742     2.992418390599    -2.140910519242     1.007825032230
         H           -2.394148112742     2.614418390599    -2.595910519242     1.007825032230
         H           -2.696398112742    -0.299711609401    -0.534860519242     1.007825032230

  Running in c1 symmetry.

  Rotational constants: A =      0.14977  B =      0.01941  C =      0.01886 [cm^-1]
  Rotational constants: A =   4490.13163  B =    581.97021  C =    565.52819 [MHz]
  Nuclear repulsion =  352.687813471532138

  Charge       = 0
  Multiplicity = 1
  Electrons    = 64
  Nalpha       = 32
  Nbeta        = 32

  ==> Algorithm <==

  SCF Algorithm Type is PK.
  DIIS enabled.
  MOM disabled.
  Fractional occupation disabled.
  Guess Type is SAD.
  Energy threshold   = 1.00e-06
  Density threshold  = 1.00e-10
  Integral threshold = 0.00e+00

  ==> Primary Basis <==

  Basis Set: CC-PVDZ
    Blend: CC-PVDZ
    Number of shells: 78
    Number of basis function: 162
    Number of Cartesian functions: 170
    Spherical Harmonics?: true
    Max angular momentum: 2

  ==> Pre-Iterations <==

   -------------------------------------------------------
    Irrep   Nso     Nmo     Nalpha   Nbeta   Ndocc  Nsocc
   -------------------------------------------------------
     A        162     162       0       0       0       0
   -------------------------------------------------------
    Total     162     162      32      32      32       0
   -------------------------------------------------------

  ==> Integral Setup <==

  Using integral reordering PK algorithm.
  Sizing the integral batches needed.
  Building batch lookup table.
   Calculation information:
      Number of atoms:                  18
      Number of AO shells:              78
      Number of primitives:            226
      Number of atomic orbitals:       170
      Number of basis functions:       162

      Integral cutoff                 1.00e-12
      Number of threads:                 1

	Batch   1 pq = [       0,    9405] index = [             0,44231715] size =     44231715
	Batch   2 pq = [    9405,   13203] index = [      44231715,87166206] size =     42934491
  Task number: 8
  Buffer size: 11059200
  Buffer per thread: 2
  We computed 3141203 shell quartets total.
  Whereas there are 4747821 unique shell quartets.

  ==> DiskJK: Disk-Based J/K Matrices <==

    J tasked:                  Yes
    K tasked:                  Yes
    wK tasked:                  No
    Memory [MiB]:              375
    Schwarz Cutoff:          1E-12

    OpenMP threads:              1

  Minimum eigenvalue in the overlap matrix is 4.6090929074E-03.
  Using Symmetric Orthogonalization.

  SCF Guess: Superposition of Atomic Densities via on-the-fly atomic UHF.

  ==> Iterations <==

                        Total Energy        Delta E     RMS |[F,P]|

   @RHF iter SAD:  -414.52603535116168   -4.14526e+02   0.00000e+00
   @RHF iter   1:  -415.67136415419213   -1.14533e+00   4.80124e-03 DIIS
   @RHF iter   2:  -415.88985352943496   -2.18489e-01   3.01961e-03 DIIS
   @RHF iter   3:  -415.97570371987899   -8.58502e-02   5.60753e-04 DIIS
   @RHF iter   4:  -415.98054696378222   -4.84324e-03   2.08019e-04 DIIS
   @RHF iter   5:  -415.98139170386003   -8.44740e-04   3.98319e-05 DIIS
   @RHF iter   6:  -415.98145120322420   -5.94994e-05   1.99187e-05 DIIS
   @RHF iter   7:  -415.98146232625629   -1.11230e-05   7.70553e-06 DIIS
   @RHF iter   8:  -415.98146445335669   -2.12710e-06   2.32074e-06 DIIS
   @RHF iter   9:  -415.98146466872589   -2.15369e-07   4.93227e-07 DIIS
   @RHF iter  10:  -415.98146467752917   -8.80328e-09   1.14947e-07 DIIS
   @RHF iter  11:  -415.98146467783607   -3.06898e-10   5.06303e-08 DIIS
   @RHF iter  12:  -415.98146467788291   -4.68390e-11   1.45796e-08 DIIS
   @RHF iter  13:  -415.98146467788786   -4.94538e-12   4.91744e-09 DIIS
   @RHF iter  14:  -415.98146467788911   -1.25056e-12   1.91836e-09 DIIS
   @RHF iter  15:  -415.98146467788700    2.10321e-12   8.21367e-10 DIIS
   @RHF iter  16:  -415.98146467788814   -1.13687e-12   3.29648e-10 DIIS
   @RHF iter  17:  -415.98146467788871   -5.68434e-13   1.19523e-10 DIIS
   @RHF iter  18:  -415.98146467788945   -7.38964e-13   3.71092e-11 DIIS
  Energy and wave function converged.

  ==> Post-Iterations <==

    Orbital Energies [Eh]
    ---------------------

    Doubly Occupied:

       1A    -20.487970     2A    -20.484051     3A    -15.576844
       4A    -15.570160     5A    -11.331683     6A    -11.326128
       7A    -11.231672     8A    -11.220437     9A     -1.353580
      10A     -1.348337    11A     -1.205928    12A     -1.200256
      13A     -0.990479    14A     -0.976395    15A     -0.787920
      16A     -0.779053    17A     -0.717333    18A     -0.710568
      19A     -0.641017    20A     -0.631470    21A     -0.602613
      22A     -0.593664    23A     -0.557888    24A     -0.549291
      25A     -0.544467    26A     -0.528321    27A     -0.509478
      28A     -0.504874    29A     -0.394737    30A     -0.392431
      31A     -0.388492    32A     -0.381932

    Virtual:

      33A      0.172312    34A      0.180873    35A      0.213189
      36A      0.219021    37A      0.225222    38A      0.229393
      39A      0.240167    40A      0.251508    41A      0.272060
      42A      0.286440    43A      0.290196    44A      0.314447
      45A      0.393443    46A      0.398827    47A      0.461597
      48A      0.509300    49A      0.562845    50A      0.569325
      51A      0.642506    52A      0.646306    53A      0.657135
      54A      0.677066    55A      0.710839    56A      0.719782
      57A      0.729781    58A      0.742024    59A      0.750255
      60A      0.757043    61A      0.762494    62A      0.778391
      63A      0.847578    64A      0.868666    65A      0.872008
      66A      0.881715    67A      0.894368    68A      0.919531
      69A      0.923953    70A      0.926650    71A      0.950971
      72A      0.967866    73A      1.014660    74A      1.018469
      75A      1.021546    76A      1.029930    77A      1.071534
      78A      1.074677    79A      1.106933    80A      1.133360
      81A      1.142044    82A      1.194485    83A      1.292065
      84A      1.317056    85A      1.341223    86A      1.382272
      87A      1.392036    88A      1.401875    89A      1.409805
      90A      1.423913    91A      1.450088    92A      1.463870
      93A      1.487369    94A      1.496959    95A      1.545936
      96A      1.549117    97A      1.662454    98A      1.664816
      99A      1.665779   100A      1.677813   101A      1.729446
     102A      1.736209   103A      1.811336   104A      1.823937
     105A      1.858408   106A      1.870081   107A      1.891748
     108A      1.892728   109A      1.902631   110A      1.914874
     111A      1.920046   112A      1.962524   113A      1.975923
     114A      1.976975   115A      1.977986   116A      1.989957
     117A      2.047314   118A      2.054892   119A      2.087315
     120A      2.123544   121A      2.184765   122A      2.196950
     123A      2.218950   124A      2.224493   125A      2.276904
     126A      2.289277   127A      2.383065   128A      2.418047
     129A      2.451376   130A      2.460547   131A      2.490570
     132A      2.501879   133A      2.530282   134A      2.552295
     135A      2.592163   136A      2.622469   137A      2.633736
     138A      2.700315   139A      2.726149   140A      2.753151
     141A      2.763179   142A      2.795727   143A      2.801399
     144A      2.811971   145A      2.874914   146A      2.893989
     147A      2.995439   148A      2.998341   149A      3.106223
     150A      3.110406   151A      3.154711   152A      3.157361
     153A      3.280691   154A      3.299443   155A      3.518191
     156A      3.525970   157A      3.534500   158A      3.553545
     159A      3.868976   160A      3.897976   161A      3.914178
     162A      3.945380

    Final Occupation by Irrep:
              A
    DOCC [    32 ]

  @RHF Final Energy:  -415.98146467788945

   => Energetics <=

    Nuclear Repulsion Energy =            352.6878134715321380
    One-Electron Energy =               -1268.2996208520994514
    Two-Electron Energy =                 499.6303427026779218
    Total Energy =                       -415.9814646778894485

Computation Completed

Properties will be evaluated at   0.000000,   0.000000,   0.000000 [a0]

Properties computed using the SCF density matrix

  Nuclear Dipole Moment: [e a0]
     X:    -4.0064      Y:    -0.4320      Z:     2.5994

  Electronic Dipole Moment: [e a0]
     X:     3.4949      Y:     0.4505      Z:    -2.4243

  Dipole Moment: [e a0]
     X:    -0.5115      Y:     0.0185      Z:     0.1752     Total:     0.5410

  Dipole Moment: [D]
     X:    -1.3002      Y:     0.0470      Z:     0.4452     Total:     1.3751

*** tstop() called on ds3 at Tue Apr 28 13:58:17 2020
Module time:
	user time   =      25.50 seconds =       0.42 minutes
	system time =      15.58 seconds =       0.26 minutes
	total time  =         39 seconds =       0.65 minutes
Total time:
	user time   =      25.50 seconds =       0.42 minutes
	system time =      15.58 seconds =       0.26 minutes
	total time  =         39 seconds =       0.65 minutes
                                     G D M A

                                 by Anthony Stone

                           version 2.2.06, 22 June 2011

               Distributed Multipoles from Gaussian wavefunctions

Starting at 13:58:17 on 28 Apr 2020

Using SCF density matrix from file ./SSI/SSI-054ASN-141ASN-1-dimer.test.374.fchk

                         Distributed Multipole Analysis

Standard DMA

Positions and radii in angstrom
Multipole moments in atomic units, ea_0^k for rank k

C          x =  1.032852  y = -0.861582  z =  2.311089 angstrom
           Maximum rank =  0   Radius =  0.650 angstrom
                   Q00  =  -0.273203

C          x =  1.659852  y = -1.482582  z =  1.067089 angstrom
           Maximum rank =  0   Radius =  0.650 angstrom
                   Q00  =   0.814659

O          x =  1.434852  y = -1.033582  z = -0.054911 angstrom
           Maximum rank =  0   Radius =  0.650 angstrom
                   Q00  =  -0.773305

N          x =  2.460852  y = -2.518582  z =  1.247089 angstrom
           Maximum rank =  0   Radius =  0.650 angstrom
                   Q00  =  -0.515412

H          x =  0.242852  y = -0.186582  z =  1.980089 angstrom
           Maximum rank =  0   Radius =  0.325 angstrom
                   Q00  =   0.145158

H          x =  1.787852  y = -0.272582  z =  2.835089 angstrom
           Maximum rank =  0   Radius =  0.325 angstrom
                   Q00  =   0.111454

H          x =  2.922852  y = -2.856582  z =  0.414089 angstrom
           Maximum rank =  0   Radius =  0.325 angstrom
                   Q00  =   0.204844

H          x =  2.877852  y = -2.680582  z =  2.148089 angstrom
           Maximum rank =  0   Radius =  0.325 angstrom
                   Q00  =   0.193981

H          x =  0.595472  y = -1.614842  z =  2.982879 angstrom
           Maximum rank =  0   Radius =  0.325 angstrom
                   Q00  =   0.089995

C          x = -2.863148  y =  0.691418  z = -0.981911 angstrom
           Maximum rank =  0   Radius =  0.650 angstrom
                   Q00  =  -0.261877

C          x = -1.589148  y =  1.488418  z = -1.111911 angstrom
           Maximum rank =  0   Radius =  0.650 angstrom
                   Q00  =   0.817700

O          x = -0.618148  y =  1.254418  z = -0.398911 angstrom
           Maximum rank =  0   Radius =  0.650 angstrom
                   Q00  =  -0.779083

N          x = -1.578148  y =  2.440418  z = -2.028911 angstrom
           Maximum rank =  0   Radius =  0.650 angstrom
                   Q00  =  -0.528116

H          x = -3.326148  y =  0.578418  z = -1.963911 angstrom
           Maximum rank =  0   Radius =  0.325 angstrom
                   Q00  =   0.080325

H          x = -3.545148  y =  1.263418  z = -0.351911 angstrom
           Maximum rank =  0   Radius =  0.325 angstrom
                   Q00  =   0.117567

H          x = -0.740148  y =  2.992418  z = -2.140911 angstrom
           Maximum rank =  0   Radius =  0.325 angstrom
                   Q00  =   0.221650

H          x = -2.394148  y =  2.614418  z = -2.595911 angstrom
           Maximum rank =  0   Radius =  0.325 angstrom
                   Q00  =   0.199960

H          x = -2.696398  y = -0.299712  z = -0.534861 angstrom
           Maximum rank =  0   Radius =  0.325 angstrom
                   Q00  =   0.133702

Total multipoles referred to origin at
           x =   0.000000,  y =    0.000000,  z =    0.000000 angstrom
                   Q00  =  -0.000000

Finished at 13:58:17 on 28 Apr 2020

  DMA results are available in the Python driver through the
	  variable('DMA DISTRIBUTED MULTIPOLES')
  and
	  variable('DMA TOTAL MULTIPOLES')
  commands.

    Psi4 stopped on: Tuesday, 28 April 2020 01:58PM
    Psi4 wall time for execution: 0:00:39.23

*** Psi4 exiting successfully. Buy a developer a beer!
