                               Psi4 1.3.2 release

  ==> Input File <==

--------------------------------------------------------------------------
import numpy as np
set {scf_type pk
basis cc-pvdz
d_convergence 10
gdma_switch   0
gdma_limit    0
gdma_origin   [ 0.0,  0.0,  0.0 ]
}
molecule test {
    units Angstrom
    0 1
    --
    0 1
    C               -0.898147486816421    -0.432880941520616     3.598198209496015
    C                0.736852513183579    -1.410880941520616     0.482198209496015
    C               -0.545147486816421    -0.924880941520616     2.211198209496015
    C               -1.355147486816421    -1.207880941520616     1.146198209496015
    N                0.756852513183579    -1.066880941520616     1.765198209496015
    N               -0.533147486816421    -1.498880941520616     0.083198209496015
    H                1.647852513183579    -1.576880941520616    -0.080801790503985
    H               -0.849147486816421    -1.744880941520616    -0.833801790503985
    H               -2.433147486816421    -1.220880941520616     1.058198209496015
    H               -0.284147486816421    -0.999880941520616     4.301198209496015
    H               -1.942147486816421    -0.677880941520616     3.771198209496015
    H               -0.823277486816421     0.655529058479384     3.738748209496015
    C                0.280852513183579     1.346119058479384    -1.922801790503985
    C                0.688852513183579     0.385119058479384    -3.068801790503985
    C                1.540852513183579     1.975119058479384    -1.335801790503985
    C               -0.722147486816421     2.422119058479384    -2.398801790503985
    H               -0.230147486816421     0.787119058479384    -1.141801790503985
    H                1.276852513183579    -0.437880941520616    -2.660801790503985
    H                1.301852513183579     0.928119058479384    -3.791801790503985
    H                2.064852513183579     2.534119058479384    -2.110801790503985
    H                1.269852513183579     2.648119058479384    -0.523801790503985
    H                2.195852513183579     1.192119058479384    -0.949801790503985
    H               -1.629147486816421     1.943119058479384    -2.771801790503985
    H               -0.990147486816421     3.075119058479384    -1.565801790503985
    H               -0.277147486816421     3.019119058479384    -3.194801790503985
    H               -0.154187486816421    -0.097530941520616    -3.584861790503985

}
e, wfn = energy('scf', return_wfn=True)
gdma(wfn)
dmavals = variable('DMA DISTRIBUTED MULTIPOLES')
charges = np.array(dmavals)
print(charges)
np.save('SSI-036HIE-063LEU-1-dimer.npy', np.array(charges))--------------------------------------------------------------------------

*** tstart() called on ds3
*** at Mon Apr 27 12:35:59 2020

   => Loading Basis Set <=

    Name: CC-PVDZ
    Role: ORBITAL
    Keyword: BASIS
    atoms 1-4, 13-16  entry C          line   138 file /theoryfs2/ds/metcalf/miniconda2/envs/tf2gpu/share/psi4/basis/cc-pvdz.gbs
    atoms 5-6         entry N          line   168 file /theoryfs2/ds/metcalf/miniconda2/envs/tf2gpu/share/psi4/basis/cc-pvdz.gbs
    atoms 7-12, 17-26 entry H          line    22 file /theoryfs2/ds/metcalf/miniconda2/envs/tf2gpu/share/psi4/basis/cc-pvdz.gbs

         ---------------------------------------------------------
                                   SCF
               by Justin Turney, Rob Parrish, Andy Simmonett
                          and Daniel G. A. Smith
                              RHF Reference
                        1 Threads,    500 MiB Core
         ---------------------------------------------------------

  ==> Geometry <==

    Molecular point group: c1
    Full point group: C1

    Geometry (in Angstrom), charge = 0, multiplicity = 1:

       Center              X                  Y                   Z               Mass
    ------------   -----------------  -----------------  -----------------  -----------------
         C           -0.898147486816    -0.432880941521     3.598198209496    12.000000000000
         C            0.736852513184    -1.410880941521     0.482198209496    12.000000000000
         C           -0.545147486816    -0.924880941521     2.211198209496    12.000000000000
         C           -1.355147486816    -1.207880941521     1.146198209496    12.000000000000
         N            0.756852513184    -1.066880941521     1.765198209496    14.003074004430
         N           -0.533147486816    -1.498880941521     0.083198209496    14.003074004430
         H            1.647852513184    -1.576880941521    -0.080801790504     1.007825032230
         H           -0.849147486816    -1.744880941521    -0.833801790504     1.007825032230
         H           -2.433147486816    -1.220880941521     1.058198209496     1.007825032230
         H           -0.284147486816    -0.999880941521     4.301198209496     1.007825032230
         H           -1.942147486816    -0.677880941521     3.771198209496     1.007825032230
         H           -0.823277486816     0.655529058479     3.738748209496     1.007825032230
         C            0.280852513184     1.346119058479    -1.922801790504    12.000000000000
         C            0.688852513184     0.385119058479    -3.068801790504    12.000000000000
         C            1.540852513184     1.975119058479    -1.335801790504    12.000000000000
         C           -0.722147486816     2.422119058479    -2.398801790504    12.000000000000
         H           -0.230147486816     0.787119058479    -1.141801790504     1.007825032230
         H            1.276852513184    -0.437880941521    -2.660801790504     1.007825032230
         H            1.301852513184     0.928119058479    -3.791801790504     1.007825032230
         H            2.064852513184     2.534119058479    -2.110801790504     1.007825032230
         H            1.269852513184     2.648119058479    -0.523801790504     1.007825032230
         H            2.195852513184     1.192119058479    -0.949801790504     1.007825032230
         H           -1.629147486816     1.943119058479    -2.771801790504     1.007825032230
         H           -0.990147486816     3.075119058479    -1.565801790504     1.007825032230
         H           -0.277147486816     3.019119058479    -3.194801790504     1.007825032230
         H           -0.154187486816    -0.097530941521    -3.584861790504     1.007825032230

  Running in c1 symmetry.

  Rotational constants: A =      0.06942  B =      0.01844  C =      0.01778 [cm^-1]
  Rotational constants: A =   2081.24498  B =    552.91508  C =    533.03777 [MHz]
  Nuclear repulsion =  521.237347605084665

  Charge       = 0
  Multiplicity = 1
  Electrons    = 78
  Nalpha       = 39
  Nbeta        = 39

  ==> Algorithm <==

  SCF Algorithm Type is PK.
  DIIS enabled.
  MOM disabled.
  Fractional occupation disabled.
  Guess Type is SAD.
  Energy threshold   = 1.00e-06
  Density threshold  = 1.00e-10
  Integral threshold = 0.00e+00

  ==> Primary Basis <==

  Basis Set: CC-PVDZ
    Blend: CC-PVDZ
    Number of shells: 108
    Number of basis function: 220
    Number of Cartesian functions: 230
    Spherical Harmonics?: true
    Max angular momentum: 2

  ==> Pre-Iterations <==

   -------------------------------------------------------
    Irrep   Nso     Nmo     Nalpha   Nbeta   Ndocc  Nsocc
   -------------------------------------------------------
     A        220     220       0       0       0       0
   -------------------------------------------------------
    Total     220     220      39      39      39       0
   -------------------------------------------------------

  ==> Integral Setup <==

  Using integral reordering PK algorithm.
  Sizing the integral batches needed.
  Building batch lookup table.
   Calculation information:
      Number of atoms:                  26
      Number of AO shells:             108
      Number of primitives:            300
      Number of atomic orbitals:       230
      Number of basis functions:       220

      Integral cutoff                 1.00e-12
      Number of threads:                 1

	Batch   1 pq = [       0,    9405] index = [             0,44231715] size =     44231715
	Batch   2 pq = [    9405,   13301] index = [      44231715,88464951] size =     44233236
	Batch   3 pq = [   13301,   16290] index = [      88464951,132690195] size =     44225244
	Batch   4 pq = [   16290,   18810] index = [     132690195,176917455] size =     44227260
	Batch   5 pq = [   18810,   21030] index = [     176917455,221140965] size =     44223510
	Batch   6 pq = [   21030,   23037] index = [     221140965,265363203] size =     44222238
	Batch   7 pq = [   23037,   24310] index = [     265363203,295500205] size =     30137002
  Task number: 27
  Buffer size: 11059200
  Buffer per thread: 2
  We computed 15388287 shell quartets total.
  Whereas there are 17325441 unique shell quartets.

  ==> DiskJK: Disk-Based J/K Matrices <==

    J tasked:                  Yes
    K tasked:                  Yes
    wK tasked:                  No
    Memory [MiB]:              375
    Schwarz Cutoff:          1E-12

    OpenMP threads:              1

  Minimum eigenvalue in the overlap matrix is 1.1795594647E-03.
  Using Symmetric Orthogonalization.

  SCF Guess: Superposition of Atomic Densities via on-the-fly atomic UHF.

  ==> Iterations <==

                        Total Energy        Delta E     RMS |[F,P]|

   @RHF iter SAD:  -420.17641092281622   -4.20176e+02   0.00000e+00
   @RHF iter   1:  -420.89717017244811   -7.20759e-01   2.95867e-03 DIIS
   @RHF iter   2:  -421.12332795793543   -2.26158e-01   1.45944e-03 DIIS
   @RHF iter   3:  -421.17299460690350   -4.96666e-02   3.74070e-04 DIIS
   @RHF iter   4:  -421.17727547476449   -4.28087e-03   1.61181e-04 DIIS
   @RHF iter   5:  -421.17797067475806   -6.95200e-04   2.42888e-05 DIIS
   @RHF iter   6:  -421.17799594236908   -2.52676e-05   9.91215e-06 DIIS
   @RHF iter   7:  -421.17800033032972   -4.38796e-06   3.32268e-06 DIIS
   @RHF iter   8:  -421.17800118420507   -8.53875e-07   1.33746e-06 DIIS
   @RHF iter   9:  -421.17800136250878   -1.78304e-07   5.10596e-07 DIIS
   @RHF iter  10:  -421.17800138135863   -1.88498e-08   1.55566e-07 DIIS
   @RHF iter  11:  -421.17800138383222   -2.47360e-09   6.21420e-08 DIIS
   @RHF iter  12:  -421.17800138410769   -2.75463e-10   2.52853e-08 DIIS
   @RHF iter  13:  -421.17800138414600   -3.83125e-11   9.15447e-09 DIIS
   @RHF iter  14:  -421.17800138415032   -4.32010e-12   3.03588e-09 DIIS
   @RHF iter  15:  -421.17800138415419   -3.86535e-12   1.04670e-09 DIIS
   @RHF iter  16:  -421.17800138415578   -1.59162e-12   3.94800e-10 DIIS
   @RHF iter  17:  -421.17800138415362    2.16005e-12   1.27802e-10 DIIS
   @RHF iter  18:  -421.17800138415407   -4.54747e-13   4.16673e-11 DIIS
  Energy and wave function converged.

  ==> Post-Iterations <==

    Orbital Energies [Eh]
    ---------------------

    Doubly Occupied:

       1A    -15.620596     2A    -15.529916     3A    -11.293223
       4A    -11.253855     5A    -11.245705     6A    -11.226376
       7A    -11.226019     8A    -11.223607     9A    -11.216586
      10A    -11.212384    11A     -1.341074    12A     -1.154717
      13A     -1.079076    14A     -1.029162    15A     -0.940092
      16A     -0.930495    17A     -0.925222    18A     -0.819760
      19A     -0.768123    20A     -0.766704    21A     -0.738108
      22A     -0.634799    23A     -0.609907    24A     -0.602385
      25A     -0.598884    26A     -0.589676    27A     -0.584678
      28A     -0.556795    29A     -0.541953    30A     -0.535451
      31A     -0.534106    32A     -0.520209    33A     -0.510796
      34A     -0.462893    35A     -0.459310    36A     -0.455120
      37A     -0.412025    38A     -0.378582    39A     -0.309735

    Virtual:

      40A      0.154128    41A      0.178774    42A      0.196655
      43A      0.199720    44A      0.204077    45A      0.222317
      46A      0.227512    47A      0.234574    48A      0.244275
      49A      0.253272    50A      0.258853    51A      0.278914
      52A      0.283013    53A      0.298511    54A      0.299053
      55A      0.305332    56A      0.314608    57A      0.319446
      58A      0.358107    59A      0.380468    60A      0.398324
      61A      0.399880    62A      0.417808    63A      0.424086
      64A      0.480509    65A      0.498131    66A      0.559935
      67A      0.574647    68A      0.594938    69A      0.604769
      70A      0.614936    71A      0.622361    72A      0.626685
      73A      0.650392    74A      0.676254    75A      0.704604
      76A      0.735750    77A      0.742123    78A      0.760351
      79A      0.768654    80A      0.781717    81A      0.797340
      82A      0.803627    83A      0.809088    84A      0.825568
      85A      0.835938    86A      0.850267    87A      0.866361
      88A      0.876415    89A      0.882954    90A      0.884469
      91A      0.890834    92A      0.896658    93A      0.899934
      94A      0.905714    95A      0.918709    96A      0.920552
      97A      0.932201    98A      0.943316    99A      0.950883
     100A      0.961053   101A      0.967539   102A      0.977123
     103A      0.982707   104A      1.005324   105A      1.019609
     106A      1.038387   107A      1.088764   108A      1.104924
     109A      1.112493   110A      1.125663   111A      1.131551
     112A      1.138692   113A      1.154391   114A      1.180139
     115A      1.221128   116A      1.273334   117A      1.288993
     118A      1.317387   119A      1.321377   120A      1.331193
     121A      1.360337   122A      1.392683   123A      1.421192
     124A      1.432862   125A      1.451989   126A      1.485672
     127A      1.529827   128A      1.538329   129A      1.558472
     130A      1.566879   131A      1.601007   132A      1.625321
     133A      1.659189   134A      1.676986   135A      1.681650
     136A      1.684327   137A      1.694351   138A      1.696520
     139A      1.697771   140A      1.718746   141A      1.732742
     142A      1.778949   143A      1.806847   144A      1.814206
     145A      1.838815   146A      1.851800   147A      1.860682
     148A      1.866619   149A      1.894293   150A      1.917497
     151A      1.926919   152A      1.934049   153A      1.939330
     154A      1.947790   155A      1.952211   156A      1.964056
     157A      1.973974   158A      1.976826   159A      1.982559
     160A      1.992480   161A      2.000147   162A      2.021142
     163A      2.033044   164A      2.058790   165A      2.075019
     166A      2.089156   167A      2.105217   168A      2.118702
     169A      2.125301   170A      2.138879   171A      2.147948
     172A      2.193860   173A      2.207116   174A      2.223770
     175A      2.253980   176A      2.258054   177A      2.291484
     178A      2.302386   179A      2.309990   180A      2.322996
     181A      2.335190   182A      2.365952   183A      2.374694
     184A      2.376943   185A      2.445207   186A      2.452340
     187A      2.476813   188A      2.505066   189A      2.555237
     190A      2.581099   191A      2.603881   192A      2.608417
     193A      2.623813   194A      2.682382   195A      2.699107
     196A      2.719503   197A      2.730866   198A      2.742898
     199A      2.753888   200A      2.780074   201A      2.784816
     202A      2.792013   203A      2.796913   204A      2.804838
     205A      2.813700   206A      2.831931   207A      2.845860
     208A      2.846768   209A      2.856168   210A      2.888847
     211A      2.923925   212A      2.962070   213A      3.008396
     214A      3.025364   215A      3.084098   216A      3.145525
     217A      3.168050   218A      3.229771   219A      3.468350
     220A      3.803996

    Final Occupation by Irrep:
              A
    DOCC [    39 ]

  @RHF Final Energy:  -421.17800138415407

   => Energetics <=

    Nuclear Repulsion Energy =            521.2373476050846648
    One-Electron Energy =               -1603.1544914946612153
    Two-Electron Energy =                 660.7391425054223646
    Total Energy =                       -421.1780013841540722

Computation Completed

Properties will be evaluated at   0.000000,   0.000000,   0.000000 [a0]

Properties computed using the SCF density matrix

  Nuclear Dipole Moment: [e a0]
     X:     0.1348      Y:     9.4071      Z:    -9.7001

  Electronic Dipole Moment: [e a0]
     X:    -0.9266      Y:    -9.6612      Z:     8.7488

  Dipole Moment: [e a0]
     X:    -0.7918      Y:    -0.2541      Z:    -0.9513     Total:     1.2635

  Dipole Moment: [D]
     X:    -2.0126      Y:    -0.6458      Z:    -2.4180     Total:     3.2115

*** tstop() called on ds3 at Mon Apr 27 12:39:21 2020
Module time:
	user time   =     107.34 seconds =       1.79 minutes
	system time =      49.35 seconds =       0.82 minutes
	total time  =        202 seconds =       3.37 minutes
Total time:
	user time   =     107.34 seconds =       1.79 minutes
	system time =      49.35 seconds =       0.82 minutes
	total time  =        202 seconds =       3.37 minutes
                                     G D M A

                                 by Anthony Stone

                           version 2.2.06, 22 June 2011

               Distributed Multipoles from Gaussian wavefunctions

Starting at 12:39:21 on 27 Apr 2020

Using SCF density matrix from file ./SSI/SSI-036HIE-063LEU-1-dimer.test.3488.fchk

                         Distributed Multipole Analysis

Standard DMA

Positions and radii in angstrom
Multipole moments in atomic units, ea_0^k for rank k

C          x = -0.898147  y = -0.432881  z =  3.598198 angstrom
           Maximum rank =  0   Radius =  0.650 angstrom
                   Q00  =  -0.190334

C          x =  0.736853  y = -1.410881  z =  0.482198 angstrom
           Maximum rank =  0   Radius =  0.650 angstrom
                   Q00  =   0.453281

C          x = -0.545147  y = -0.924881  z =  2.211198 angstrom
           Maximum rank =  0   Radius =  0.650 angstrom
                   Q00  =   0.216616

C          x = -1.355147  y = -1.207881  z =  1.146198 angstrom
           Maximum rank =  0   Radius =  0.650 angstrom
                   Q00  =  -0.020020

N          x =  0.756853  y = -1.066881  z =  1.765198 angstrom
           Maximum rank =  0   Radius =  0.650 angstrom
                   Q00  =  -0.758629

N          x = -0.533147  y = -1.498881  z =  0.083198 angstrom
           Maximum rank =  0   Radius =  0.650 angstrom
                   Q00  =  -0.454749

H          x =  1.647853  y = -1.576881  z = -0.080802 angstrom
           Maximum rank =  0   Radius =  0.325 angstrom
                   Q00  =   0.126292

H          x = -0.849147  y = -1.744881  z = -0.833802 angstrom
           Maximum rank =  0   Radius =  0.325 angstrom
                   Q00  =   0.220526

H          x = -2.433147  y = -1.220881  z =  1.058198 angstrom
           Maximum rank =  0   Radius =  0.325 angstrom
                   Q00  =   0.099801

H          x = -0.284147  y = -0.999881  z =  4.301198 angstrom
           Maximum rank =  0   Radius =  0.325 angstrom
                   Q00  =   0.115300

H          x = -1.942147  y = -0.677881  z =  3.771198 angstrom
           Maximum rank =  0   Radius =  0.325 angstrom
                   Q00  =   0.090920

H          x = -0.823277  y =  0.655529  z =  3.738748 angstrom
           Maximum rank =  0   Radius =  0.325 angstrom
                   Q00  =   0.106964

C          x =  0.280853  y =  1.346119  z = -1.922802 angstrom
           Maximum rank =  0   Radius =  0.650 angstrom
                   Q00  =   0.005670

C          x =  0.688853  y =  0.385119  z = -3.068802 angstrom
           Maximum rank =  0   Radius =  0.650 angstrom
                   Q00  =  -0.262133

C          x =  1.540853  y =  1.975119  z = -1.335802 angstrom
           Maximum rank =  0   Radius =  0.650 angstrom
                   Q00  =  -0.235636

C          x = -0.722147  y =  2.422119  z = -2.398802 angstrom
           Maximum rank =  0   Radius =  0.650 angstrom
                   Q00  =  -0.247419

H          x = -0.230147  y =  0.787119  z = -1.141802 angstrom
           Maximum rank =  0   Radius =  0.325 angstrom
                   Q00  =   0.022749

H          x =  1.276853  y = -0.437881  z = -2.660802 angstrom
           Maximum rank =  0   Radius =  0.325 angstrom
                   Q00  =   0.068894

H          x =  1.301853  y =  0.928119  z = -3.791802 angstrom
           Maximum rank =  0   Radius =  0.325 angstrom
                   Q00  =   0.085459

H          x =  2.064853  y =  2.534119  z = -2.110802 angstrom
           Maximum rank =  0   Radius =  0.325 angstrom
                   Q00  =   0.071430

H          x =  1.269853  y =  2.648119  z = -0.523802 angstrom
           Maximum rank =  0   Radius =  0.325 angstrom
                   Q00  =   0.087410

H          x =  2.195853  y =  1.192119  z = -0.949802 angstrom
           Maximum rank =  0   Radius =  0.325 angstrom
                   Q00  =   0.083229

H          x = -1.629147  y =  1.943119  z = -2.771802 angstrom
           Maximum rank =  0   Radius =  0.325 angstrom
                   Q00  =   0.078916

H          x = -0.990147  y =  3.075119  z = -1.565802 angstrom
           Maximum rank =  0   Radius =  0.325 angstrom
                   Q00  =   0.085383

H          x = -0.277147  y =  3.019119  z = -3.194802 angstrom
           Maximum rank =  0   Radius =  0.325 angstrom
                   Q00  =   0.074905

H          x = -0.154187  y = -0.097531  z = -3.584862 angstrom
           Maximum rank =  0   Radius =  0.325 angstrom
                   Q00  =   0.075173

Total multipoles referred to origin at
           x =   0.000000,  y =    0.000000,  z =    0.000000 angstrom
                   Q00  =  -0.000000

Finished at 12:39:21 on 27 Apr 2020

  DMA results are available in the Python driver through the
	  variable('DMA DISTRIBUTED MULTIPOLES')
  and
	  variable('DMA TOTAL MULTIPOLES')
  commands.

    Psi4 stopped on: Monday, 27 April 2020 12:39PM
    Psi4 wall time for execution: 0:03:21.61

*** Psi4 exiting successfully. Buy a developer a beer!
