                               Psi4 1.3.2 release

  ==> Input File <==

--------------------------------------------------------------------------
import numpy as np
set {scf_type pk
basis cc-pvdz
d_convergence 10
gdma_switch   0
gdma_limit    0
gdma_origin   [ 0.0,  0.0,  0.0 ]
}
molecule test {
    units Angstrom
    0 1
    --
    0 1
    C                2.674334200010609     0.416184065117929    -0.888628347039731
    C               -0.502665799989391    -0.967815934882071     0.673371652960269
    C               -0.785665799989390    -2.039815934882071    -0.174628347039731
    C                0.613334200010610    -0.159815934882071     0.431371652960269
    C                1.452334200010609    -0.419815934882071    -0.653628347039731
    C                0.048334200010610    -2.300815934882070    -1.262628347039731
    C                1.162334200010610    -1.490815934882071    -1.496628347039731
    H               -1.150665799989391    -0.758815934882071     1.514371652960269
    H               -1.650665799989391    -2.661815934882071     0.009371652960269
    H                0.826334200010610     0.665184065117929     1.092371652960269
    H               -0.160665799989390    -3.136815934882071    -1.916628347039731
    H                3.403334200010610    -0.135815934882071    -1.478628347039731
    H                3.104334200010609     0.619184065117929     0.079371652960269
    H                1.824334200010610    -1.717815934882071    -2.313628347039732
    H                2.484164200010609     1.402314065117929    -1.337388347039731
    C               -2.398665799989390     2.262184065117929     1.614371652960269
    C               -1.903665799989390     3.684184065117929     1.369371652960269
    H               -2.039665799989391     1.877184065117929     2.567371652960269
    H               -3.488665799989390     2.253184065117929     1.642371652960269
    H               -2.063665799989391     1.608184065117929     0.808371652960269
    H               -2.206665799989391     4.308184065117929     2.212371652960269
    H               -0.807125799989390     3.692794065117929     1.282591652960269
    H               -2.361265799989391     4.086294065117929     0.453451652960269

}
e, wfn = energy('scf', return_wfn=True)
gdma(wfn)
dmavals = variable('DMA DISTRIBUTED MULTIPOLES')
charges = np.array(dmavals)
print(charges)
np.save('SSI-087PHE-188VAL-1-dimer.npy', np.array(charges))--------------------------------------------------------------------------

*** tstart() called on ds3
*** at Mon Apr 27 07:29:12 2020

   => Loading Basis Set <=

    Name: CC-PVDZ
    Role: ORBITAL
    Keyword: BASIS
    atoms 1-7, 16-17  entry C          line   138 file /theoryfs2/ds/metcalf/miniconda2/envs/tf2gpu/share/psi4/basis/cc-pvdz.gbs
    atoms 8-15, 18-23 entry H          line    22 file /theoryfs2/ds/metcalf/miniconda2/envs/tf2gpu/share/psi4/basis/cc-pvdz.gbs

         ---------------------------------------------------------
                                   SCF
               by Justin Turney, Rob Parrish, Andy Simmonett
                          and Daniel G. A. Smith
                              RHF Reference
                        1 Threads,    500 MiB Core
         ---------------------------------------------------------

  ==> Geometry <==

    Molecular point group: c1
    Full point group: C1

    Geometry (in Angstrom), charge = 0, multiplicity = 1:

       Center              X                  Y                   Z               Mass
    ------------   -----------------  -----------------  -----------------  -----------------
         C            2.674334200011     0.416184065118    -0.888628347040    12.000000000000
         C           -0.502665799989    -0.967815934882     0.673371652960    12.000000000000
         C           -0.785665799989    -2.039815934882    -0.174628347040    12.000000000000
         C            0.613334200011    -0.159815934882     0.431371652960    12.000000000000
         C            1.452334200011    -0.419815934882    -0.653628347040    12.000000000000
         C            0.048334200011    -2.300815934882    -1.262628347040    12.000000000000
         C            1.162334200011    -1.490815934882    -1.496628347040    12.000000000000
         H           -1.150665799989    -0.758815934882     1.514371652960     1.007825032230
         H           -1.650665799989    -2.661815934882     0.009371652960     1.007825032230
         H            0.826334200011     0.665184065118     1.092371652960     1.007825032230
         H           -0.160665799989    -3.136815934882    -1.916628347040     1.007825032230
         H            3.403334200011    -0.135815934882    -1.478628347040     1.007825032230
         H            3.104334200011     0.619184065118     0.079371652960     1.007825032230
         H            1.824334200011    -1.717815934882    -2.313628347040     1.007825032230
         H            2.484164200011     1.402314065118    -1.337388347040     1.007825032230
         C           -2.398665799989     2.262184065118     1.614371652960    12.000000000000
         C           -1.903665799989     3.684184065118     1.369371652960    12.000000000000
         H           -2.039665799989     1.877184065118     2.567371652960     1.007825032230
         H           -3.488665799989     2.253184065118     1.642371652960     1.007825032230
         H           -2.063665799989     1.608184065118     0.808371652960     1.007825032230
         H           -2.206665799989     4.308184065118     2.212371652960     1.007825032230
         H           -0.807125799989     3.692794065118     1.282591652960     1.007825032230
         H           -2.361265799989     4.086294065118     0.453451652960     1.007825032230

  Running in c1 symmetry.

  Rotational constants: A =      0.06950  B =      0.02312  C =      0.01845 [cm^-1]
  Rotational constants: A =   2083.66295  B =    693.16365  C =    553.23171 [MHz]
  Nuclear repulsion =  400.736552237973115

  Charge       = 0
  Multiplicity = 1
  Electrons    = 68
  Nalpha       = 34
  Nbeta        = 34

  ==> Algorithm <==

  SCF Algorithm Type is PK.
  DIIS enabled.
  MOM disabled.
  Fractional occupation disabled.
  Guess Type is SAD.
  Energy threshold   = 1.00e-06
  Density threshold  = 1.00e-10
  Integral threshold = 0.00e+00

  ==> Primary Basis <==

  Basis Set: CC-PVDZ
    Blend: CC-PVDZ
    Number of shells: 96
    Number of basis function: 196
    Number of Cartesian functions: 205
    Spherical Harmonics?: true
    Max angular momentum: 2

  ==> Pre-Iterations <==

   -------------------------------------------------------
    Irrep   Nso     Nmo     Nalpha   Nbeta   Ndocc  Nsocc
   -------------------------------------------------------
     A        196     196       0       0       0       0
   -------------------------------------------------------
    Total     196     196      34      34      34       0
   -------------------------------------------------------

  ==> Integral Setup <==

  Using integral reordering PK algorithm.
  Sizing the integral batches needed.
  Building batch lookup table.
   Calculation information:
      Number of atoms:                  23
      Number of AO shells:              96
      Number of primitives:            268
      Number of atomic orbitals:       205
      Number of basis functions:       196

      Integral cutoff                 1.00e-12
      Number of threads:                 1

	Batch   1 pq = [       0,    9405] index = [             0,44231715] size =     44231715
	Batch   2 pq = [    9405,   13301] index = [      44231715,88464951] size =     44233236
	Batch   3 pq = [   13301,   16290] index = [      88464951,132690195] size =     44225244
	Batch   4 pq = [   16290,   18810] index = [     132690195,176917455] size =     44227260
	Batch   5 pq = [   18810,   19306] index = [     176917455,186370471] size =      9453016
  Task number: 17
  Buffer size: 11059200
  Buffer per thread: 2
  We computed 8930089 shell quartets total.
  Whereas there are 10841496 unique shell quartets.

  ==> DiskJK: Disk-Based J/K Matrices <==

    J tasked:                  Yes
    K tasked:                  Yes
    wK tasked:                  No
    Memory [MiB]:              375
    Schwarz Cutoff:          1E-12

    OpenMP threads:              1

  Minimum eigenvalue in the overlap matrix is 3.1675221068E-04.
  Using Symmetric Orthogonalization.

  SCF Guess: Superposition of Atomic Densities via on-the-fly atomic UHF.

  ==> Iterations <==

                        Total Energy        Delta E     RMS |[F,P]|

   @RHF iter SAD:  -347.84707814903112   -3.47847e+02   0.00000e+00
   @RHF iter   1:  -348.76807548636515   -9.20997e-01   2.89095e-03 DIIS
   @RHF iter   2:  -348.96020087509595   -1.92125e-01   1.19882e-03 DIIS
   @RHF iter   3:  -348.99029616251369   -3.00953e-02   2.59617e-04 DIIS
   @RHF iter   4:  -348.99277313735058   -2.47697e-03   5.79785e-05 DIIS
   @RHF iter   5:  -348.99285755543508   -8.44181e-05   1.96959e-05 DIIS
   @RHF iter   6:  -348.99286698715940   -9.43172e-06   4.96840e-06 DIIS
   @RHF iter   7:  -348.99286769757481   -7.10415e-07   1.18700e-06 DIIS
   @RHF iter   8:  -348.99286774302055   -4.54457e-08   2.78716e-07 DIIS
   @RHF iter   9:  -348.99286774689187   -3.87132e-09   1.01730e-07 DIIS
   @RHF iter  10:  -348.99286774749885   -6.06974e-10   4.29716e-08 DIIS
   @RHF iter  11:  -348.99286774767478   -1.75930e-10   1.58936e-08 DIIS
   @RHF iter  12:  -348.99286774770803   -3.32534e-11   8.23565e-09 DIIS
   @RHF iter  13:  -348.99286774771736   -9.32232e-12   3.50491e-09 DIIS
   @RHF iter  14:  -348.99286774771605    1.30740e-12   1.00432e-09 DIIS
   @RHF iter  15:  -348.99286774771861   -2.55795e-12   3.02428e-10 DIIS
   @RHF iter  16:  -348.99286774771667    1.93268e-12   6.40731e-11 DIIS
  Energy and wave function converged.

  ==> Post-Iterations <==

    Orbital Energies [Eh]
    ---------------------

    Doubly Occupied:

       1A    -11.240522     2A    -11.236756     3A    -11.236505
       4A    -11.232026     5A    -11.231267     6A    -11.230100
       7A    -11.227260     8A    -11.218916     9A    -11.214658
      10A     -1.150829    11A     -1.044782    12A     -1.018081
      13A     -1.009829    14A     -0.931808    15A     -0.835439
      16A     -0.825114    17A     -0.794673    18A     -0.690435
      19A     -0.631644    20A     -0.630935    21A     -0.598458
      22A     -0.596865    23A     -0.581458    24A     -0.574562
      25A     -0.562234    26A     -0.538649    27A     -0.500299
      28A     -0.488071    29A     -0.485558    30A     -0.483949
      31A     -0.482905    32A     -0.479861    33A     -0.330614
      34A     -0.321286

    Virtual:

      35A      0.133899    36A      0.139832    37A      0.169027
      38A      0.195800    39A      0.200275    40A      0.218216
      41A      0.233454    42A      0.240381    43A      0.256926
      44A      0.259010    45A      0.265629    46A      0.277454
      47A      0.285235    48A      0.291320    49A      0.304194
      50A      0.317539    51A      0.365231    52A      0.376800
      53A      0.398815    54A      0.451507    55A      0.459906
      56A      0.479782    57A      0.493708    58A      0.562104
      59A      0.588982    60A      0.599661    61A      0.612880
      62A      0.618569    63A      0.628760    64A      0.671099
      65A      0.681663    66A      0.685799    67A      0.698481
      68A      0.708398    69A      0.718491    70A      0.740678
      71A      0.743251    72A      0.748640    73A      0.759670
      74A      0.773584    75A      0.782792    76A      0.806220
      77A      0.834325    78A      0.841482    79A      0.864285
      80A      0.868277    81A      0.877674    82A      0.885064
      83A      0.889777    84A      0.895461    85A      0.898903
      86A      0.901805    87A      0.912303    88A      0.917023
      89A      0.927269    90A      0.932223    91A      0.948973
      92A      0.953630    93A      0.989786    94A      0.992802
      95A      1.027141    96A      1.049945    97A      1.119155
      98A      1.127352    99A      1.133578   100A      1.149762
     101A      1.156329   102A      1.157213   103A      1.191498
     104A      1.230698   105A      1.241409   106A      1.248288
     107A      1.251797   108A      1.269571   109A      1.298811
     110A      1.302081   111A      1.314732   112A      1.332328
     113A      1.413053   114A      1.476510   115A      1.481132
     116A      1.508695   117A      1.518733   118A      1.549037
     119A      1.577734   120A      1.602882   121A      1.678875
     122A      1.684690   123A      1.695740   124A      1.700893
     125A      1.733825   126A      1.749054   127A      1.760210
     128A      1.789540   129A      1.808512   130A      1.853317
     131A      1.860497   132A      1.869397   133A      1.892509
     134A      1.898801   135A      1.901155   136A      1.910847
     137A      1.918088   138A      1.927587   139A      1.943308
     140A      1.945930   141A      1.947081   142A      1.950524
     143A      1.960382   144A      1.963802   145A      1.970725
     146A      1.979930   147A      1.988982   148A      2.012621
     149A      2.036288   150A      2.047778   151A      2.068943
     152A      2.101594   153A      2.110182   154A      2.118148
     155A      2.145181   156A      2.154261   157A      2.161702
     158A      2.173460   159A      2.183336   160A      2.245218
     161A      2.273514   162A      2.291068   163A      2.298091
     164A      2.301755   165A      2.318563   166A      2.323440
     167A      2.344037   168A      2.454967   169A      2.461121
     170A      2.468721   171A      2.480849   172A      2.509582
     173A      2.545924   174A      2.561036   175A      2.575980
     176A      2.619513   177A      2.735579   178A      2.750262
     179A      2.761633   180A      2.777793   181A      2.783706
     182A      2.793745   183A      2.816192   184A      2.851778
     185A      2.854592   186A      2.859677   187A      2.877548
     188A      2.951386   189A      2.964622   190A      2.976283
     191A      3.012213   192A      3.023679   193A      3.161385
     194A      3.196931   195A      3.295428   196A      3.958247

    Final Occupation by Irrep:
              A
    DOCC [    34 ]

  @RHF Final Energy:  -348.99286774771667

   => Energetics <=

    Nuclear Repulsion Energy =            400.7365522379731146
    One-Electron Energy =               -1264.1461470277536137
    Two-Electron Energy =                 514.4167270420638260
    Total Energy =                       -348.9928677477166730

Computation Completed

Properties will be evaluated at   0.000000,   0.000000,   0.000000 [a0]

Properties computed using the SCF density matrix

  Nuclear Dipole Moment: [e a0]
     X:    -4.0185      Y:    11.3447      Z:     4.3271

  Electronic Dipole Moment: [e a0]
     X:     4.1262      Y:   -11.3032      Z:    -4.3436

  Dipole Moment: [e a0]
     X:     0.1077      Y:     0.0416      Z:    -0.0165     Total:     0.1166

  Dipole Moment: [D]
     X:     0.2738      Y:     0.1056      Z:    -0.0418     Total:     0.2964

*** tstop() called on ds3 at Mon Apr 27 07:30:42 2020
Module time:
	user time   =      65.40 seconds =       1.09 minutes
	system time =      28.50 seconds =       0.47 minutes
	total time  =         90 seconds =       1.50 minutes
Total time:
	user time   =      65.40 seconds =       1.09 minutes
	system time =      28.50 seconds =       0.47 minutes
	total time  =         90 seconds =       1.50 minutes
                                     G D M A

                                 by Anthony Stone

                           version 2.2.06, 22 June 2011

               Distributed Multipoles from Gaussian wavefunctions

Starting at 7:30:42 on 27 Apr 2020

Using SCF density matrix from file ./SSI/SSI-087PHE-188VAL-1-dimer.test.15244.fchk

                         Distributed Multipole Analysis

Standard DMA

Positions and radii in angstrom
Multipole moments in atomic units, ea_0^k for rank k

C          x =  2.674334  y =  0.416184  z = -0.888628 angstrom
           Maximum rank =  0   Radius =  0.650 angstrom
                   Q00  =  -0.199101

C          x = -0.502666  y = -0.967816  z =  0.673372 angstrom
           Maximum rank =  0   Radius =  0.650 angstrom
                   Q00  =  -0.079355

C          x = -0.785666  y = -2.039816  z = -0.174628 angstrom
           Maximum rank =  0   Radius =  0.650 angstrom
                   Q00  =  -0.081214

C          x =  0.613334  y = -0.159816  z =  0.431372 angstrom
           Maximum rank =  0   Radius =  0.650 angstrom
                   Q00  =  -0.064664

C          x =  1.452334  y = -0.419816  z = -0.653628 angstrom
           Maximum rank =  0   Radius =  0.650 angstrom
                   Q00  =  -0.097763

C          x =  0.048334  y = -2.300816  z = -1.262628 angstrom
           Maximum rank =  0   Radius =  0.650 angstrom
                   Q00  =  -0.077578

C          x =  1.162334  y = -1.490816  z = -1.496628 angstrom
           Maximum rank =  0   Radius =  0.650 angstrom
                   Q00  =  -0.013584

H          x = -1.150666  y = -0.758816  z =  1.514372 angstrom
           Maximum rank =  0   Radius =  0.325 angstrom
                   Q00  =   0.068536

H          x = -1.650666  y = -2.661816  z =  0.009372 angstrom
           Maximum rank =  0   Radius =  0.325 angstrom
                   Q00  =   0.062480

H          x =  0.826334  y =  0.665184  z =  1.092372 angstrom
           Maximum rank =  0   Radius =  0.325 angstrom
                   Q00  =   0.057345

H          x = -0.160666  y = -3.136816  z = -1.916628 angstrom
           Maximum rank =  0   Radius =  0.325 angstrom
                   Q00  =   0.066133

H          x =  3.403334  y = -0.135816  z = -1.478628 angstrom
           Maximum rank =  0   Radius =  0.325 angstrom
                   Q00  =   0.099746

H          x =  3.104334  y =  0.619184  z =  0.079372 angstrom
           Maximum rank =  0   Radius =  0.325 angstrom
                   Q00  =   0.097476

H          x =  1.824334  y = -1.717816  z = -2.313628 angstrom
           Maximum rank =  0   Radius =  0.325 angstrom
                   Q00  =   0.057958

H          x =  2.484164  y =  1.402314  z = -1.337388 angstrom
           Maximum rank =  0   Radius =  0.325 angstrom
                   Q00  =   0.103684

C          x = -2.398666  y =  2.262184  z =  1.614372 angstrom
           Maximum rank =  0   Radius =  0.650 angstrom
                   Q00  =  -0.247642

C          x = -1.903666  y =  3.684184  z =  1.369372 angstrom
           Maximum rank =  0   Radius =  0.650 angstrom
                   Q00  =  -0.226378

H          x = -2.039666  y =  1.877184  z =  2.567372 angstrom
           Maximum rank =  0   Radius =  0.325 angstrom
                   Q00  =   0.074112

H          x = -3.488666  y =  2.253184  z =  1.642372 angstrom
           Maximum rank =  0   Radius =  0.325 angstrom
                   Q00  =   0.077813

H          x = -2.063666  y =  1.608184  z =  0.808372 angstrom
           Maximum rank =  0   Radius =  0.325 angstrom
                   Q00  =   0.088174

H          x = -2.206666  y =  4.308184  z =  2.212372 angstrom
           Maximum rank =  0   Radius =  0.325 angstrom
                   Q00  =   0.076678

H          x = -0.807126  y =  3.692794  z =  1.282592 angstrom
           Maximum rank =  0   Radius =  0.325 angstrom
                   Q00  =   0.076514

H          x = -2.361266  y =  4.086294  z =  0.453452 angstrom
           Maximum rank =  0   Radius =  0.325 angstrom
                   Q00  =   0.080631

Total multipoles referred to origin at
           x =   0.000000,  y =    0.000000,  z =    0.000000 angstrom
                   Q00  =  -0.000000

Finished at 7:30:42 on 27 Apr 2020

  DMA results are available in the Python driver through the
	  variable('DMA DISTRIBUTED MULTIPOLES')
  and
	  variable('DMA TOTAL MULTIPOLES')
  commands.

    Psi4 stopped on: Monday, 27 April 2020 07:30AM
    Psi4 wall time for execution: 0:01:29.72

*** Psi4 exiting successfully. Buy a developer a beer!
