                               Psi4 1.3.2 release

  ==> Input File <==

--------------------------------------------------------------------------
import numpy as np
set {scf_type pk
basis cc-pvdz
d_convergence 10
gdma_switch   0
gdma_limit    0
gdma_origin   [ 0.0,  0.0,  0.0 ]
}
molecule test {
    units Angstrom
    0 1
    --
    0 1
    C               -0.082330866779103    -3.680817334488393    -0.793042323229355
    C               -1.538330866779102    -3.856817334488393    -1.064042323229355
    H                0.369669133220897    -3.045817334488393    -1.556042323229355
    H                0.055669133220897    -3.231817334488393     0.190957676770645
    H                0.428669133220897    -4.643817334488394    -0.779042323229355
    H               -1.937330866779102    -4.571817334488393    -0.344042323229355
    H               -1.706917866779103    -4.239904334488394    -2.081304323229355
    H               -2.057714866779103    -2.900019334488393    -0.906631323229355
    C               -1.196330866779102     1.892182665511607     2.158957676770645
    C                0.821669133220897    -0.229817334488393    -0.275042323229355
    C                1.379669133220897     0.736182665511607    -1.088042323229355
    C               -0.029330866779103     0.131182665511607     0.762957676770645
    C               -0.323330866779103     1.477182665511607     1.000957676770645
    C                1.111669133220897     2.072182665511607    -0.866042323229355
    C                0.254669133220897     2.446182665511607     0.174957676770645
    H                1.083669133220897    -1.261817334488393    -0.429042323229355
    H                2.042669133220897     0.453182665511607    -1.893042323229355
    H               -0.446330866779103    -0.633817334488393     1.402957676770645
    H                1.557669133220897     2.829182665511607    -1.495042323229355
    H               -0.695330866779103     2.703182665511607     2.687957676770645
    H               -1.292330866779103     1.059182665511607     2.854957676770645
    H                0.056669133220897     3.491182665511607     0.350957676770645
    H               -2.197909866779102     2.233206565511607     1.858054676770645

}
e, wfn = energy('scf', return_wfn=True)
gdma(wfn)
dmavals = variable('DMA DISTRIBUTED MULTIPOLES')
charges = np.array(dmavals)
print(charges)
np.save('SSI-002VAL-042PHE-2-dimer.npy', np.array(charges))--------------------------------------------------------------------------

*** tstart() called on ds3
*** at Sun Apr 26 20:42:33 2020

   => Loading Basis Set <=

    Name: CC-PVDZ
    Role: ORBITAL
    Keyword: BASIS
    atoms 1-2, 9-15  entry C          line   138 file /theoryfs2/ds/metcalf/miniconda2/envs/tf2gpu/share/psi4/basis/cc-pvdz.gbs
    atoms 3-8, 16-23 entry H          line    22 file /theoryfs2/ds/metcalf/miniconda2/envs/tf2gpu/share/psi4/basis/cc-pvdz.gbs

         ---------------------------------------------------------
                                   SCF
               by Justin Turney, Rob Parrish, Andy Simmonett
                          and Daniel G. A. Smith
                              RHF Reference
                        1 Threads,    500 MiB Core
         ---------------------------------------------------------

  ==> Geometry <==

    Molecular point group: c1
    Full point group: C1

    Geometry (in Angstrom), charge = 0, multiplicity = 1:

       Center              X                  Y                   Z               Mass
    ------------   -----------------  -----------------  -----------------  -----------------
         C           -0.082330866779    -3.680817334488    -0.793042323229    12.000000000000
         C           -1.538330866779    -3.856817334488    -1.064042323229    12.000000000000
         H            0.369669133221    -3.045817334488    -1.556042323229     1.007825032230
         H            0.055669133221    -3.231817334488     0.190957676771     1.007825032230
         H            0.428669133221    -4.643817334488    -0.779042323229     1.007825032230
         H           -1.937330866779    -4.571817334488    -0.344042323229     1.007825032230
         H           -1.706917866779    -4.239904334488    -2.081304323229     1.007825032230
         H           -2.057714866779    -2.900019334488    -0.906631323229     1.007825032230
         C           -1.196330866779     1.892182665512     2.158957676771    12.000000000000
         C            0.821669133221    -0.229817334488    -0.275042323229    12.000000000000
         C            1.379669133221     0.736182665512    -1.088042323229    12.000000000000
         C           -0.029330866779     0.131182665512     0.762957676771    12.000000000000
         C           -0.323330866779     1.477182665512     1.000957676771    12.000000000000
         C            1.111669133221     2.072182665512    -0.866042323229    12.000000000000
         C            0.254669133221     2.446182665512     0.174957676771    12.000000000000
         H            1.083669133221    -1.261817334488    -0.429042323229     1.007825032230
         H            2.042669133221     0.453182665512    -1.893042323229     1.007825032230
         H           -0.446330866779    -0.633817334488     1.402957676771     1.007825032230
         H            1.557669133221     2.829182665512    -1.495042323229     1.007825032230
         H           -0.695330866779     2.703182665512     2.687957676771     1.007825032230
         H           -1.292330866779     1.059182665512     2.854957676771     1.007825032230
         H            0.056669133221     3.491182665512     0.350957676771     1.007825032230
         H           -2.197909866779     2.233206565512     1.858054676771     1.007825032230

  Running in c1 symmetry.

  Rotational constants: A =      0.07682  B =      0.02250  C =      0.01841 [cm^-1]
  Rotational constants: A =   2303.13747  B =    674.51458  C =    551.87439 [MHz]
  Nuclear repulsion =  402.651517610133226

  Charge       = 0
  Multiplicity = 1
  Electrons    = 68
  Nalpha       = 34
  Nbeta        = 34

  ==> Algorithm <==

  SCF Algorithm Type is PK.
  DIIS enabled.
  MOM disabled.
  Fractional occupation disabled.
  Guess Type is SAD.
  Energy threshold   = 1.00e-06
  Density threshold  = 1.00e-10
  Integral threshold = 0.00e+00

  ==> Primary Basis <==

  Basis Set: CC-PVDZ
    Blend: CC-PVDZ
    Number of shells: 96
    Number of basis function: 196
    Number of Cartesian functions: 205
    Spherical Harmonics?: true
    Max angular momentum: 2

  ==> Pre-Iterations <==

   -------------------------------------------------------
    Irrep   Nso     Nmo     Nalpha   Nbeta   Ndocc  Nsocc
   -------------------------------------------------------
     A        196     196       0       0       0       0
   -------------------------------------------------------
    Total     196     196      34      34      34       0
   -------------------------------------------------------

  ==> Integral Setup <==

  Using integral reordering PK algorithm.
  Sizing the integral batches needed.
  Building batch lookup table.
   Calculation information:
      Number of atoms:                  23
      Number of AO shells:              96
      Number of primitives:            268
      Number of atomic orbitals:       205
      Number of basis functions:       196

      Integral cutoff                 1.00e-12
      Number of threads:                 1

	Batch   1 pq = [       0,    9405] index = [             0,44231715] size =     44231715
	Batch   2 pq = [    9405,   13301] index = [      44231715,88464951] size =     44233236
	Batch   3 pq = [   13301,   16290] index = [      88464951,132690195] size =     44225244
	Batch   4 pq = [   16290,   18810] index = [     132690195,176917455] size =     44227260
	Batch   5 pq = [   18810,   19306] index = [     176917455,186370471] size =      9453016
  Task number: 17
  Buffer size: 11059200
  Buffer per thread: 2
  We computed 8849713 shell quartets total.
  Whereas there are 10841496 unique shell quartets.

  ==> DiskJK: Disk-Based J/K Matrices <==

    J tasked:                  Yes
    K tasked:                  Yes
    wK tasked:                  No
    Memory [MiB]:              375
    Schwarz Cutoff:          1E-12

    OpenMP threads:              1

  Minimum eigenvalue in the overlap matrix is 3.0252178396E-04.
  Using Symmetric Orthogonalization.

  SCF Guess: Superposition of Atomic Densities via on-the-fly atomic UHF.

  ==> Iterations <==

                        Total Energy        Delta E     RMS |[F,P]|

   @RHF iter SAD:  -347.96238379015290   -3.47962e+02   0.00000e+00
   @RHF iter   1:  -348.76063617816578   -7.98252e-01   2.93061e-03 DIIS
   @RHF iter   2:  -348.95681757200913   -1.96181e-01   1.22359e-03 DIIS
   @RHF iter   3:  -348.98802905896355   -3.12115e-02   2.59971e-04 DIIS
   @RHF iter   4:  -348.99056353901830   -2.53448e-03   4.79738e-05 DIIS
   @RHF iter   5:  -348.99062797902320   -6.44400e-05   1.53383e-05 DIIS
   @RHF iter   6:  -348.99063400257637   -6.02355e-06   4.07799e-06 DIIS
   @RHF iter   7:  -348.99063446998105   -4.67405e-07   1.31060e-06 DIIS
   @RHF iter   8:  -348.99063451625784   -4.62768e-08   2.59100e-07 DIIS
   @RHF iter   9:  -348.99063451939514   -3.13730e-09   9.54228e-08 DIIS
   @RHF iter  10:  -348.99063451980504   -4.09898e-10   3.63090e-08 DIIS
   @RHF iter  11:  -348.99063451989826   -9.32232e-11   1.32678e-08 DIIS
   @RHF iter  12:  -348.99063451991748   -1.92131e-11   7.17062e-09 DIIS
   @RHF iter  13:  -348.99063451992026   -2.78533e-12   3.27200e-09 DIIS
   @RHF iter  14:  -348.99063451992293   -2.67164e-12   9.94632e-10 DIIS
   @RHF iter  15:  -348.99063451992311   -1.70530e-13   3.04584e-10 DIIS
   @RHF iter  16:  -348.99063451992265    4.54747e-13   8.54158e-11 DIIS
  Energy and wave function converged.

  ==> Post-Iterations <==

    Orbital Energies [Eh]
    ---------------------

    Doubly Occupied:

       1A    -11.241072     2A    -11.233734     3A    -11.230711
       4A    -11.229887     5A    -11.229528     6A    -11.229367
       7A    -11.226757     8A    -11.216968     9A    -11.215783
      10A     -1.151995    11A     -1.044452    12A     -1.029466
      13A     -1.009901    14A     -0.931010    15A     -0.835581
      16A     -0.824509    17A     -0.793426    18A     -0.691066
      19A     -0.630650    20A     -0.630350    21A     -0.605367
      22A     -0.603280    23A     -0.580039    24A     -0.575639
      25A     -0.561440    26A     -0.535856    27A     -0.509961
      28A     -0.487762    29A     -0.486746    30A     -0.484852
      31A     -0.481371    32A     -0.474557    33A     -0.330384
      34A     -0.321897

    Virtual:

      35A      0.135754    36A      0.143002    37A      0.172809
      38A      0.195203    39A      0.203379    40A      0.221103
      41A      0.227607    42A      0.242066    43A      0.255467
      44A      0.259996    45A      0.266171    46A      0.276429
      47A      0.282388    48A      0.288355    49A      0.319229
      50A      0.331107    51A      0.368880    52A      0.386342
      53A      0.408015    54A      0.460256    55A      0.466750
      56A      0.481283    57A      0.502055    58A      0.562652
      59A      0.590514    60A      0.603464    61A      0.608365
      62A      0.616803    63A      0.634805    64A      0.672936
      65A      0.683652    66A      0.691110    67A      0.695428
      68A      0.710476    69A      0.728803    70A      0.743058
      71A      0.748555    72A      0.752549    73A      0.760771
      74A      0.773407    75A      0.788011    76A      0.796566
      77A      0.830681    78A      0.852103    79A      0.859229
      80A      0.870727    81A      0.878560    82A      0.882233
      83A      0.890188    84A      0.895615    85A      0.900597
      86A      0.911200    87A      0.914826    88A      0.926088
      89A      0.934057    90A      0.939554    91A      0.945723
      92A      0.957768    93A      0.979544    94A      0.998507
      95A      1.032389    96A      1.051724    97A      1.117983
      98A      1.129195    99A      1.133960   100A      1.153467
     101A      1.155932   102A      1.190005   103A      1.202749
     104A      1.236554   105A      1.244859   106A      1.260515
     107A      1.262888   108A      1.274971   109A      1.308672
     110A      1.310001   111A      1.324710   112A      1.336094
     113A      1.418395   114A      1.482467   115A      1.496863
     116A      1.506943   117A      1.525256   118A      1.548671
     119A      1.595326   120A      1.606563   121A      1.676869
     122A      1.681740   123A      1.689567   124A      1.703103
     125A      1.739198   126A      1.750757   127A      1.762964
     128A      1.791001   129A      1.812372   130A      1.849730
     131A      1.860922   132A      1.876332   133A      1.894721
     134A      1.895319   135A      1.908201   136A      1.915555
     137A      1.929458   138A      1.932934   139A      1.945443
     140A      1.950942   141A      1.955566   142A      1.960535
     143A      1.961715   144A      1.969779   145A      1.976349
     146A      1.989129   147A      2.000671   148A      2.021746
     149A      2.039969   150A      2.052067   151A      2.074185
     152A      2.104073   153A      2.117033   154A      2.124659
     155A      2.139917   156A      2.172427   157A      2.174911
     158A      2.184150   159A      2.205518   160A      2.247094
     161A      2.277509   162A      2.298709   163A      2.302974
     164A      2.310048   165A      2.327684   166A      2.330481
     167A      2.346178   168A      2.455222   169A      2.455739
     170A      2.476787   171A      2.482625   172A      2.516107
     173A      2.540312   174A      2.568104   175A      2.585861
     176A      2.630122   177A      2.744844   178A      2.754185
     179A      2.761006   180A      2.772501   181A      2.791683
     182A      2.795770   183A      2.826872   184A      2.850165
     185A      2.856847   186A      2.867786   187A      2.873954
     188A      2.964131   189A      2.971835   190A      2.987234
     191A      3.016459   192A      3.037296   193A      3.162459
     194A      3.206513   195A      3.308907   196A      3.978378

    Final Occupation by Irrep:
              A
    DOCC [    34 ]

  @RHF Final Energy:  -348.99063451992265

   => Energetics <=

    Nuclear Repulsion Energy =            402.6515176101332258
    One-Electron Energy =               -1267.9535741715976656
    Two-Electron Energy =                 516.3114220415418458
    Total Energy =                       -348.9906345199226507

Computation Completed

Properties will be evaluated at   0.000000,   0.000000,   0.000000 [a0]

Properties computed using the SCF density matrix

  Nuclear Dipole Moment: [e a0]
     X:    -4.4428      Y:   -11.0244      Z:    -0.1297

  Electronic Dipole Moment: [e a0]
     X:     4.3916      Y:    11.0467      Z:     0.2346

  Dipole Moment: [e a0]
     X:    -0.0512      Y:     0.0223      Z:     0.1049     Total:     0.1189

  Dipole Moment: [D]
     X:    -0.1302      Y:     0.0567      Z:     0.2667     Total:     0.3021

*** tstop() called on ds3 at Sun Apr 26 20:44:21 2020
Module time:
	user time   =      68.60 seconds =       1.14 minutes
	system time =      30.23 seconds =       0.50 minutes
	total time  =        108 seconds =       1.80 minutes
Total time:
	user time   =      68.60 seconds =       1.14 minutes
	system time =      30.23 seconds =       0.50 minutes
	total time  =        108 seconds =       1.80 minutes
                                     G D M A

                                 by Anthony Stone

                           version 2.2.06, 22 June 2011

               Distributed Multipoles from Gaussian wavefunctions

Starting at 20:44:21 on 26 Apr 2020

Using SCF density matrix from file ./SSI/SSI-002VAL-042PHE-2-dimer.test.9907.fchk

                         Distributed Multipole Analysis

Standard DMA

Positions and radii in angstrom
Multipole moments in atomic units, ea_0^k for rank k

C          x = -0.082331  y = -3.680817  z = -0.793042 angstrom
           Maximum rank =  0   Radius =  0.650 angstrom
                   Q00  =  -0.225200

C          x = -1.538331  y = -3.856817  z = -1.064042 angstrom
           Maximum rank =  0   Radius =  0.650 angstrom
                   Q00  =  -0.222622

H          x =  0.369669  y = -3.045817  z = -1.556042 angstrom
           Maximum rank =  0   Radius =  0.325 angstrom
                   Q00  =   0.074025

H          x =  0.055669  y = -3.231817  z =  0.190958 angstrom
           Maximum rank =  0   Radius =  0.325 angstrom
                   Q00  =   0.070322

H          x =  0.428669  y = -4.643817  z = -0.779042 angstrom
           Maximum rank =  0   Radius =  0.325 angstrom
                   Q00  =   0.075741

H          x = -1.937331  y = -4.571817  z = -0.344042 angstrom
           Maximum rank =  0   Radius =  0.325 angstrom
                   Q00  =   0.072941

H          x = -1.706918  y = -4.239904  z = -2.081304 angstrom
           Maximum rank =  0   Radius =  0.325 angstrom
                   Q00  =   0.078413

H          x = -2.057715  y = -2.900019  z = -0.906631 angstrom
           Maximum rank =  0   Radius =  0.325 angstrom
                   Q00  =   0.077285

C          x = -1.196331  y =  1.892183  z =  2.158958 angstrom
           Maximum rank =  0   Radius =  0.650 angstrom
                   Q00  =  -0.204458

C          x =  0.821669  y = -0.229817  z = -0.275042 angstrom
           Maximum rank =  0   Radius =  0.650 angstrom
                   Q00  =  -0.018945

C          x =  1.379669  y =  0.736183  z = -1.088042 angstrom
           Maximum rank =  0   Radius =  0.650 angstrom
                   Q00  =  -0.083504

C          x = -0.029331  y =  0.131183  z =  0.762958 angstrom
           Maximum rank =  0   Radius =  0.650 angstrom
                   Q00  =  -0.048484

C          x = -0.323331  y =  1.477183  z =  1.000958 angstrom
           Maximum rank =  0   Radius =  0.650 angstrom
                   Q00  =  -0.098411

C          x =  1.111669  y =  2.072183  z = -0.866042 angstrom
           Maximum rank =  0   Radius =  0.650 angstrom
                   Q00  =  -0.067681

C          x =  0.254669  y =  2.446183  z =  0.174958 angstrom
           Maximum rank =  0   Radius =  0.650 angstrom
                   Q00  =  -0.079268

H          x =  1.083669  y = -1.261817  z = -0.429042 angstrom
           Maximum rank =  0   Radius =  0.325 angstrom
                   Q00  =   0.065953

H          x =  2.042669  y =  0.453183  z = -1.893042 angstrom
           Maximum rank =  0   Radius =  0.325 angstrom
                   Q00  =   0.056584

H          x = -0.446331  y = -0.633817  z =  1.402958 angstrom
           Maximum rank =  0   Radius =  0.325 angstrom
                   Q00  =   0.055946

H          x =  1.557669  y =  2.829183  z = -1.495042 angstrom
           Maximum rank =  0   Radius =  0.325 angstrom
                   Q00  =   0.063647

H          x = -0.695331  y =  2.703183  z =  2.687958 angstrom
           Maximum rank =  0   Radius =  0.325 angstrom
                   Q00  =   0.099090

H          x = -1.292331  y =  1.059183  z =  2.854958 angstrom
           Maximum rank =  0   Radius =  0.325 angstrom
                   Q00  =   0.097865

H          x =  0.056669  y =  3.491183  z =  0.350958 angstrom
           Maximum rank =  0   Radius =  0.325 angstrom
                   Q00  =   0.056062

H          x = -2.197910  y =  2.233207  z =  1.858055 angstrom
           Maximum rank =  0   Radius =  0.325 angstrom
                   Q00  =   0.104700

Total multipoles referred to origin at
           x =   0.000000,  y =    0.000000,  z =    0.000000 angstrom
                   Q00  =  -0.000000

Finished at 20:44:21 on 26 Apr 2020

  DMA results are available in the Python driver through the
	  variable('DMA DISTRIBUTED MULTIPOLES')
  and
	  variable('DMA TOTAL MULTIPOLES')
  commands.

    Psi4 stopped on: Sunday, 26 April 2020 08:44PM
    Psi4 wall time for execution: 0:01:48.86

*** Psi4 exiting successfully. Buy a developer a beer!
