                               Psi4 1.3.2 release

  ==> Input File <==

--------------------------------------------------------------------------
import numpy as np
set {scf_type pk
basis cc-pvdz
d_convergence 10
gdma_switch   0
gdma_limit    0
gdma_origin   [ 0.0,  0.0,  0.0 ]
}
molecule test {
    units Angstrom
    0 1
    --
    0 1
    C               -1.261086619614464    -2.447279190297516    -1.087510256086855
    C                0.703913380385536    -1.199279190297516     0.051489743913145
    C               -0.492086619614464    -1.846279190297516     0.051489743913145
    C               -0.140086619614464    -1.074279190297516     2.081489743913145
    N                0.899913380385536    -0.723279190297516     1.331489743913145
    N               -0.998086619614464    -1.759279190297516     1.332489743913145
    H                1.347913380385536    -1.051279190297516    -0.805510256086855
    H                1.688913380385536    -0.174279190297516     1.655489743913145
    H               -1.731086619614464    -3.378279190297516    -0.770510256086855
    H               -0.556086619614464    -2.669279190297516    -1.867510256086855
    H               -0.270086619614464    -0.830279190297516     3.129489743913146
    H               -2.012986619614464    -1.758161190297516    -1.499538256086855
    C                0.748913380385536     2.303720809702484    -0.919510256086855
    C                1.148913380385536     3.421720809702484    -1.855510256086855
    C               -0.695086619614464     2.647720809702484    -0.626510256086855
    H                1.354913380385536     2.299720809702483    -0.013510256086855
    H                0.809913380385536     1.343720809702484    -1.433510256086855
    H                1.374913380385536     4.331720809702484    -1.296510256086855
    H                2.008913380385536     3.088720809702484    -2.436510256086855
    H               -0.737086619614464     3.494720809702484     0.060489743913145
    H               -1.237086619614464     1.793720809702484    -0.216510256086855
    H                0.243513380385536     3.562630809702484    -2.464108256086855
    H               -1.079996619614464     2.935860809702484    -1.615863256086855

}
e, wfn = energy('scf', return_wfn=True)
gdma(wfn)
dmavals = variable('DMA DISTRIBUTED MULTIPOLES')
charges = np.array(dmavals)
print(charges)
np.save('SSI-117HIE-123PRO-1-dimer.npy', np.array(charges))--------------------------------------------------------------------------

*** tstart() called on ds3
*** at Mon Apr 27 10:42:23 2020

   => Loading Basis Set <=

    Name: CC-PVDZ
    Role: ORBITAL
    Keyword: BASIS
    atoms 1-4, 13-15  entry C          line   138 file /theoryfs2/ds/metcalf/miniconda2/envs/tf2gpu/share/psi4/basis/cc-pvdz.gbs
    atoms 5-6         entry N          line   168 file /theoryfs2/ds/metcalf/miniconda2/envs/tf2gpu/share/psi4/basis/cc-pvdz.gbs
    atoms 7-12, 16-23 entry H          line    22 file /theoryfs2/ds/metcalf/miniconda2/envs/tf2gpu/share/psi4/basis/cc-pvdz.gbs

         ---------------------------------------------------------
                                   SCF
               by Justin Turney, Rob Parrish, Andy Simmonett
                          and Daniel G. A. Smith
                              RHF Reference
                        1 Threads,    500 MiB Core
         ---------------------------------------------------------

  ==> Geometry <==

    Molecular point group: c1
    Full point group: C1

    Geometry (in Angstrom), charge = 0, multiplicity = 1:

       Center              X                  Y                   Z               Mass
    ------------   -----------------  -----------------  -----------------  -----------------
         C           -1.261086619614    -2.447279190298    -1.087510256087    12.000000000000
         C            0.703913380386    -1.199279190298     0.051489743913    12.000000000000
         C           -0.492086619614    -1.846279190298     0.051489743913    12.000000000000
         C           -0.140086619614    -1.074279190298     2.081489743913    12.000000000000
         N            0.899913380386    -0.723279190298     1.331489743913    14.003074004430
         N           -0.998086619614    -1.759279190298     1.332489743913    14.003074004430
         H            1.347913380386    -1.051279190298    -0.805510256087     1.007825032230
         H            1.688913380386    -0.174279190298     1.655489743913     1.007825032230
         H           -1.731086619614    -3.378279190298    -0.770510256087     1.007825032230
         H           -0.556086619614    -2.669279190298    -1.867510256087     1.007825032230
         H           -0.270086619614    -0.830279190298     3.129489743913     1.007825032230
         H           -2.012986619614    -1.758161190298    -1.499538256087     1.007825032230
         C            0.748913380386     2.303720809702    -0.919510256087    12.000000000000
         C            1.148913380386     3.421720809702    -1.855510256087    12.000000000000
         C           -0.695086619614     2.647720809702    -0.626510256087    12.000000000000
         H            1.354913380386     2.299720809702    -0.013510256087     1.007825032230
         H            0.809913380386     1.343720809702    -1.433510256087     1.007825032230
         H            1.374913380386     4.331720809702    -1.296510256087     1.007825032230
         H            2.008913380386     3.088720809702    -2.436510256087     1.007825032230
         H           -0.737086619614     3.494720809702     0.060489743913     1.007825032230
         H           -1.237086619614     1.793720809702    -0.216510256087     1.007825032230
         H            0.243513380386     3.562630809702    -2.464108256087     1.007825032230
         H           -1.079996619614     2.935860809702    -1.615863256087     1.007825032230

  Running in c1 symmetry.

  Rotational constants: A =      0.07838  B =      0.02251  C =      0.02039 [cm^-1]
  Rotational constants: A =   2349.66451  B =    674.70449  C =    611.40342 [MHz]
  Nuclear repulsion =  433.256777304608192

  Charge       = 0
  Multiplicity = 1
  Electrons    = 70
  Nalpha       = 35
  Nbeta        = 35

  ==> Algorithm <==

  SCF Algorithm Type is PK.
  DIIS enabled.
  MOM disabled.
  Fractional occupation disabled.
  Guess Type is SAD.
  Energy threshold   = 1.00e-06
  Density threshold  = 1.00e-10
  Integral threshold = 0.00e+00

  ==> Primary Basis <==

  Basis Set: CC-PVDZ
    Blend: CC-PVDZ
    Number of shells: 96
    Number of basis function: 196
    Number of Cartesian functions: 205
    Spherical Harmonics?: true
    Max angular momentum: 2

  ==> Pre-Iterations <==

   -------------------------------------------------------
    Irrep   Nso     Nmo     Nalpha   Nbeta   Ndocc  Nsocc
   -------------------------------------------------------
     A        196     196       0       0       0       0
   -------------------------------------------------------
    Total     196     196      35      35      35       0
   -------------------------------------------------------

  ==> Integral Setup <==

  Using integral reordering PK algorithm.
  Sizing the integral batches needed.
  Building batch lookup table.
   Calculation information:
      Number of atoms:                  23
      Number of AO shells:              96
      Number of primitives:            268
      Number of atomic orbitals:       205
      Number of basis functions:       196

      Integral cutoff                 1.00e-12
      Number of threads:                 1

	Batch   1 pq = [       0,    9405] index = [             0,44231715] size =     44231715
	Batch   2 pq = [    9405,   13301] index = [      44231715,88464951] size =     44233236
	Batch   3 pq = [   13301,   16290] index = [      88464951,132690195] size =     44225244
	Batch   4 pq = [   16290,   18810] index = [     132690195,176917455] size =     44227260
	Batch   5 pq = [   18810,   19306] index = [     176917455,186370471] size =      9453016
  Task number: 17
  Buffer size: 11059200
  Buffer per thread: 2
  We computed 9314826 shell quartets total.
  Whereas there are 10841496 unique shell quartets.

  ==> DiskJK: Disk-Based J/K Matrices <==

    J tasked:                  Yes
    K tasked:                  Yes
    wK tasked:                  No
    Memory [MiB]:              375
    Schwarz Cutoff:          1E-12

    OpenMP threads:              1

  Minimum eigenvalue in the overlap matrix is 1.1882503863E-03.
  Using Symmetric Orthogonalization.

  SCF Guess: Superposition of Atomic Densities via on-the-fly atomic UHF.

  ==> Iterations <==

                        Total Energy        Delta E     RMS |[F,P]|

   @RHF iter SAD:  -381.38415026455220   -3.81384e+02   0.00000e+00
   @RHF iter   1:  -381.86818811289902   -4.84038e-01   3.19525e-03 DIIS
   @RHF iter   2:  -382.07025896353827   -2.02071e-01   1.61412e-03 DIIS
   @RHF iter   3:  -382.11816112177792   -4.79022e-02   3.96184e-04 DIIS
   @RHF iter   4:  -382.12197399883547   -3.81288e-03   1.72235e-04 DIIS
   @RHF iter   5:  -382.12260253657524   -6.28538e-04   2.55636e-05 DIIS
   @RHF iter   6:  -382.12262694563941   -2.44091e-05   1.04597e-05 DIIS
   @RHF iter   7:  -382.12263094969842   -4.00406e-06   3.78230e-06 DIIS
   @RHF iter   8:  -382.12263179229944   -8.42601e-07   1.58721e-06 DIIS
   @RHF iter   9:  -382.12263198638686   -1.94087e-07   5.90677e-07 DIIS
   @RHF iter  10:  -382.12263200854676   -2.21599e-08   1.71865e-07 DIIS
   @RHF iter  11:  -382.12263201078753   -2.24077e-09   7.32845e-08 DIIS
   @RHF iter  12:  -382.12263201106157   -2.74042e-10   3.10597e-08 DIIS
   @RHF iter  13:  -382.12263201110960   -4.80327e-11   9.39509e-09 DIIS
   @RHF iter  14:  -382.12263201111648   -6.87805e-12   2.98097e-09 DIIS
   @RHF iter  15:  -382.12263201111648    0.00000e+00   1.15843e-09 DIIS
   @RHF iter  16:  -382.12263201111773   -1.25056e-12   4.09368e-10 DIIS
   @RHF iter  17:  -382.12263201111580    1.93268e-12   1.44299e-10 DIIS
   @RHF iter  18:  -382.12263201111756   -1.76215e-12   4.42387e-11 DIIS
  Energy and wave function converged.

  ==> Post-Iterations <==

    Orbital Energies [Eh]
    ---------------------

    Doubly Occupied:

       1A    -15.621072     2A    -15.527535     3A    -11.292719
       4A    -11.250720     5A    -11.241262     6A    -11.222394
       7A    -11.216682     8A    -11.214391     9A    -11.211610
      10A     -1.340114    11A     -1.152455    12A     -1.072735
      13A     -1.031058    14A     -0.941485    15A     -0.912814
      16A     -0.817445    17A     -0.800141    18A     -0.760917
      19A     -0.740677    20A     -0.643532    21A     -0.614317
      22A     -0.610223    23A     -0.601582    24A     -0.595946
      25A     -0.552885    26A     -0.543701    27A     -0.541217
      28A     -0.522144    29A     -0.510434    30A     -0.486065
      31A     -0.476406    32A     -0.454922    33A     -0.409761
      34A     -0.377249    35A     -0.309270

    Virtual:

      36A      0.161474    37A      0.176731    38A      0.191402
      39A      0.197933    40A      0.215072    41A      0.221144
      42A      0.227120    43A      0.238637    44A      0.249539
      45A      0.251933    46A      0.275456    47A      0.289160
      48A      0.290109    49A      0.314700    50A      0.323418
      51A      0.338168    52A      0.357658    53A      0.384952
      54A      0.395630    55A      0.419149    56A      0.424859
      57A      0.480380    58A      0.490331    59A      0.577923
      60A      0.583889    61A      0.595376    62A      0.615261
      63A      0.623616    64A      0.635562    65A      0.650404
      66A      0.665197    67A      0.675261    68A      0.708856
      69A      0.715866    70A      0.748309    71A      0.769288
      72A      0.785089    73A      0.801367    74A      0.813371
      75A      0.824330    76A      0.836107    77A      0.847775
      78A      0.859069    79A      0.880267    80A      0.882822
      81A      0.894742    82A      0.898541    83A      0.907530
      84A      0.914288    85A      0.916093    86A      0.927171
      87A      0.929817    88A      0.939118    89A      0.945882
      90A      0.962666    91A      0.982990    92A      0.989488
      93A      1.001308    94A      1.032736    95A      1.074102
      96A      1.094109    97A      1.104641    98A      1.111671
      99A      1.132299   100A      1.137579   101A      1.150431
     102A      1.174101   103A      1.210839   104A      1.251273
     105A      1.278092   106A      1.311506   107A      1.324200
     108A      1.338542   109A      1.420167   110A      1.424806
     111A      1.442189   112A      1.448234   113A      1.484042
     114A      1.488794   115A      1.531822   116A      1.566796
     117A      1.603596   118A      1.617400   119A      1.621298
     120A      1.637160   121A      1.644751   122A      1.694389
     123A      1.720716   124A      1.739849   125A      1.755438
     126A      1.768678   127A      1.800116   128A      1.807593
     129A      1.833043   130A      1.851887   131A      1.867252
     132A      1.880210   133A      1.896256   134A      1.905399
     135A      1.917777   136A      1.927836   137A      1.933582
     138A      1.942919   139A      1.960403   140A      1.970173
     141A      1.971404   142A      1.986868   143A      2.005595
     144A      2.014154   145A      2.035004   146A      2.051356
     147A      2.071892   148A      2.077456   149A      2.100673
     150A      2.134417   151A      2.141099   152A      2.156023
     153A      2.161145   154A      2.198062   155A      2.214043
     156A      2.234104   157A      2.239326   158A      2.293730
     159A      2.318097   160A      2.335235   161A      2.347375
     162A      2.380139   163A      2.436890   164A      2.440859
     165A      2.455002   166A      2.468646   167A      2.507971
     168A      2.512545   169A      2.551738   170A      2.562476
     171A      2.607344   172A      2.637286   173A      2.689225
     174A      2.699913   175A      2.732946   176A      2.745645
     177A      2.753361   178A      2.779196   179A      2.791254
     180A      2.793222   181A      2.800097   182A      2.829888
     183A      2.845528   184A      2.862372   185A      2.893382
     186A      2.898774   187A      2.922568   188A      2.939636
     189A      2.960441   190A      2.968796   191A      3.056776
     192A      3.066473   193A      3.160714   194A      3.235730
     195A      3.471644   196A      3.795522

    Final Occupation by Irrep:
              A
    DOCC [    35 ]

  @RHF Final Energy:  -382.12263201111756

   => Energetics <=

    Nuclear Repulsion Energy =            433.2567773046081925
    One-Electron Energy =               -1375.5230578423213501
    Two-Electron Energy =                 560.1436485265954843
    Total Energy =                       -382.1226320111176165

Computation Completed

Properties will be evaluated at   0.000000,   0.000000,   0.000000 [a0]

Properties computed using the SCF density matrix

  Nuclear Dipole Moment: [e a0]
     X:     1.1295      Y:    12.1842      Z:    -8.9832

  Electronic Dipole Moment: [e a0]
     X:     0.0097      Y:   -11.5334      Z:     9.0352

  Dipole Moment: [e a0]
     X:     1.1392      Y:     0.6509      Z:     0.0520     Total:     1.3131

  Dipole Moment: [D]
     X:     2.8956      Y:     1.6544      Z:     0.1321     Total:     3.3375

*** tstop() called on ds3 at Mon Apr 27 10:49:46 2020
Module time:
	user time   =      61.51 seconds =       1.03 minutes
	system time =      26.94 seconds =       0.45 minutes
	total time  =        443 seconds =       7.38 minutes
Total time:
	user time   =      61.51 seconds =       1.03 minutes
	system time =      26.94 seconds =       0.45 minutes
	total time  =        443 seconds =       7.38 minutes
                                     G D M A

                                 by Anthony Stone

                           version 2.2.06, 22 June 2011

               Distributed Multipoles from Gaussian wavefunctions

Starting at 10:49:46 on 27 Apr 2020

Using SCF density matrix from file ./SSI/SSI-117HIE-123PRO-1-dimer.test.2669.fchk

                         Distributed Multipole Analysis

Standard DMA

Positions and radii in angstrom
Multipole moments in atomic units, ea_0^k for rank k

C          x = -1.261087  y = -2.447279  z = -1.087510 angstrom
           Maximum rank =  0   Radius =  0.650 angstrom
                   Q00  =  -0.192966

C          x =  0.703913  y = -1.199279  z =  0.051490 angstrom
           Maximum rank =  0   Radius =  0.650 angstrom
                   Q00  =  -0.001770

C          x = -0.492087  y = -1.846279  z =  0.051490 angstrom
           Maximum rank =  0   Radius =  0.650 angstrom
                   Q00  =   0.220345

C          x = -0.140087  y = -1.074279  z =  2.081490 angstrom
           Maximum rank =  0   Radius =  0.650 angstrom
                   Q00  =   0.461938

N          x =  0.899913  y = -0.723279  z =  1.331490 angstrom
           Maximum rank =  0   Radius =  0.650 angstrom
                   Q00  =  -0.480923

N          x = -0.998087  y = -1.759279  z =  1.332490 angstrom
           Maximum rank =  0   Radius =  0.650 angstrom
                   Q00  =  -0.767359

H          x =  1.347913  y = -1.051279  z = -0.805510 angstrom
           Maximum rank =  0   Radius =  0.325 angstrom
                   Q00  =   0.101991

H          x =  1.688913  y = -0.174279  z =  1.655490 angstrom
           Maximum rank =  0   Radius =  0.325 angstrom
                   Q00  =   0.221264

H          x = -1.731087  y = -3.378279  z = -0.770510 angstrom
           Maximum rank =  0   Radius =  0.325 angstrom
                   Q00  =   0.116556

H          x = -0.556087  y = -2.669279  z = -1.867510 angstrom
           Maximum rank =  0   Radius =  0.325 angstrom
                   Q00  =   0.092431

H          x = -0.270087  y = -0.830279  z =  3.129490 angstrom
           Maximum rank =  0   Radius =  0.325 angstrom
                   Q00  =   0.123930

H          x = -2.012987  y = -1.758161  z = -1.499538 angstrom
           Maximum rank =  0   Radius =  0.325 angstrom
                   Q00  =   0.104515

C          x =  0.748913  y =  2.303721  z = -0.919510 angstrom
           Maximum rank =  0   Radius =  0.650 angstrom
                   Q00  =  -0.086710

C          x =  1.148913  y =  3.421721  z = -1.855510 angstrom
           Maximum rank =  0   Radius =  0.650 angstrom
                   Q00  =  -0.233098

C          x = -0.695087  y =  2.647721  z = -0.626510 angstrom
           Maximum rank =  0   Radius =  0.650 angstrom
                   Q00  =  -0.202990

H          x =  1.354913  y =  2.299721  z = -0.013510 angstrom
           Maximum rank =  0   Radius =  0.325 angstrom
                   Q00  =   0.041008

H          x =  0.809913  y =  1.343721  z = -1.433510 angstrom
           Maximum rank =  0   Radius =  0.325 angstrom
                   Q00  =   0.051725

H          x =  1.374913  y =  4.331721  z = -1.296510 angstrom
           Maximum rank =  0   Radius =  0.325 angstrom
                   Q00  =   0.078697

H          x =  2.008913  y =  3.088721  z = -2.436510 angstrom
           Maximum rank =  0   Radius =  0.325 angstrom
                   Q00  =   0.074850

H          x = -0.737087  y =  3.494721  z =  0.060490 angstrom
           Maximum rank =  0   Radius =  0.325 angstrom
                   Q00  =   0.073883

H          x = -1.237087  y =  1.793721  z = -0.216510 angstrom
           Maximum rank =  0   Radius =  0.325 angstrom
                   Q00  =   0.091857

H          x =  0.243513  y =  3.562631  z = -2.464108 angstrom
           Maximum rank =  0   Radius =  0.325 angstrom
                   Q00  =   0.062856

H          x = -1.079997  y =  2.935861  z = -1.615863 angstrom
           Maximum rank =  0   Radius =  0.325 angstrom
                   Q00  =   0.047970

Total multipoles referred to origin at
           x =   0.000000,  y =    0.000000,  z =    0.000000 angstrom
                   Q00  =  -0.000000

Finished at 10:49:46 on 27 Apr 2020

  DMA results are available in the Python driver through the
	  variable('DMA DISTRIBUTED MULTIPOLES')
  and
	  variable('DMA TOTAL MULTIPOLES')
  commands.

    Psi4 stopped on: Monday, 27 April 2020 10:49AM
    Psi4 wall time for execution: 0:07:22.24

*** Psi4 exiting successfully. Buy a developer a beer!
