                               Psi4 1.3.2 release

  ==> Input File <==

--------------------------------------------------------------------------
import numpy as np
set {scf_type pk
basis cc-pvdz
d_convergence 10
gdma_switch   0
gdma_limit    0
gdma_origin   [ 0.0,  0.0,  0.0 ]
}
molecule test {
    units Angstrom
    0 1
    --
    0 1
    C               -1.471608159988789     0.470475713479719    -2.051240666006982
    C               -2.731608159988789    -0.147524286520281    -2.700240666006982
    C               -1.693608159988789     1.216475713479720    -0.774240666006982
    C               -2.359608159988789     2.445475713479719    -0.783240666006982
    C               -1.202608159988789     0.723475713479719     0.428759333993018
    C               -2.566608159988789     3.141475713479720     0.393759333993018
    C               -1.411608159988789     1.404475713479719     1.602759333993018
    C               -2.078608159988789     2.632475713479719     1.589759333993018
    O               -2.279608159988789     3.294475713479720     2.751759333993018
    H               -0.761608159988789    -0.328524286520281    -1.856240666006982
    H               -1.000608159988789     1.141475713479719    -2.770240666006981
    H               -3.256608159988789     0.641475713479719    -3.240240666006981
    H               -2.735608159988789     2.846475713479720    -1.716240666006982
    H               -0.652608159988789    -0.205524286520281     0.441759333993018
    H               -3.096608159988789     4.084475713479720     0.379759333993018
    H               -1.041608159988789     1.007475713479719     2.537759333993018
    H               -2.760608159988789     4.120475713479719     2.614759333993018
    H               -3.421378159988789    -0.620764286520281    -1.985915666006982
    H               -2.397824159988789    -0.899804286520281    -3.430076666006982
    C               -0.038608159988789    -3.589524286520281     0.592759333993018
    C                1.209391840011211    -2.073524286520281    -0.971240666006982
    C                1.129391840011211    -2.721524286520280     0.266759333993018
    C                2.302391840011211    -1.270524286520281    -1.292240666006982
    C                2.179391840011211    -2.582524286520280     1.163759333993018
    C                3.322391840011211    -1.134524286520280    -0.385240666006982
    C                3.278391840011211    -1.775524286520280     0.847759333993018
    O                4.386391840011211    -0.358524286520281    -0.730240666006982
    H                0.420391840011211    -2.206524286520281    -1.699240666006982
    H                2.357391840011211    -0.770524286520281    -2.248240666006982
    H                0.301391840011211    -4.603524286520281     0.792759333993018
    H               -0.663608159988789    -3.642524286520281    -0.297240666006982
    H                2.169391840011211    -3.109524286520281     2.104759333993018
    H                4.094391840011211    -1.671524286520281     1.547759333993018
    H                5.048391840011211    -0.328524286520281    -0.030240666006982
    H               -0.640138159988789    -3.223694286520280     1.437939333993018

}
e, wfn = energy('scf', return_wfn=True)
gdma(wfn)
dmavals = variable('DMA DISTRIBUTED MULTIPOLES')
charges = np.array(dmavals)
print(charges)
np.save('SSI-007TYR-053TYR-1-dimer.npy', np.array(charges))--------------------------------------------------------------------------

*** tstart() called on ds3
*** at Tue Apr 28 10:12:54 2020

   => Loading Basis Set <=

    Name: CC-PVDZ
    Role: ORBITAL
    Keyword: BASIS
    atoms 1-8, 20-26   entry C          line   138 file /theoryfs2/ds/metcalf/miniconda2/envs/tf2gpu/share/psi4/basis/cc-pvdz.gbs
    atoms 9, 27        entry O          line   198 file /theoryfs2/ds/metcalf/miniconda2/envs/tf2gpu/share/psi4/basis/cc-pvdz.gbs
    atoms 10-19, 28-35 entry H          line    22 file /theoryfs2/ds/metcalf/miniconda2/envs/tf2gpu/share/psi4/basis/cc-pvdz.gbs

         ---------------------------------------------------------
                                   SCF
               by Justin Turney, Rob Parrish, Andy Simmonett
                          and Daniel G. A. Smith
                              RHF Reference
                        1 Threads,    500 MiB Core
         ---------------------------------------------------------

  ==> Geometry <==

    Molecular point group: c1
    Full point group: C1

    Geometry (in Angstrom), charge = 0, multiplicity = 1:

       Center              X                  Y                   Z               Mass
    ------------   -----------------  -----------------  -----------------  -----------------
         C           -1.471608159989     0.470475713480    -2.051240666007    12.000000000000
         C           -2.731608159989    -0.147524286520    -2.700240666007    12.000000000000
         C           -1.693608159989     1.216475713480    -0.774240666007    12.000000000000
         C           -2.359608159989     2.445475713480    -0.783240666007    12.000000000000
         C           -1.202608159989     0.723475713480     0.428759333993    12.000000000000
         C           -2.566608159989     3.141475713480     0.393759333993    12.000000000000
         C           -1.411608159989     1.404475713480     1.602759333993    12.000000000000
         C           -2.078608159989     2.632475713480     1.589759333993    12.000000000000
         O           -2.279608159989     3.294475713480     2.751759333993    15.994914619570
         H           -0.761608159989    -0.328524286520    -1.856240666007     1.007825032230
         H           -1.000608159989     1.141475713480    -2.770240666007     1.007825032230
         H           -3.256608159989     0.641475713480    -3.240240666007     1.007825032230
         H           -2.735608159989     2.846475713480    -1.716240666007     1.007825032230
         H           -0.652608159989    -0.205524286520     0.441759333993     1.007825032230
         H           -3.096608159989     4.084475713480     0.379759333993     1.007825032230
         H           -1.041608159989     1.007475713480     2.537759333993     1.007825032230
         H           -2.760608159989     4.120475713480     2.614759333993     1.007825032230
         H           -3.421378159989    -0.620764286520    -1.985915666007     1.007825032230
         H           -2.397824159989    -0.899804286520    -3.430076666007     1.007825032230
         C           -0.038608159989    -3.589524286520     0.592759333993    12.000000000000
         C            1.209391840011    -2.073524286520    -0.971240666007    12.000000000000
         C            1.129391840011    -2.721524286520     0.266759333993    12.000000000000
         C            2.302391840011    -1.270524286520    -1.292240666007    12.000000000000
         C            2.179391840011    -2.582524286520     1.163759333993    12.000000000000
         C            3.322391840011    -1.134524286520    -0.385240666007    12.000000000000
         C            3.278391840011    -1.775524286520     0.847759333993    12.000000000000
         O            4.386391840011    -0.358524286520    -0.730240666007    15.994914619570
         H            0.420391840011    -2.206524286520    -1.699240666007     1.007825032230
         H            2.357391840011    -0.770524286520    -2.248240666007     1.007825032230
         H            0.301391840011    -4.603524286520     0.792759333993     1.007825032230
         H           -0.663608159989    -3.642524286520    -0.297240666007     1.007825032230
         H            2.169391840011    -3.109524286520     2.104759333993     1.007825032230
         H            4.094391840011    -1.671524286520     1.547759333993     1.007825032230
         H            5.048391840011    -0.328524286520    -0.030240666007     1.007825032230
         H           -0.640138159989    -3.223694286520     1.437939333993     1.007825032230

  Running in c1 symmetry.

  Rotational constants: A =      0.01935  B =      0.00730  C =      0.00672 [cm^-1]
  Rotational constants: A =    580.01595  B =    218.97510  C =    201.36259 [MHz]
  Nuclear repulsion = 1103.070166055787922

  Charge       = 0
  Multiplicity = 1
  Electrons    = 124
  Nalpha       = 62
  Nbeta        = 62

  ==> Algorithm <==

  SCF Algorithm Type is PK.
  DIIS enabled.
  MOM disabled.
  Fractional occupation disabled.
  Guess Type is SAD.
  Energy threshold   = 1.00e-06
  Density threshold  = 1.00e-10
  Integral threshold = 0.00e+00

  ==> Primary Basis <==

  Basis Set: CC-PVDZ
    Blend: CC-PVDZ
    Number of shells: 156
    Number of basis function: 328
    Number of Cartesian functions: 345
    Spherical Harmonics?: true
    Max angular momentum: 2

  ==> Pre-Iterations <==

   -------------------------------------------------------
    Irrep   Nso     Nmo     Nalpha   Nbeta   Ndocc  Nsocc
   -------------------------------------------------------
     A        328     328       0       0       0       0
   -------------------------------------------------------
    Total     328     328      62      62      62       0
   -------------------------------------------------------

  ==> Integral Setup <==

  Using integral reordering PK algorithm.
  Sizing the integral batches needed.
  Building batch lookup table.
   Calculation information:
      Number of atoms:                  35
      Number of AO shells:             156
      Number of primitives:            464
      Number of atomic orbitals:       345
      Number of basis functions:       328

      Integral cutoff                 1.00e-12
      Number of threads:                 1

	Batch   1 pq = [       0,    9405] index = [             0,44231715] size =     44231715
	Batch   2 pq = [    9405,   13301] index = [      44231715,88464951] size =     44233236
	Batch   3 pq = [   13301,   16290] index = [      88464951,132690195] size =     44225244
	Batch   4 pq = [   16290,   18810] index = [     132690195,176917455] size =     44227260
	Batch   5 pq = [   18810,   21030] index = [     176917455,221140965] size =     44223510
	Batch   6 pq = [   21030,   23037] index = [     221140965,265363203] size =     44222238
	Batch   7 pq = [   23037,   24883] index = [     265363203,309594286] size =     44231083
	Batch   8 pq = [   24883,   26601] index = [     309594286,353819901] size =     44225615
	Batch   9 pq = [   26601,   28214] index = [     353819901,398029005] size =     44209104
	Batch  10 pq = [   28214,   29740] index = [     398029005,442248670] size =     44219665
	Batch  11 pq = [   29740,   31191] index = [     442248670,486454836] size =     44206166
	Batch  12 pq = [   31191,   32578] index = [     486454836,530679331] size =     44224495
	Batch  13 pq = [   32578,   33908] index = [     530679331,574893186] size =     44213855
	Batch  14 pq = [   33908,   35188] index = [     574893186,619115266] size =     44222080
	Batch  15 pq = [   35188,   36423] index = [     619115266,663335676] size =     44220410
	Batch  16 pq = [   36423,   37617] index = [     663335676,707538153] size =     44202477
	Batch  17 pq = [   37617,   38775] index = [     707538153,751769700] size =     44231547
	Batch  18 pq = [   38775,   39899] index = [     751769700,795985050] size =     44215350
	Batch  19 pq = [   39899,   40992] index = [     795985050,840192528] size =     44207478
	Batch  20 pq = [   40992,   42057] index = [     840192528,884416653] size =     44224125
	Batch  21 pq = [   42057,   43095] index = [     884416653,928611060] size =     44194407
	Batch  22 pq = [   43095,   44109] index = [     928611060,972823995] size =     44212935
	Batch  23 pq = [   44109,   45100] index = [     972823995,1017027550] size =     44203555
	Batch  24 pq = [   45100,   46070] index = [    1017027550,1061245485] size =     44217935
	Batch  25 pq = [   46070,   47020] index = [    1061245485,1105463710] size =     44218225
	Batch  26 pq = [   47020,   47951] index = [    1105463710,1149673176] size =     44209466
	Batch  27 pq = [   47951,   48864] index = [    1149673176,1193869680] size =     44196504
	Batch  28 pq = [   48864,   49761] index = [    1193869680,1238103441] size =     44233761
	Batch  29 pq = [   49761,   50642] index = [    1238103441,1282331403] size =     44227962
	Batch  30 pq = [   50642,   51508] index = [    1282331403,1326562786] size =     44231383
	Batch  31 pq = [   51508,   52359] index = [    1326562786,1370758620] size =     44195834
	Batch  32 pq = [   52359,   53197] index = [    1370758620,1414987003] size =     44228383
	Batch  33 pq = [   53197,   53956] index = [    1414987003,1455651946] size =     40664943
  Task number: 132
  Buffer size: 11059200
  Buffer per thread: 2
  We computed 75723468 shell quartets total.
  Whereas there are 74988381 unique shell quartets.
     0.98 percent of shell quartets recomputed by reordering.

  ==> DiskJK: Disk-Based J/K Matrices <==

    J tasked:                  Yes
    K tasked:                  Yes
    wK tasked:                  No
    Memory [MiB]:              375
    Schwarz Cutoff:          1E-12

    OpenMP threads:              1

  Minimum eigenvalue in the overlap matrix is 2.9827903628E-04.
  Using Symmetric Orthogonalization.

  SCF Guess: Superposition of Atomic Densities via on-the-fly atomic UHF.

  ==> Iterations <==

                        Total Energy        Delta E     RMS |[F,P]|

   @RHF iter SAD:  -727.16258601616096   -7.27163e+02   0.00000e+00
   @RHF iter   1:  -727.89747395770496   -7.34888e-01   2.34213e-03 DIIS
   @RHF iter   2:  -728.22323893611724   -3.25765e-01   9.91922e-04 DIIS
   @RHF iter   3:  -728.27504106267224   -5.18021e-02   2.40275e-04 DIIS
   @RHF iter   4:  -728.27951930127279   -4.47824e-03   1.06338e-04 DIIS
   @RHF iter   5:  -728.28023465060710   -7.15349e-04   1.64137e-05 DIIS
   @RHF iter   6:  -728.28026344119974   -2.87906e-05   5.69961e-06 DIIS
   @RHF iter   7:  -728.28026663480648   -3.19361e-06   1.93841e-06 DIIS
   @RHF iter   8:  -728.28026711501002   -4.80204e-07   6.66509e-07 DIIS
   @RHF iter   9:  -728.28026718970023   -7.46902e-08   2.71730e-07 DIIS
   @RHF iter  10:  -728.28026720383559   -1.41354e-08   1.26111e-07 DIIS
   @RHF iter  11:  -728.28026720873572   -4.90013e-09   5.46306e-08 DIIS
   @RHF iter  12:  -728.28026720961577   -8.80050e-10   2.54372e-08 DIIS
   @RHF iter  13:  -728.28026720974174   -1.25965e-10   7.32161e-09 DIIS
   @RHF iter  14:  -728.28026720974458   -2.84217e-12   2.20917e-09 DIIS
   @RHF iter  15:  -728.28026720975026   -5.68434e-12   6.73275e-10 DIIS
   @RHF iter  16:  -728.28026720975231   -2.04636e-12   2.95301e-10 DIIS
   @RHF iter  17:  -728.28026720974788    4.43379e-12   1.39772e-10 DIIS
   @RHF iter  18:  -728.28026720974799   -1.13687e-13   6.35803e-11 DIIS
  Energy and wave function converged.

  ==> Post-Iterations <==

    Orbital Energies [Eh]
    ---------------------

    Doubly Occupied:

       1A    -20.581997     2A    -20.580405     3A    -11.297232
       4A    -11.293947     5A    -11.240459     6A    -11.240328
       7A    -11.235586     8A    -11.233858     9A    -11.232641
      10A    -11.228513    11A    -11.227518    12A    -11.226992
      13A    -11.226677    14A    -11.222228    15A    -11.221565
      16A    -11.221333    17A    -11.220916    18A     -1.400474
      19A     -1.400045    20A     -1.154517    21A     -1.149018
      22A     -1.052048    23A     -1.043219    24A     -1.019858
      25A     -1.016202    26A     -0.969871    27A     -0.928413
      28A     -0.859704    29A     -0.849518    30A     -0.838814
      31A     -0.801703    32A     -0.787176    33A     -0.733571
      34A     -0.728841    35A     -0.670074    36A     -0.668404
      37A     -0.643583    38A     -0.639713    39A     -0.611067
      40A     -0.607432    41A     -0.592738    42A     -0.589168
      43A     -0.587505    44A     -0.583297    45A     -0.581835
      46A     -0.573213    47A     -0.567181    48A     -0.566679
      49A     -0.541215    50A     -0.527308    51A     -0.519165
      52A     -0.500952    53A     -0.491997    54A     -0.488119
      55A     -0.475249    56A     -0.469883    57A     -0.463612
      58A     -0.459507    59A     -0.339481    60A     -0.336310
      61A     -0.304267    62A     -0.292935

    Virtual:

      63A      0.126275    64A      0.138095    65A      0.154081
      66A      0.157676    67A      0.172536    68A      0.180467
      69A      0.182201    70A      0.195189    71A      0.202170
      72A      0.216646    73A      0.225132    74A      0.237970
      75A      0.244226    76A      0.259549    77A      0.265921
      78A      0.271893    79A      0.276289    80A      0.277538
      81A      0.289279    82A      0.310283    83A      0.317549
      84A      0.340639    85A      0.359187    86A      0.370975
      87A      0.389970    88A      0.399456    89A      0.423036
      90A      0.426284    91A      0.433023    92A      0.455340
      93A      0.473422    94A      0.486801    95A      0.496246
      96A      0.497693    97A      0.509870    98A      0.513358
      99A      0.532988   100A      0.594951   101A      0.613701
     102A      0.622144   103A      0.625111   104A      0.643655
     105A      0.651773   106A      0.657402   107A      0.664766
     108A      0.667417   109A      0.685803   110A      0.688163
     111A      0.698534   112A      0.703072   113A      0.710091
     114A      0.718070   115A      0.728579   116A      0.731936
     117A      0.737693   118A      0.740033   119A      0.748005
     120A      0.753590   121A      0.761170   122A      0.767364
     123A      0.773853   124A      0.785391   125A      0.788953
     126A      0.793478   127A      0.808841   128A      0.820822
     129A      0.827332   130A      0.842787   131A      0.845832
     132A      0.846622   133A      0.858900   134A      0.866810
     135A      0.874482   136A      0.879494   137A      0.884318
     138A      0.885732   139A      0.894081   140A      0.895138
     141A      0.897865   142A      0.903957   143A      0.909332
     144A      0.914725   145A      0.922948   146A      0.933533
     147A      0.936366   148A      0.946711   149A      0.954761
     150A      0.962413   151A      0.970597   152A      0.981751
     153A      0.998898   154A      1.008460   155A      1.020111
     156A      1.031471   157A      1.041161   158A      1.069515
     159A      1.090203   160A      1.118697   161A      1.133628
     162A      1.142640   163A      1.144843   164A      1.154375
     165A      1.158098   166A      1.165996   167A      1.183733
     168A      1.200001   169A      1.207355   170A      1.230551
     171A      1.237630   172A      1.248652   173A      1.253362
     174A      1.264885   175A      1.275428   176A      1.282257
     177A      1.288144   178A      1.288773   179A      1.301992
     180A      1.305465   181A      1.310547   182A      1.317405
     183A      1.326442   184A      1.339741   185A      1.362089
     186A      1.365010   187A      1.371174   188A      1.381217
     189A      1.385763   190A      1.402153   191A      1.441022
     192A      1.454085   193A      1.488454   194A      1.497930
     195A      1.505729   196A      1.517511   197A      1.525949
     198A      1.537881   199A      1.562192   200A      1.582369
     201A      1.617689   202A      1.620772   203A      1.623599
     204A      1.642692   205A      1.676939   206A      1.683245
     207A      1.691887   208A      1.701908   209A      1.726727
     210A      1.732184   211A      1.741282   212A      1.752396
     213A      1.771992   214A      1.782456   215A      1.798675
     216A      1.805559   217A      1.816743   218A      1.829123
     219A      1.855978   220A      1.871560   221A      1.875744
     222A      1.888644   223A      1.895638   224A      1.898274
     225A      1.902739   226A      1.905619   227A      1.913006
     228A      1.917573   229A      1.925990   230A      1.930258
     231A      1.939091   232A      1.943840   233A      1.951244
     234A      1.952308   235A      1.956361   236A      1.962854
     237A      1.981127   238A      1.987608   239A      1.992159
     240A      2.004540   241A      2.013793   242A      2.028756
     243A      2.033032   244A      2.044598   245A      2.053066
     246A      2.058328   247A      2.067777   248A      2.071487
     249A      2.078077   250A      2.085720   251A      2.090420
     252A      2.094581   253A      2.102374   254A      2.120683
     255A      2.145069   256A      2.151435   257A      2.161800
     258A      2.188056   259A      2.196093   260A      2.206928
     261A      2.210616   262A      2.218718   263A      2.254266
     264A      2.258760   265A      2.274164   266A      2.278154
     267A      2.282273   268A      2.304942   269A      2.321764
     270A      2.328082   271A      2.341099   272A      2.364248
     273A      2.372321   274A      2.373739   275A      2.397823
     276A      2.437487   277A      2.455441   278A      2.457125
     279A      2.478097   280A      2.481089   281A      2.485010
     282A      2.512279   283A      2.529537   284A      2.535649
     285A      2.539617   286A      2.548855   287A      2.564431
     288A      2.574492   289A      2.621454   290A      2.650675
     291A      2.651372   292A      2.658529   293A      2.746581
     294A      2.761263   295A      2.773151   296A      2.778975
     297A      2.802385   298A      2.805659   299A      2.824277
     300A      2.836420   301A      2.860004   302A      2.868635
     303A      2.892708   304A      2.901526   305A      2.934387
     306A      2.965885   307A      2.973983   308A      2.990966
     309A      3.003631   310A      3.043263   311A      3.098639
     312A      3.121504   313A      3.127464   314A      3.189698
     315A      3.252056   316A      3.256704   317A      3.281365
     318A      3.310281   319A      3.349013   320A      3.354345
     321A      3.578565   322A      3.589688   323A      3.690997
     324A      3.696598   325A      3.967587   326A      3.989607
     327A      4.200754   328A      4.204389

    Final Occupation by Irrep:
              A
    DOCC [    62 ]

  @RHF Final Energy:  -728.28026720974799

   => Energetics <=

    Nuclear Repulsion Energy =           1103.0701660557879222
    One-Electron Energy =               -3180.3867141082419039
    Two-Electron Energy =                1349.0362808427059917
    Total Energy =                       -728.2802672097479899

Computation Completed

Properties will be evaluated at   0.000000,   0.000000,   0.000000 [a0]

Properties computed using the SCF density matrix

  Nuclear Dipole Moment: [e a0]
     X:    -7.5248      Y:    -7.2692      Z:    -6.9432

  Electronic Dipole Moment: [e a0]
     X:     7.5355      Y:     7.2943      Z:     7.0895

  Dipole Moment: [e a0]
     X:     0.0108      Y:     0.0251      Z:     0.1463     Total:     0.1488

  Dipole Moment: [D]
     X:     0.0273      Y:     0.0637      Z:     0.3719     Total:     0.3783

*** tstop() called on ds3 at Tue Apr 28 10:36:35 2020
Module time:
	user time   =     670.91 seconds =      11.18 minutes
	system time =     232.87 seconds =       3.88 minutes
	total time  =       1421 seconds =      23.68 minutes
Total time:
	user time   =     670.91 seconds =      11.18 minutes
	system time =     232.87 seconds =       3.88 minutes
	total time  =       1421 seconds =      23.68 minutes
                                     G D M A

                                 by Anthony Stone

                           version 2.2.06, 22 June 2011

               Distributed Multipoles from Gaussian wavefunctions

Starting at 10:36:35 on 28 Apr 2020

Using SCF density matrix from file ./SSI/SSI-007TYR-053TYR-1-dimer.test.3732.fchk

                         Distributed Multipole Analysis

Standard DMA

Positions and radii in angstrom
Multipole moments in atomic units, ea_0^k for rank k

C          x = -1.471608  y =  0.470476  z = -2.051241 angstrom
           Maximum rank =  0   Radius =  0.650 angstrom
                   Q00  =  -0.015814

C          x = -2.731608  y = -0.147524  z = -2.700241 angstrom
           Maximum rank =  0   Radius =  0.650 angstrom
                   Q00  =  -0.269430

C          x = -1.693608  y =  1.216476  z = -0.774241 angstrom
           Maximum rank =  0   Radius =  0.650 angstrom
                   Q00  =  -0.142930

C          x = -2.359608  y =  2.445476  z = -0.783241 angstrom
           Maximum rank =  0   Radius =  0.650 angstrom
                   Q00  =  -0.029702

C          x = -1.202608  y =  0.723476  z =  0.428759 angstrom
           Maximum rank =  0   Radius =  0.650 angstrom
                   Q00  =   0.050073

C          x = -2.566608  y =  3.141476  z =  0.393759 angstrom
           Maximum rank =  0   Radius =  0.650 angstrom
                   Q00  =  -0.202733

C          x = -1.411608  y =  1.404476  z =  1.602759 angstrom
           Maximum rank =  0   Radius =  0.650 angstrom
                   Q00  =  -0.112780

C          x = -2.078608  y =  2.632476  z =  1.589759 angstrom
           Maximum rank =  0   Radius =  0.650 angstrom
                   Q00  =   0.323570

O          x = -2.279608  y =  3.294476  z =  2.751759 angstrom
           Maximum rank =  0   Radius =  0.650 angstrom
                   Q00  =  -0.667975

H          x = -0.761608  y = -0.328524  z = -1.856241 angstrom
           Maximum rank =  0   Radius =  0.325 angstrom
                   Q00  =   0.065148

H          x = -1.000608  y =  1.141476  z = -2.770241 angstrom
           Maximum rank =  0   Radius =  0.325 angstrom
                   Q00  =   0.066915

H          x = -3.256608  y =  0.641476  z = -3.240241 angstrom
           Maximum rank =  0   Radius =  0.325 angstrom
                   Q00  =   0.080059

H          x = -2.735608  y =  2.846476  z = -1.716241 angstrom
           Maximum rank =  0   Radius =  0.325 angstrom
                   Q00  =   0.064859

H          x = -0.652608  y = -0.205524  z =  0.441759 angstrom
           Maximum rank =  0   Radius =  0.325 angstrom
                   Q00  =   0.070366

H          x = -3.096608  y =  4.084476  z =  0.379759 angstrom
           Maximum rank =  0   Radius =  0.325 angstrom
                   Q00  =   0.068576

H          x = -1.041608  y =  1.007476  z =  2.537759 angstrom
           Maximum rank =  0   Radius =  0.325 angstrom
                   Q00  =   0.074263

H          x = -2.760608  y =  4.120476  z =  2.614759 angstrom
           Maximum rank =  0   Radius =  0.325 angstrom
                   Q00  =   0.405393

H          x = -3.421378  y = -0.620764  z = -1.985916 angstrom
           Maximum rank =  0   Radius =  0.325 angstrom
                   Q00  =   0.088885

H          x = -2.397824  y = -0.899804  z = -3.430077 angstrom
           Maximum rank =  0   Radius =  0.325 angstrom
                   Q00  =   0.082544

C          x = -0.038608  y = -3.589524  z =  0.592759 angstrom
           Maximum rank =  0   Radius =  0.650 angstrom
                   Q00  =  -0.195300

C          x =  1.209392  y = -2.073524  z = -0.971241 angstrom
           Maximum rank =  0   Radius =  0.650 angstrom
                   Q00  =  -0.019390

C          x =  1.129392  y = -2.721524  z =  0.266759 angstrom
           Maximum rank =  0   Radius =  0.650 angstrom
                   Q00  =  -0.136539

C          x =  2.302392  y = -1.270524  z = -1.292241 angstrom
           Maximum rank =  0   Radius =  0.650 angstrom
                   Q00  =  -0.109051

C          x =  2.179392  y = -2.582524  z =  1.163759 angstrom
           Maximum rank =  0   Radius =  0.650 angstrom
                   Q00  =  -0.062080

C          x =  3.322392  y = -1.134524  z = -0.385241 angstrom
           Maximum rank =  0   Radius =  0.650 angstrom
                   Q00  =   0.404310

C          x =  3.278392  y = -1.775524  z =  0.847759 angstrom
           Maximum rank =  0   Radius =  0.650 angstrom
                   Q00  =  -0.197205

O          x =  4.386392  y = -0.358524  z = -0.730241 angstrom
           Maximum rank =  0   Radius =  0.650 angstrom
                   Q00  =  -0.671797

H          x =  0.420392  y = -2.206524  z = -1.699241 angstrom
           Maximum rank =  0   Radius =  0.325 angstrom
                   Q00  =   0.065458

H          x =  2.357392  y = -0.770524  z = -2.248241 angstrom
           Maximum rank =  0   Radius =  0.325 angstrom
                   Q00  =   0.083451

H          x =  0.301392  y = -4.603524  z =  0.792759 angstrom
           Maximum rank =  0   Radius =  0.325 angstrom
                   Q00  =   0.099602

H          x = -0.663608  y = -3.642524  z = -0.297241 angstrom
           Maximum rank =  0   Radius =  0.325 angstrom
                   Q00  =   0.093146

H          x =  2.169392  y = -3.109524  z =  2.104759 angstrom
           Maximum rank =  0   Radius =  0.325 angstrom
                   Q00  =   0.068143

H          x =  4.094392  y = -1.671524  z =  1.547759 angstrom
           Maximum rank =  0   Radius =  0.325 angstrom
                   Q00  =   0.074742

H          x =  5.048392  y = -0.328524  z = -0.030241 angstrom
           Maximum rank =  0   Radius =  0.325 angstrom
                   Q00  =   0.404598

H          x = -0.640138  y = -3.223694  z =  1.437939 angstrom
           Maximum rank =  0   Radius =  0.325 angstrom
                   Q00  =   0.098624

Total multipoles referred to origin at
           x =   0.000000,  y =    0.000000,  z =    0.000000 angstrom
                   Q00  =  -0.000000

Finished at 10:36:35 on 28 Apr 2020

  DMA results are available in the Python driver through the
	  variable('DMA DISTRIBUTED MULTIPOLES')
  and
	  variable('DMA TOTAL MULTIPOLES')
  commands.

    Psi4 stopped on: Tuesday, 28 April 2020 10:36AM
    Psi4 wall time for execution: 0:23:41.89

*** Psi4 exiting successfully. Buy a developer a beer!
