                               Psi4 1.3.2 release

  ==> Input File <==

--------------------------------------------------------------------------
import numpy as np
set {scf_type pk
basis cc-pvdz
d_convergence 10
gdma_switch   0
gdma_limit    0
gdma_origin   [ 0.0,  0.0,  0.0 ]
}
molecule test {
    units Angstrom
    0 1
    --
    0 1
    C                0.599964973403996     0.912543154237785    -1.797054092164980
    C                0.808964973403996    -0.555456845762216    -2.164054092164980
    H                0.150964973403996     0.976543154237784    -0.806054092164980
    H                1.570964973403996     1.406543154237785    -1.759054092164980
    H               -0.033035026596004     1.461543154237785    -2.478054092164980
    H                1.389964973403996    -0.985456845762215    -1.347054092164980
    H                1.401964973403996    -0.685456845762216    -3.041054092164980
    H               -0.127615026596004    -1.124016845762215    -2.261814092164979
    C               -0.111035026596004    -0.549456845762216     1.682945907835020
    C               -1.307035026596004     0.193543154237785     2.269945907835020
    H                0.209964973403996    -1.355456845762216     2.337945907835020
    H               -0.398035026596004    -0.988456845762215     0.728945907835020
    H                0.711964973403996     0.144543154237785     1.515945907835020
    H               -1.656035026596004     0.887543154237785     1.528945907835020
    H               -1.003375026596004     0.765043154237784     3.159425907835021
    H               -2.108865026596004    -0.516876845762215     2.519705907835020

}
e, wfn = energy('scf', return_wfn=True)
gdma(wfn)
dmavals = variable('DMA DISTRIBUTED MULTIPOLES')
charges = np.array(dmavals)
print(charges)
np.save('SSI-082ILE-186VAL-1-dimer.npy', np.array(charges))--------------------------------------------------------------------------

*** tstart() called on ds3
*** at Tue Apr 28 20:16:43 2020

   => Loading Basis Set <=

    Name: CC-PVDZ
    Role: ORBITAL
    Keyword: BASIS
    atoms 1-2, 9-10  entry C          line   138 file /theoryfs2/ds/metcalf/miniconda2/envs/tf2gpu/share/psi4/basis/cc-pvdz.gbs
    atoms 3-8, 11-16 entry H          line    22 file /theoryfs2/ds/metcalf/miniconda2/envs/tf2gpu/share/psi4/basis/cc-pvdz.gbs

         ---------------------------------------------------------
                                   SCF
               by Justin Turney, Rob Parrish, Andy Simmonett
                          and Daniel G. A. Smith
                              RHF Reference
                        1 Threads,    500 MiB Core
         ---------------------------------------------------------

  ==> Geometry <==

    Molecular point group: c1
    Full point group: C1

    Geometry (in Angstrom), charge = 0, multiplicity = 1:

       Center              X                  Y                   Z               Mass
    ------------   -----------------  -----------------  -----------------  -----------------
         C            0.599964973404     0.912543154238    -1.797054092165    12.000000000000
         C            0.808964973404    -0.555456845762    -2.164054092165    12.000000000000
         H            0.150964973404     0.976543154238    -0.806054092165     1.007825032230
         H            1.570964973404     1.406543154238    -1.759054092165     1.007825032230
         H           -0.033035026596     1.461543154238    -2.478054092165     1.007825032230
         H            1.389964973404    -0.985456845762    -1.347054092165     1.007825032230
         H            1.401964973404    -0.685456845762    -3.041054092165     1.007825032230
         H           -0.127615026596    -1.124016845762    -2.261814092165     1.007825032230
         C           -0.111035026596    -0.549456845762     1.682945907835    12.000000000000
         C           -1.307035026596     0.193543154238     2.269945907835    12.000000000000
         H            0.209964973404    -1.355456845762     2.337945907835     1.007825032230
         H           -0.398035026596    -0.988456845762     0.728945907835     1.007825032230
         H            0.711964973404     0.144543154238     1.515945907835     1.007825032230
         H           -1.656035026596     0.887543154238     1.528945907835     1.007825032230
         H           -1.003375026596     0.765043154238     3.159425907835     1.007825032230
         H           -2.108865026596    -0.516876845762     2.519705907835     1.007825032230

  Running in c1 symmetry.

  Rotational constants: A =      0.39623  B =      0.05799  C =      0.05405 [cm^-1]
  Rotational constants: A =  11878.77512  B =   1738.55830  C =   1620.23428 [MHz]
  Nuclear repulsion =  124.842299327808718

  Charge       = 0
  Multiplicity = 1
  Electrons    = 36
  Nalpha       = 18
  Nbeta        = 18

  ==> Algorithm <==

  SCF Algorithm Type is PK.
  DIIS enabled.
  MOM disabled.
  Fractional occupation disabled.
  Guess Type is SAD.
  Energy threshold   = 1.00e-06
  Density threshold  = 1.00e-10
  Integral threshold = 0.00e+00

  ==> Primary Basis <==

  Basis Set: CC-PVDZ
    Blend: CC-PVDZ
    Number of shells: 60
    Number of basis function: 116
    Number of Cartesian functions: 120
    Spherical Harmonics?: true
    Max angular momentum: 2

  ==> Pre-Iterations <==

   -------------------------------------------------------
    Irrep   Nso     Nmo     Nalpha   Nbeta   Ndocc  Nsocc
   -------------------------------------------------------
     A        116     116       0       0       0       0
   -------------------------------------------------------
    Total     116     116      18      18      18       0
   -------------------------------------------------------

  ==> Integral Setup <==

  Using integral reordering PK algorithm.
  Sizing the integral batches needed.
  Building batch lookup table.
   Calculation information:
      Number of atoms:                  16
      Number of AO shells:              60
      Number of primitives:            148
      Number of atomic orbitals:       120
      Number of basis functions:       116

      Integral cutoff                 1.00e-12
      Number of threads:                 1

	Batch   1 pq = [       0,    6786] index = [             0,23028291] size =     23028291
  Task number: 3
  Buffer size: 11059200
  Buffer per thread: 2
  We computed 1528916 shell quartets total.
  Whereas there are 1675365 unique shell quartets.

  ==> DiskJK: Disk-Based J/K Matrices <==

    J tasked:                  Yes
    K tasked:                  Yes
    wK tasked:                  No
    Memory [MiB]:              375
    Schwarz Cutoff:          1E-12

    OpenMP threads:              1

  Minimum eigenvalue in the overlap matrix is 7.3996044393E-03.
  Using Symmetric Orthogonalization.

  SCF Guess: Superposition of Atomic Densities via on-the-fly atomic UHF.

  ==> Iterations <==

                        Total Energy        Delta E     RMS |[F,P]|

   @RHF iter SAD:  -157.39272772623175   -1.57393e+02   0.00000e+00
   @RHF iter   1:  -158.30526493614184   -9.12537e-01   4.23042e-03 DIIS
   @RHF iter   2:  -158.43945785420490   -1.34193e-01   1.79498e-03 DIIS
   @RHF iter   3:  -158.46281059540098   -2.33527e-02   3.50277e-04 DIIS
   @RHF iter   4:  -158.46464854343409   -1.83795e-03   3.89278e-05 DIIS
   @RHF iter   5:  -158.46467243474700   -2.38913e-05   6.25323e-06 DIIS
   @RHF iter   6:  -158.46467303955245   -6.04805e-07   7.06414e-07 DIIS
   @RHF iter   7:  -158.46467304638912   -6.83667e-09   1.50310e-07 DIIS
   @RHF iter   8:  -158.46467304660490   -2.15778e-10   3.88642e-08 DIIS
   @RHF iter   9:  -158.46467304662411   -1.92131e-11   8.23875e-09 DIIS
   @RHF iter  10:  -158.46467304662485   -7.38964e-13   1.97523e-09 DIIS
   @RHF iter  11:  -158.46467304662482    2.84217e-14   4.07968e-10 DIIS
   @RHF iter  12:  -158.46467304662528   -4.54747e-13   1.20543e-10 DIIS
   @RHF iter  13:  -158.46467304662522    5.68434e-14   2.50128e-11 DIIS
  Energy and wave function converged.

  ==> Post-Iterations <==

    Orbital Energies [Eh]
    ---------------------

    Doubly Occupied:

       1A    -11.217689     2A    -11.215991     3A    -11.215824
       4A    -11.215404     5A     -1.021965     6A     -1.018231
       7A     -0.842500     8A     -0.837867     9A     -0.607731
      10A     -0.600530    11A     -0.596924    12A     -0.590960
      13A     -0.506382    14A     -0.499561    15A     -0.490906
      16A     -0.487202    17A     -0.484777    18A     -0.481915

    Virtual:

      19A      0.171020    20A      0.201381    21A      0.225011
      22A      0.230925    23A      0.250323    24A      0.256587
      25A      0.260520    26A      0.277284    27A      0.281587
      28A      0.293711    29A      0.308471    30A      0.353824
      31A      0.396457    32A      0.404311    33A      0.578786
      34A      0.594415    35A      0.604683    36A      0.605926
      37A      0.621204    38A      0.628421    39A      0.679886
      40A      0.685516    41A      0.717027    42A      0.797141
      43A      0.840406    44A      0.851581    45A      0.884536
      46A      0.891287    47A      0.896028    48A      0.899470
      49A      0.903595    50A      0.909799    51A      0.919049
      52A      0.939500    53A      0.947796    54A      0.967991
      55A      0.992314    56A      1.024812    57A      1.124817
      58A      1.127287    59A      1.133795    60A      1.145564
      61A      1.239390    62A      1.272306    63A      1.450636
      64A      1.460247    65A      1.475422    66A      1.487320
      67A      1.595781    68A      1.600268    69A      1.681725
      70A      1.694870    71A      1.695822    72A      1.712415
      73A      1.844102    74A      1.855772    75A      1.865148
      76A      1.883415    77A      1.901096    78A      1.917319
      79A      1.931408    80A      1.941917    81A      1.947693
      82A      1.952400    83A      1.959345    84A      1.970945
      85A      1.978806    86A      1.983172    87A      2.001238
      88A      2.021812    89A      2.100131    90A      2.112514
      91A      2.127905    92A      2.133501    93A      2.296049
      94A      2.316993    95A      2.332544    96A      2.337822
      97A      2.454563    98A      2.456656    99A      2.468377
     100A      2.474725   101A      2.566826   102A      2.571255
     103A      2.583823   104A      2.590548   105A      2.767978
     106A      2.785587   107A      2.795864   108A      2.806125
     109A      2.849662   110A      2.869020   111A      2.877440
     112A      2.912261   113A      2.945695   114A      2.960025
     115A      2.975116   116A      3.006353

    Final Occupation by Irrep:
              A
    DOCC [    18 ]

  @RHF Final Energy:  -158.46467304662522

   => Energetics <=

    Nuclear Repulsion Energy =            124.8422993278087176
    One-Electron Energy =                -458.7492263688793059
    Two-Electron Energy =                 175.4422539944453945
    Total Energy =                       -158.4646730466252222

Computation Completed

Properties will be evaluated at   0.000000,   0.000000,   0.000000 [a0]

Properties computed using the SCF density matrix

  Nuclear Dipole Moment: [e a0]
     X:     0.1020      Y:    -0.0131      Z:     0.0917

  Electronic Dipole Moment: [e a0]
     X:    -0.0837      Y:     0.0109      Z:    -0.0927

  Dipole Moment: [e a0]
     X:     0.0183      Y:    -0.0022      Z:    -0.0010     Total:     0.0185

  Dipole Moment: [D]
     X:     0.0466      Y:    -0.0056      Z:    -0.0025     Total:     0.0470

*** tstop() called on ds3 at Tue Apr 28 20:16:53 2020
Module time:
	user time   =       8.06 seconds =       0.13 minutes
	system time =       3.01 seconds =       0.05 minutes
	total time  =         10 seconds =       0.17 minutes
Total time:
	user time   =       8.06 seconds =       0.13 minutes
	system time =       3.01 seconds =       0.05 minutes
	total time  =         10 seconds =       0.17 minutes
                                     G D M A

                                 by Anthony Stone

                           version 2.2.06, 22 June 2011

               Distributed Multipoles from Gaussian wavefunctions

Starting at 20:16:53 on 28 Apr 2020

Using SCF density matrix from file ./SSI/SSI-082ILE-186VAL-1-dimer.test.17034.fchk

                         Distributed Multipole Analysis

Standard DMA

Positions and radii in angstrom
Multipole moments in atomic units, ea_0^k for rank k

C          x =  0.599965  y =  0.912543  z = -1.797054 angstrom
           Maximum rank =  0   Radius =  0.650 angstrom
                   Q00  =  -0.227317

C          x =  0.808965  y = -0.555457  z = -2.164054 angstrom
           Maximum rank =  0   Radius =  0.650 angstrom
                   Q00  =  -0.250813

H          x =  0.150965  y =  0.976543  z = -0.806054 angstrom
           Maximum rank =  0   Radius =  0.325 angstrom
                   Q00  =   0.079361

H          x =  1.570965  y =  1.406543  z = -1.759054 angstrom
           Maximum rank =  0   Radius =  0.325 angstrom
                   Q00  =   0.077869

H          x = -0.033035  y =  1.461543  z = -2.478054 angstrom
           Maximum rank =  0   Radius =  0.325 angstrom
                   Q00  =   0.081504

H          x =  1.389965  y = -0.985457  z = -1.347054 angstrom
           Maximum rank =  0   Radius =  0.325 angstrom
                   Q00  =   0.074769

H          x =  1.401965  y = -0.685457  z = -3.041054 angstrom
           Maximum rank =  0   Radius =  0.325 angstrom
                   Q00  =   0.085230

H          x = -0.127615  y = -1.124017  z = -2.261814 angstrom
           Maximum rank =  0   Radius =  0.325 angstrom
                   Q00  =   0.079664

C          x = -0.111035  y = -0.549457  z =  1.682946 angstrom
           Maximum rank =  0   Radius =  0.650 angstrom
                   Q00  =  -0.230553

C          x = -1.307035  y =  0.193543  z =  2.269946 angstrom
           Maximum rank =  0   Radius =  0.650 angstrom
                   Q00  =  -0.243241

H          x =  0.209965  y = -1.355457  z =  2.337946 angstrom
           Maximum rank =  0   Radius =  0.325 angstrom
                   Q00  =   0.080281

H          x = -0.398035  y = -0.988457  z =  0.728946 angstrom
           Maximum rank =  0   Radius =  0.325 angstrom
                   Q00  =   0.077935

H          x =  0.711965  y =  0.144543  z =  1.515946 angstrom
           Maximum rank =  0   Radius =  0.325 angstrom
                   Q00  =   0.078518

H          x = -1.656035  y =  0.887543  z =  1.528946 angstrom
           Maximum rank =  0   Radius =  0.325 angstrom
                   Q00  =   0.079315

H          x = -1.003375  y =  0.765043  z =  3.159426 angstrom
           Maximum rank =  0   Radius =  0.325 angstrom
                   Q00  =   0.078036

H          x = -2.108865  y = -0.516877  z =  2.519706 angstrom
           Maximum rank =  0   Radius =  0.325 angstrom
                   Q00  =   0.079443

Total multipoles referred to origin at
           x =   0.000000,  y =    0.000000,  z =    0.000000 angstrom
                   Q00  =  -0.000000

Finished at 20:16:53 on 28 Apr 2020

  DMA results are available in the Python driver through the
	  variable('DMA DISTRIBUTED MULTIPOLES')
  and
	  variable('DMA TOTAL MULTIPOLES')
  commands.

    Psi4 stopped on: Tuesday, 28 April 2020 08:16PM
    Psi4 wall time for execution: 0:00:10.85

*** Psi4 exiting successfully. Buy a developer a beer!
