                               Psi4 1.3.2 release

  ==> Input File <==

--------------------------------------------------------------------------
import numpy as np
set {scf_type pk
basis cc-pvdz
d_convergence 10
gdma_switch   0
gdma_limit    0
gdma_origin   [ 0.0,  0.0,  0.0 ]
}
molecule test {
    units Angstrom
    0 1
    --
    0 1
    C                0.679705244375215     0.575151798805421    -2.567830815574474
    C                1.395705244375215    -0.743848201194579    -2.784830815574474
    H               -0.395294755624785     0.421151798805421    -2.603830815574474
    H                0.918705244375215     0.964151798805421    -1.578830815574473
    H                0.997705244375215     1.302151798805421    -3.312830815574474
    H                0.996705244375215    -1.458848201194579    -2.064830815574473
    H                1.227118244375215    -1.126935201194579    -3.802092815574474
    H                2.469576244375216    -0.614039201194579    -2.584954815574473
    C               -2.122294755624785     1.390151798805421     0.730169184425527
    C               -0.962294755624785     0.437151798805421     0.890169184425527
    C               -0.890294755624785    -0.898848201194579     0.644169184425527
    C                1.086705244375215    -0.237848201194579     1.355169184425526
    N                0.290705244375215     0.827151798805421     1.333169184425527
    N                0.395705244375215    -1.295848201194579     0.947169184425527
    H               -2.324294755624785     1.893151798805421     1.677169184425527
    H               -3.002294755624785     0.799151798805421     0.469169184425527
    H               -1.697294755624785    -1.525848201194579     0.284169184425526
    H                2.128705244375215    -0.242848201194579     1.657169184425527
    H                0.763705244375215    -2.238848201194579     0.878169184425526
    H               -1.942773755624785     2.125537798805421    -0.067940815574473

}
e, wfn = energy('scf', return_wfn=True)
gdma(wfn)
dmavals = variable('DMA DISTRIBUTED MULTIPOLES')
charges = np.array(dmavals)
print(charges)
np.save('SSI-002VAL-043HIE-2-dimer.npy', np.array(charges))--------------------------------------------------------------------------

*** tstart() called on ds3
*** at Mon Apr 27 14:00:08 2020

   => Loading Basis Set <=

    Name: CC-PVDZ
    Role: ORBITAL
    Keyword: BASIS
    atoms 1-2, 9-12  entry C          line   138 file /theoryfs2/ds/metcalf/miniconda2/envs/tf2gpu/share/psi4/basis/cc-pvdz.gbs
    atoms 3-8, 15-20 entry H          line    22 file /theoryfs2/ds/metcalf/miniconda2/envs/tf2gpu/share/psi4/basis/cc-pvdz.gbs
    atoms 13-14      entry N          line   168 file /theoryfs2/ds/metcalf/miniconda2/envs/tf2gpu/share/psi4/basis/cc-pvdz.gbs

         ---------------------------------------------------------
                                   SCF
               by Justin Turney, Rob Parrish, Andy Simmonett
                          and Daniel G. A. Smith
                              RHF Reference
                        1 Threads,    500 MiB Core
         ---------------------------------------------------------

  ==> Geometry <==

    Molecular point group: c1
    Full point group: C1

    Geometry (in Angstrom), charge = 0, multiplicity = 1:

       Center              X                  Y                   Z               Mass
    ------------   -----------------  -----------------  -----------------  -----------------
         C            0.679705244375     0.575151798805    -2.567830815574    12.000000000000
         C            1.395705244375    -0.743848201195    -2.784830815574    12.000000000000
         H           -0.395294755625     0.421151798805    -2.603830815574     1.007825032230
         H            0.918705244375     0.964151798805    -1.578830815574     1.007825032230
         H            0.997705244375     1.302151798805    -3.312830815574     1.007825032230
         H            0.996705244375    -1.458848201195    -2.064830815574     1.007825032230
         H            1.227118244375    -1.126935201195    -3.802092815574     1.007825032230
         H            2.469576244375    -0.614039201195    -2.584954815574     1.007825032230
         C           -2.122294755625     1.390151798805     0.730169184426    12.000000000000
         C           -0.962294755625     0.437151798805     0.890169184426    12.000000000000
         C           -0.890294755625    -0.898848201195     0.644169184426    12.000000000000
         C            1.086705244375    -0.237848201195     1.355169184426    12.000000000000
         N            0.290705244375     0.827151798805     1.333169184426    14.003074004430
         N            0.395705244375    -1.295848201195     0.947169184426    14.003074004430
         H           -2.324294755625     1.893151798805     1.677169184426     1.007825032230
         H           -3.002294755625     0.799151798805     0.469169184426     1.007825032230
         H           -1.697294755625    -1.525848201195     0.284169184426     1.007825032230
         H            2.128705244375    -0.242848201195     1.657169184426     1.007825032230
         H            0.763705244375    -2.238848201195     0.878169184426     1.007825032230
         H           -1.942773755625     2.125537798805    -0.067940815574     1.007825032230

  Running in c1 symmetry.

  Rotational constants: A =      0.08052  B =      0.04066  C =      0.03319 [cm^-1]
  Rotational constants: A =   2413.92676  B =   1219.08756  C =    994.97854 [MHz]
  Nuclear repulsion =  365.219604880148665

  Charge       = 0
  Multiplicity = 1
  Electrons    = 62
  Nalpha       = 31
  Nbeta        = 31

  ==> Algorithm <==

  SCF Algorithm Type is PK.
  DIIS enabled.
  MOM disabled.
  Fractional occupation disabled.
  Guess Type is SAD.
  Energy threshold   = 1.00e-06
  Density threshold  = 1.00e-10
  Integral threshold = 0.00e+00

  ==> Primary Basis <==

  Basis Set: CC-PVDZ
    Blend: CC-PVDZ
    Number of shells: 84
    Number of basis function: 172
    Number of Cartesian functions: 180
    Spherical Harmonics?: true
    Max angular momentum: 2

  ==> Pre-Iterations <==

   -------------------------------------------------------
    Irrep   Nso     Nmo     Nalpha   Nbeta   Ndocc  Nsocc
   -------------------------------------------------------
     A        172     172       0       0       0       0
   -------------------------------------------------------
    Total     172     172      31      31      31       0
   -------------------------------------------------------

  ==> Integral Setup <==

  Using integral reordering PK algorithm.
  Sizing the integral batches needed.
  Building batch lookup table.
   Calculation information:
      Number of atoms:                  20
      Number of AO shells:              84
      Number of primitives:            236
      Number of atomic orbitals:       180
      Number of basis functions:       172

      Integral cutoff                 1.00e-12
      Number of threads:                 1

	Batch   1 pq = [       0,    9405] index = [             0,44231715] size =     44231715
	Batch   2 pq = [    9405,   13301] index = [      44231715,88464951] size =     44233236
	Batch   3 pq = [   13301,   14878] index = [      88464951,110684881] size =     22219930
  Task number: 11
  Buffer size: 11059200
  Buffer per thread: 2
  We computed 6105861 shell quartets total.
  Whereas there are 6374235 unique shell quartets.

  ==> DiskJK: Disk-Based J/K Matrices <==

    J tasked:                  Yes
    K tasked:                  Yes
    wK tasked:                  No
    Memory [MiB]:              375
    Schwarz Cutoff:          1E-12

    OpenMP threads:              1

  Minimum eigenvalue in the overlap matrix is 1.1916173380E-03.
  Using Symmetric Orthogonalization.

  SCF Guess: Superposition of Atomic Densities via on-the-fly atomic UHF.

  ==> Iterations <==

                        Total Energy        Delta E     RMS |[F,P]|

   @RHF iter SAD:  -342.18516653714676   -3.42185e+02   0.00000e+00
   @RHF iter   1:  -342.88781506019575   -7.02649e-01   3.37193e-03 DIIS
   @RHF iter   2:  -343.06056465851810   -1.72750e-01   1.71256e-03 DIIS
   @RHF iter   3:  -343.10162214445853   -4.10575e-02   4.31931e-04 DIIS
   @RHF iter   4:  -343.10505969142775   -3.43755e-03   1.83736e-04 DIIS
   @RHF iter   5:  -343.10563082214560   -5.71131e-04   2.69397e-05 DIIS
   @RHF iter   6:  -343.10565222948799   -2.14073e-05   1.15755e-05 DIIS
   @RHF iter   7:  -343.10565575899449   -3.52951e-06   4.13346e-06 DIIS
   @RHF iter   8:  -343.10565653150144   -7.72507e-07   1.64955e-06 DIIS
   @RHF iter   9:  -343.10565670003103   -1.68530e-07   5.77797e-07 DIIS
   @RHF iter  10:  -343.10565671589700   -1.58660e-08   1.79883e-07 DIIS
   @RHF iter  11:  -343.10565671770979   -1.81279e-09   8.11849e-08 DIIS
   @RHF iter  12:  -343.10565671796184   -2.52044e-10   3.22855e-08 DIIS
   @RHF iter  13:  -343.10565671800941   -4.75779e-11   8.93127e-09 DIIS
   @RHF iter  14:  -343.10565671801203   -2.61480e-12   3.26784e-09 DIIS
   @RHF iter  15:  -343.10565671801407   -2.04636e-12   1.30851e-09 DIIS
   @RHF iter  16:  -343.10565671801379    2.84217e-13   4.17043e-10 DIIS
   @RHF iter  17:  -343.10565671801248    1.30740e-12   1.30226e-10 DIIS
   @RHF iter  18:  -343.10565671801214    3.41061e-13   4.47822e-11 DIIS
  Energy and wave function converged.

  ==> Post-Iterations <==

    Orbital Energies [Eh]
    ---------------------

    Doubly Occupied:

       1A    -15.622828     2A    -15.529753     3A    -11.295162
       4A    -11.252950     5A    -11.244340     6A    -11.226833
       7A    -11.214214     8A    -11.204628     9A     -1.341809
      10A     -1.152720    11A     -1.031059    12A     -1.014721
      13A     -0.941080    14A     -0.828139    15A     -0.818183
      16A     -0.762575    17A     -0.742143    18A     -0.610162
      19A     -0.609194    20A     -0.596489    21A     -0.593904
      22A     -0.587646    23A     -0.553962    24A     -0.541806
      25A     -0.521594    26A     -0.494484    27A     -0.479480
      28A     -0.476448    29A     -0.410496    30A     -0.377827
      31A     -0.311972

    Virtual:

      32A      0.163761    33A      0.183650    34A      0.191111
      35A      0.209011    36A      0.221004    37A      0.223214
      38A      0.233437    39A      0.255412    40A      0.263878
      41A      0.268906    42A      0.286256    43A      0.294560
      44A      0.301406    45A      0.315503    46A      0.380955
      47A      0.389503    48A      0.406165    49A      0.418399
      50A      0.483239    51A      0.492942    52A      0.584936
      53A      0.595112    54A      0.603631    55A      0.616437
      56A      0.625831    57A      0.639876    58A      0.666121
      59A      0.675147    60A      0.681888    61A      0.724668
      62A      0.742541    63A      0.754366    64A      0.783223
      65A      0.808382    66A      0.821346    67A      0.834926
      68A      0.855422    69A      0.868221    70A      0.887437
      71A      0.895127    72A      0.901677    73A      0.907110
      74A      0.910834    75A      0.917253    76A      0.944261
      77A      0.948629    78A      0.957299    79A      0.961245
      80A      0.977968    81A      1.000686    82A      1.028873
      83A      1.092100    84A      1.098309    85A      1.107900
      86A      1.119258    87A      1.125927    88A      1.139296
      89A      1.172154    90A      1.186906    91A      1.252696
      92A      1.267040    93A      1.278848    94A      1.318211
      95A      1.327843    96A      1.332504    97A      1.421306
      98A      1.438221    99A      1.480890   100A      1.485112
     101A      1.502953   102A      1.519199   103A      1.565893
     104A      1.579342   105A      1.599752   106A      1.633938
     107A      1.676991   108A      1.684153   109A      1.698274
     110A      1.752253   111A      1.770880   112A      1.805632
     113A      1.816412   114A      1.858599   115A      1.867295
     116A      1.887709   117A      1.900514   118A      1.913377
     119A      1.925286   120A      1.947330   121A      1.948629
     122A      1.959040   123A      1.962423   124A      1.964826
     125A      1.971095   126A      1.988404   127A      2.007315
     128A      2.018732   129A      2.023268   130A      2.098128
     131A      2.112630   132A      2.123227   133A      2.125576
     134A      2.131314   135A      2.175364   136A      2.208768
     137A      2.229130   138A      2.294528   139A      2.311928
     140A      2.323818   141A      2.358410   142A      2.390147
     143A      2.438468   144A      2.449693   145A      2.467964
     146A      2.475482   147A      2.493205   148A      2.537879
     149A      2.576212   150A      2.592399   151A      2.603447
     152A      2.683184   153A      2.733985   154A      2.743301
     155A      2.771460   156A      2.781431   157A      2.789866
     158A      2.812198   159A      2.816738   160A      2.859094
     161A      2.861479   162A      2.868450   163A      2.890444
     164A      2.903663   165A      2.949730   166A      2.975962
     167A      2.991092   168A      3.062101   169A      3.159488
     170A      3.229981   171A      3.463330   172A      3.790264

    Final Occupation by Irrep:
              A
    DOCC [    31 ]

  @RHF Final Energy:  -343.10565671801214

   => Energetics <=

    Nuclear Repulsion Energy =            365.2196048801486654
    One-Electron Energy =               -1187.8733213351406448
    Two-Electron Energy =                 479.5480597369798943
    Total Energy =                       -343.1056567180121419

Computation Completed

Properties will be evaluated at   0.000000,   0.000000,   0.000000 [a0]

Properties computed using the SCF density matrix

  Nuclear Dipole Moment: [e a0]
     X:     0.1295      Y:     0.2807      Z:   -10.3652

  Electronic Dipole Moment: [e a0]
     X:    -0.0669      Y:    -1.5767      Z:    10.2540

  Dipole Moment: [e a0]
     X:     0.0626      Y:    -1.2961      Z:    -0.1112     Total:     1.3023

  Dipole Moment: [D]
     X:     0.1590      Y:    -3.2943      Z:    -0.2826     Total:     3.3102

*** tstop() called on ds3 at Mon Apr 27 14:01:11 2020
Module time:
	user time   =      46.63 seconds =       0.78 minutes
	system time =      18.02 seconds =       0.30 minutes
	total time  =         63 seconds =       1.05 minutes
Total time:
	user time   =      46.63 seconds =       0.78 minutes
	system time =      18.02 seconds =       0.30 minutes
	total time  =         63 seconds =       1.05 minutes
                                     G D M A

                                 by Anthony Stone

                           version 2.2.06, 22 June 2011

               Distributed Multipoles from Gaussian wavefunctions

Starting at 14:1:11 on 27 Apr 2020

Using SCF density matrix from file ./SSI/SSI-002VAL-043HIE-2-dimer.test.8480.fchk

                         Distributed Multipole Analysis

Standard DMA

Positions and radii in angstrom
Multipole moments in atomic units, ea_0^k for rank k

C          x =  0.679705  y =  0.575152  z = -2.567831 angstrom
           Maximum rank =  0   Radius =  0.650 angstrom
                   Q00  =  -0.225580

C          x =  1.395705  y = -0.743848  z = -2.784831 angstrom
           Maximum rank =  0   Radius =  0.650 angstrom
                   Q00  =  -0.228928

H          x = -0.395295  y =  0.421152  z = -2.603831 angstrom
           Maximum rank =  0   Radius =  0.325 angstrom
                   Q00  =   0.074842

H          x =  0.918705  y =  0.964152  z = -1.578831 angstrom
           Maximum rank =  0   Radius =  0.325 angstrom
                   Q00  =   0.091061

H          x =  0.997705  y =  1.302152  z = -3.312831 angstrom
           Maximum rank =  0   Radius =  0.325 angstrom
                   Q00  =   0.072366

H          x =  0.996705  y = -1.458848  z = -2.064831 angstrom
           Maximum rank =  0   Radius =  0.325 angstrom
                   Q00  =   0.065029

H          x =  1.227118  y = -1.126935  z = -3.802093 angstrom
           Maximum rank =  0   Radius =  0.325 angstrom
                   Q00  =   0.074573

H          x =  2.469576  y = -0.614039  z = -2.584955 angstrom
           Maximum rank =  0   Radius =  0.325 angstrom
                   Q00  =   0.073196

C          x = -2.122295  y =  1.390152  z =  0.730169 angstrom
           Maximum rank =  0   Radius =  0.650 angstrom
                   Q00  =  -0.188985

C          x = -0.962295  y =  0.437152  z =  0.890169 angstrom
           Maximum rank =  0   Radius =  0.650 angstrom
                   Q00  =   0.219772

C          x = -0.890295  y = -0.898848  z =  0.644169 angstrom
           Maximum rank =  0   Radius =  0.650 angstrom
                   Q00  =  -0.001548

C          x =  1.086705  y = -0.237848  z =  1.355169 angstrom
           Maximum rank =  0   Radius =  0.650 angstrom
                   Q00  =   0.463474

N          x =  0.290705  y =  0.827152  z =  1.333169 angstrom
           Maximum rank =  0   Radius =  0.650 angstrom
                   Q00  =  -0.774228

N          x =  0.395705  y = -1.295848  z =  0.947169 angstrom
           Maximum rank =  0   Radius =  0.650 angstrom
                   Q00  =  -0.478579

H          x = -2.324295  y =  1.893152  z =  1.677169 angstrom
           Maximum rank =  0   Radius =  0.325 angstrom
                   Q00  =   0.113954

H          x = -3.002295  y =  0.799152  z =  0.469169 angstrom
           Maximum rank =  0   Radius =  0.325 angstrom
                   Q00  =   0.090020

H          x = -1.697295  y = -1.525848  z =  0.284169 angstrom
           Maximum rank =  0   Radius =  0.325 angstrom
                   Q00  =   0.102739

H          x =  2.128705  y = -0.242848  z =  1.657169 angstrom
           Maximum rank =  0   Radius =  0.325 angstrom
                   Q00  =   0.124759

H          x =  0.763705  y = -2.238848  z =  0.878169 angstrom
           Maximum rank =  0   Radius =  0.325 angstrom
                   Q00  =   0.222149

H          x = -1.942774  y =  2.125538  z = -0.067941 angstrom
           Maximum rank =  0   Radius =  0.325 angstrom
                   Q00  =   0.109914

Total multipoles referred to origin at
           x =   0.000000,  y =    0.000000,  z =    0.000000 angstrom
                   Q00  =  -0.000000

Finished at 14:1:11 on 27 Apr 2020

  DMA results are available in the Python driver through the
	  variable('DMA DISTRIBUTED MULTIPOLES')
  and
	  variable('DMA TOTAL MULTIPOLES')
  commands.

    Psi4 stopped on: Monday, 27 April 2020 02:01PM
    Psi4 wall time for execution: 0:01:02.69

*** Psi4 exiting successfully. Buy a developer a beer!
