                               Psi4 1.3.2 release

  ==> Input File <==

--------------------------------------------------------------------------
import numpy as np
set {scf_type pk
basis cc-pvdz
d_convergence 10
gdma_switch   0
gdma_limit    0
gdma_origin   [ 0.0,  0.0,  0.0 ]
}
molecule test {
    units Angstrom
    0 1
    --
    0 1
    C                0.638567548511931     2.590692735318076     1.694049739910816
    C               -0.625432451488069     3.021692735318076     2.468049739910817
    H                1.500567548511931     2.631692735318077     2.356049739910817
    H                0.523567548511931     1.559692735318077     1.365049739910816
    H                0.804567548511931     3.232692735318077     0.828049739910816
    H               -0.784432451488069     2.374692735318077     3.329049739910817
    H               -0.502108451488069     4.065362735318076     2.792919739910816
    H               -1.464570451488069     2.923302735318076     1.763659739910816
    C               -0.610432451488069     1.717692735318077    -2.036950260089184
    C               -0.283432451488069     0.450692735318077    -1.256950260089184
    C               -1.315432451488069    -0.460307264681923    -0.914950260089184
    C                1.055567548511931     0.157692735318077    -0.870950260089184
    C               -1.021432451488069    -1.663307264681923    -0.279950260089184
    C                1.356567548511931    -1.050307264681923    -0.222950260089184
    C                0.296567548511931    -1.955307264681923     0.072049739910816
    O                0.523567548511931    -3.131307264681923     0.733049739910816
    H               -0.022432451488069     2.549692735318077    -1.645950260089184
    H               -1.658432451488069     1.953692735318077    -1.852950260089184
    H               -2.338432451488070    -0.237307264681923    -1.188950260089184
    H                1.847567548511931     0.855692735318077    -1.102950260089184
    H               -1.817432451488070    -2.353307264681924    -0.037950260089184
    H                2.368567548511931    -1.286307264681923     0.069049739910816
    H               -0.283432451488069    -3.638307264681924     0.864049739910816
    H               -0.423670451488069     1.615757735318077    -3.116176260089184

}
e, wfn = energy('scf', return_wfn=True)
gdma(wfn)
dmavals = variable('DMA DISTRIBUTED MULTIPOLES')
charges = np.array(dmavals)
print(charges)
np.save('SSI-185VAL-228TYR-1-dimer.npy', np.array(charges))--------------------------------------------------------------------------

*** tstart() called on ds3
*** at Mon Apr 27 07:34:41 2020

   => Loading Basis Set <=

    Name: CC-PVDZ
    Role: ORBITAL
    Keyword: BASIS
    atoms 1-2, 9-15  entry C          line   138 file /theoryfs2/ds/metcalf/miniconda2/envs/tf2gpu/share/psi4/basis/cc-pvdz.gbs
    atoms 3-8, 17-24 entry H          line    22 file /theoryfs2/ds/metcalf/miniconda2/envs/tf2gpu/share/psi4/basis/cc-pvdz.gbs
    atoms 16         entry O          line   198 file /theoryfs2/ds/metcalf/miniconda2/envs/tf2gpu/share/psi4/basis/cc-pvdz.gbs

         ---------------------------------------------------------
                                   SCF
               by Justin Turney, Rob Parrish, Andy Simmonett
                          and Daniel G. A. Smith
                              RHF Reference
                        1 Threads,    500 MiB Core
         ---------------------------------------------------------

  ==> Geometry <==

    Molecular point group: c1
    Full point group: C1

    Geometry (in Angstrom), charge = 0, multiplicity = 1:

       Center              X                  Y                   Z               Mass
    ------------   -----------------  -----------------  -----------------  -----------------
         C            0.638567548512     2.590692735318     1.694049739911    12.000000000000
         C           -0.625432451488     3.021692735318     2.468049739911    12.000000000000
         H            1.500567548512     2.631692735318     2.356049739911     1.007825032230
         H            0.523567548512     1.559692735318     1.365049739911     1.007825032230
         H            0.804567548512     3.232692735318     0.828049739911     1.007825032230
         H           -0.784432451488     2.374692735318     3.329049739911     1.007825032230
         H           -0.502108451488     4.065362735318     2.792919739911     1.007825032230
         H           -1.464570451488     2.923302735318     1.763659739911     1.007825032230
         C           -0.610432451488     1.717692735318    -2.036950260089    12.000000000000
         C           -0.283432451488     0.450692735318    -1.256950260089    12.000000000000
         C           -1.315432451488    -0.460307264682    -0.914950260089    12.000000000000
         C            1.055567548512     0.157692735318    -0.870950260089    12.000000000000
         C           -1.021432451488    -1.663307264682    -0.279950260089    12.000000000000
         C            1.356567548512    -1.050307264682    -0.222950260089    12.000000000000
         C            0.296567548512    -1.955307264682     0.072049739911    12.000000000000
         O            0.523567548512    -3.131307264682     0.733049739911    15.994914619570
         H           -0.022432451488     2.549692735318    -1.645950260089     1.007825032230
         H           -1.658432451488     1.953692735318    -1.852950260089     1.007825032230
         H           -2.338432451488    -0.237307264682    -1.188950260089     1.007825032230
         H            1.847567548512     0.855692735318    -1.102950260089     1.007825032230
         H           -1.817432451488    -2.353307264682    -0.037950260089     1.007825032230
         H            2.368567548512    -1.286307264682     0.069049739911     1.007825032230
         H           -0.283432451488    -3.638307264682     0.864049739911     1.007825032230
         H           -0.423670451488     1.615757735318    -3.116176260089     1.007825032230

  Running in c1 symmetry.

  Rotational constants: A =      0.04848  B =      0.02429  C =      0.02026 [cm^-1]
  Rotational constants: A =   1453.47177  B =    728.13200  C =    607.24819 [MHz]
  Nuclear repulsion =  498.211444148043427

  Charge       = 0
  Multiplicity = 1
  Electrons    = 76
  Nalpha       = 38
  Nbeta        = 38

  ==> Algorithm <==

  SCF Algorithm Type is PK.
  DIIS enabled.
  MOM disabled.
  Fractional occupation disabled.
  Guess Type is SAD.
  Energy threshold   = 1.00e-06
  Density threshold  = 1.00e-10
  Integral threshold = 0.00e+00

  ==> Primary Basis <==

  Basis Set: CC-PVDZ
    Blend: CC-PVDZ
    Number of shells: 102
    Number of basis function: 210
    Number of Cartesian functions: 220
    Spherical Harmonics?: true
    Max angular momentum: 2

  ==> Pre-Iterations <==

   -------------------------------------------------------
    Irrep   Nso     Nmo     Nalpha   Nbeta   Ndocc  Nsocc
   -------------------------------------------------------
     A        210     210       0       0       0       0
   -------------------------------------------------------
    Total     210     210      38      38      38       0
   -------------------------------------------------------

  ==> Integral Setup <==

  Using integral reordering PK algorithm.
  Sizing the integral batches needed.
  Building batch lookup table.
   Calculation information:
      Number of atoms:                  24
      Number of AO shells:             102
      Number of primitives:            290
      Number of atomic orbitals:       220
      Number of basis functions:       210

      Integral cutoff                 1.00e-12
      Number of threads:                 1

	Batch   1 pq = [       0,    9405] index = [             0,44231715] size =     44231715
	Batch   2 pq = [    9405,   13301] index = [      44231715,88464951] size =     44233236
	Batch   3 pq = [   13301,   16290] index = [      88464951,132690195] size =     44225244
	Batch   4 pq = [   16290,   18810] index = [     132690195,176917455] size =     44227260
	Batch   5 pq = [   18810,   21030] index = [     176917455,221140965] size =     44223510
	Batch   6 pq = [   21030,   22155] index = [     221140965,245433090] size =     24292125
  Task number: 23
  Buffer size: 11059200
  Buffer per thread: 2
  We computed 12545578 shell quartets total.
  Whereas there are 13799631 unique shell quartets.

  ==> DiskJK: Disk-Based J/K Matrices <==

    J tasked:                  Yes
    K tasked:                  Yes
    wK tasked:                  No
    Memory [MiB]:              375
    Schwarz Cutoff:          1E-12

    OpenMP threads:              1

  Minimum eigenvalue in the overlap matrix is 3.6631612218E-04.
  Using Symmetric Orthogonalization.

  SCF Guess: Superposition of Atomic Densities via on-the-fly atomic UHF.

  ==> Iterations <==

                        Total Energy        Delta E     RMS |[F,P]|

   @RHF iter SAD:  -422.46274043850860   -4.22463e+02   0.00000e+00
   @RHF iter   1:  -423.60107693316837   -1.13834e+00   2.94018e-03 DIIS
   @RHF iter   2:  -423.81301995604935   -2.11943e-01   1.22796e-03 DIIS
   @RHF iter   3:  -423.84624662972737   -3.32267e-02   2.82839e-04 DIIS
   @RHF iter   4:  -423.84907864477225   -2.83202e-03   1.16782e-04 DIIS
   @RHF iter   5:  -423.84943031539609   -3.51671e-04   2.11869e-05 DIIS
   @RHF iter   6:  -423.84944898118169   -1.86658e-05   6.84344e-06 DIIS
   @RHF iter   7:  -423.84945102148970   -2.04031e-06   2.48486e-06 DIIS
   @RHF iter   8:  -423.84945140763841   -3.86149e-07   9.87423e-07 DIIS
   @RHF iter   9:  -423.84945149902825   -9.13898e-08   4.60126e-07 DIIS
   @RHF iter  10:  -423.84945152139051   -2.23623e-08   2.03709e-07 DIIS
   @RHF iter  11:  -423.84945152785997   -6.46946e-09   6.76797e-08 DIIS
   @RHF iter  12:  -423.84945152837861   -5.18639e-10   2.48905e-08 DIIS
   @RHF iter  13:  -423.84945152842084   -4.22347e-11   8.28783e-09 DIIS
   @RHF iter  14:  -423.84945152842658   -5.74119e-12   2.68887e-09 DIIS
   @RHF iter  15:  -423.84945152842846   -1.87583e-12   1.19630e-09 DIIS
   @RHF iter  16:  -423.84945152842738    1.08002e-12   5.58143e-10 DIIS
   @RHF iter  17:  -423.84945152842988   -2.50111e-12   2.18748e-10 DIIS
   @RHF iter  18:  -423.84945152842823    1.64846e-12   9.15516e-11 DIIS
  Energy and wave function converged.

  ==> Post-Iterations <==

    Orbital Energies [Eh]
    ---------------------

    Doubly Occupied:

       1A    -20.582449     2A    -11.306323     3A    -11.245424
       4A    -11.243512     5A    -11.240711     6A    -11.239041
       7A    -11.234532     8A    -11.230220     9A    -11.214987
      10A    -11.208075    11A     -1.397871    12A     -1.141486
      13A     -1.030201    14A     -1.017507    15A     -1.008815
      16A     -0.922649    17A     -0.840331    18A     -0.829678
      19A     -0.802489    20A     -0.729986    21A     -0.666352
      22A     -0.642230    23A     -0.602524    24A     -0.593790
      25A     -0.592452    26A     -0.590524    27A     -0.582542
      28A     -0.570667    29A     -0.565492    30A     -0.524438
      31A     -0.497350    32A     -0.490395    33A     -0.484789
      34A     -0.483967    35A     -0.478126    36A     -0.459109
      37A     -0.339735    38A     -0.296827

    Virtual:

      39A      0.126896    40A      0.148702    41A      0.171146
      42A      0.179147    43A      0.203087    44A      0.211855
      45A      0.218403    46A      0.244669    47A      0.255932
      48A      0.261194    49A      0.267825    50A      0.271593
      51A      0.284275    52A      0.294110    53A      0.303286
      54A      0.338152    55A      0.360758    56A      0.363430
      57A      0.399083    58A      0.424677    59A      0.449237
      60A      0.474593    61A      0.492841    62A      0.501675
      63A      0.584969    64A      0.596571    65A      0.606294
      66A      0.609536    67A      0.634663    68A      0.646842
      69A      0.662534    70A      0.668804    71A      0.682744
      72A      0.692493    73A      0.710858    74A      0.715681
      75A      0.723395    76A      0.735105    77A      0.753160
      78A      0.765415    79A      0.774987    80A      0.796363
      81A      0.824507    82A      0.828958    83A      0.849344
      84A      0.863849    85A      0.866326    86A      0.882239
      87A      0.885752    88A      0.890952    89A      0.894380
      90A      0.902495    91A      0.910552    92A      0.920069
      93A      0.922244    94A      0.928719    95A      0.946284
      96A      0.951324    97A      0.963484    98A      0.982055
      99A      1.002094   100A      1.011009   101A      1.040353
     102A      1.080552   103A      1.108135   104A      1.130411
     105A      1.134462   106A      1.140874   107A      1.147470
     108A      1.178755   109A      1.201390   110A      1.233323
     111A      1.235248   112A      1.261720   113A      1.278158
     114A      1.282418   115A      1.292011   116A      1.299242
     117A      1.307991   118A      1.336489   119A      1.356301
     120A      1.392967   121A      1.471709   122A      1.482563
     123A      1.489134   124A      1.499421   125A      1.536028
     126A      1.552307   127A      1.580421   128A      1.615614
     129A      1.624812   130A      1.678081   131A      1.683229
     132A      1.702828   133A      1.709771   134A      1.734876
     135A      1.745615   136A      1.771494   137A      1.791405
     138A      1.804926   139A      1.857002   140A      1.858059
     141A      1.866869   142A      1.874662   143A      1.886975
     144A      1.892886   145A      1.896721   146A      1.912427
     147A      1.918853   148A      1.926558   149A      1.944225
     150A      1.947232   151A      1.955285   152A      1.964996
     153A      1.973760   154A      1.981803   155A      1.987674
     156A      2.001428   157A      2.018001   158A      2.038517
     159A      2.047482   160A      2.063054   161A      2.067660
     162A      2.105563   163A      2.128187   164A      2.130310
     165A      2.145073   166A      2.150390   167A      2.194054
     168A      2.215486   169A      2.240181   170A      2.264440
     171A      2.277836   172A      2.291769   173A      2.315652
     174A      2.326132   175A      2.357773   176A      2.419228
     177A      2.450380   178A      2.456914   179A      2.466115
     180A      2.469804   181A      2.481132   182A      2.516056
     183A      2.522532   184A      2.570820   185A      2.586605
     186A      2.597769   187A      2.642562   188A      2.732873
     189A      2.766492   190A      2.771777   191A      2.783942
     192A      2.791066   193A      2.818209   194A      2.824884
     195A      2.840290   196A      2.861919   197A      2.892259
     198A      2.933765   199A      2.962832   200A      2.964446
     201A      3.012998   202A      3.052195   203A      3.076072
     204A      3.244687   205A      3.247823   206A      3.340993
     207A      3.558825   208A      3.635519   209A      3.953388
     210A      4.173626

    Final Occupation by Irrep:
              A
    DOCC [    38 ]

  @RHF Final Energy:  -423.84945152842823

   => Energetics <=

    Nuclear Repulsion Energy =            498.2114441480434266
    One-Electron Energy =               -1562.2665955871173082
    Two-Electron Energy =                 640.2056999106455351
    Total Energy =                       -423.8494515284282897

Computation Completed

Properties will be evaluated at   0.000000,   0.000000,   0.000000 [a0]

Properties computed using the SCF density matrix

  Nuclear Dipole Moment: [e a0]
     X:    -2.1069      Y:    15.2161      Z:     4.1499

  Electronic Dipole Moment: [e a0]
     X:     1.5728      Y:   -15.2482      Z:    -4.3000

  Dipole Moment: [e a0]
     X:    -0.5340      Y:    -0.0322      Z:    -0.1501     Total:     0.5557

  Dipole Moment: [D]
     X:    -1.3574      Y:    -0.0817      Z:    -0.3816     Total:     1.4124

*** tstop() called on ds3 at Mon Apr 27 07:37:53 2020
Module time:
	user time   =      94.84 seconds =       1.58 minutes
	system time =      37.23 seconds =       0.62 minutes
	total time  =        192 seconds =       3.20 minutes
Total time:
	user time   =      94.84 seconds =       1.58 minutes
	system time =      37.23 seconds =       0.62 minutes
	total time  =        192 seconds =       3.20 minutes
                                     G D M A

                                 by Anthony Stone

                           version 2.2.06, 22 June 2011

               Distributed Multipoles from Gaussian wavefunctions

Starting at 7:37:53 on 27 Apr 2020

Using SCF density matrix from file ./SSI/SSI-185VAL-228TYR-1-dimer.test.26481.fchk

                         Distributed Multipole Analysis

Standard DMA

Positions and radii in angstrom
Multipole moments in atomic units, ea_0^k for rank k

C          x =  0.638568  y =  2.590693  z =  1.694050 angstrom
           Maximum rank =  0   Radius =  0.650 angstrom
                   Q00  =  -0.258396

C          x = -0.625432  y =  3.021693  z =  2.468050 angstrom
           Maximum rank =  0   Radius =  0.650 angstrom
                   Q00  =  -0.223959

H          x =  1.500568  y =  2.631693  z =  2.356050 angstrom
           Maximum rank =  0   Radius =  0.325 angstrom
                   Q00  =   0.073998

H          x =  0.523568  y =  1.559693  z =  1.365050 angstrom
           Maximum rank =  0   Radius =  0.325 angstrom
                   Q00  =   0.096927

H          x =  0.804568  y =  3.232693  z =  0.828050 angstrom
           Maximum rank =  0   Radius =  0.325 angstrom
                   Q00  =   0.073251

H          x = -0.784432  y =  2.374693  z =  3.329050 angstrom
           Maximum rank =  0   Radius =  0.325 angstrom
                   Q00  =   0.084403

H          x = -0.502108  y =  4.065363  z =  2.792920 angstrom
           Maximum rank =  0   Radius =  0.325 angstrom
                   Q00  =   0.075103

H          x = -1.464570  y =  2.923303  z =  1.763660 angstrom
           Maximum rank =  0   Radius =  0.325 angstrom
                   Q00  =   0.074062

C          x = -0.610432  y =  1.717693  z = -2.036950 angstrom
           Maximum rank =  0   Radius =  0.650 angstrom
                   Q00  =  -0.189438

C          x = -0.283432  y =  0.450693  z = -1.256950 angstrom
           Maximum rank =  0   Radius =  0.650 angstrom
                   Q00  =  -0.148224

C          x = -1.315432  y = -0.460307  z = -0.914950 angstrom
           Maximum rank =  0   Radius =  0.650 angstrom
                   Q00  =  -0.013756

C          x =  1.055568  y =  0.157693  z = -0.870950 angstrom
           Maximum rank =  0   Radius =  0.650 angstrom
                   Q00  =  -0.054124

C          x = -1.021432  y = -1.663307  z = -0.279950 angstrom
           Maximum rank =  0   Radius =  0.650 angstrom
                   Q00  =  -0.183490

C          x =  1.356568  y = -1.050307  z = -0.222950 angstrom
           Maximum rank =  0   Radius =  0.650 angstrom
                   Q00  =  -0.124167

C          x =  0.296568  y = -1.955307  z =  0.072050 angstrom
           Maximum rank =  0   Radius =  0.650 angstrom
                   Q00  =   0.355327

O          x =  0.523568  y = -3.131307  z =  0.733050 angstrom
           Maximum rank =  0   Radius =  0.650 angstrom
                   Q00  =  -0.636964

H          x = -0.022432  y =  2.549693  z = -1.645950 angstrom
           Maximum rank =  0   Radius =  0.325 angstrom
                   Q00  =   0.096304

H          x = -1.658432  y =  1.953693  z = -1.852950 angstrom
           Maximum rank =  0   Radius =  0.325 angstrom
                   Q00  =   0.094883

H          x = -2.338432  y = -0.237307  z = -1.188950 angstrom
           Maximum rank =  0   Radius =  0.325 angstrom
                   Q00  =   0.072436

H          x =  1.847568  y =  0.855693  z = -1.102950 angstrom
           Maximum rank =  0   Radius =  0.325 angstrom
                   Q00  =   0.070390

H          x = -1.817432  y = -2.353307  z = -0.037950 angstrom
           Maximum rank =  0   Radius =  0.325 angstrom
                   Q00  =   0.069444

H          x =  2.368568  y = -1.286307  z =  0.069050 angstrom
           Maximum rank =  0   Radius =  0.325 angstrom
                   Q00  =   0.085397

H          x = -0.283432  y = -3.638307  z =  0.864050 angstrom
           Maximum rank =  0   Radius =  0.325 angstrom
                   Q00  =   0.408968

H          x = -0.423670  y =  1.615758  z = -3.116176 angstrom
           Maximum rank =  0   Radius =  0.325 angstrom
                   Q00  =   0.101626

Total multipoles referred to origin at
           x =   0.000000,  y =    0.000000,  z =    0.000000 angstrom
                   Q00  =  -0.000000

Finished at 7:37:53 on 27 Apr 2020

  DMA results are available in the Python driver through the
	  variable('DMA DISTRIBUTED MULTIPOLES')
  and
	  variable('DMA TOTAL MULTIPOLES')
  commands.

    Psi4 stopped on: Monday, 27 April 2020 07:37AM
    Psi4 wall time for execution: 0:03:12.51

*** Psi4 exiting successfully. Buy a developer a beer!
