                               Psi4 1.3.2 release

  ==> Input File <==

--------------------------------------------------------------------------
import numpy as np
set {scf_type pk
basis cc-pvdz
d_convergence 10
gdma_switch   0
gdma_limit    0
gdma_origin   [ 0.0,  0.0,  0.0 ]
}
molecule test {
    units Angstrom
    0 1
    --
    0 1
    C               -0.269169221584183     0.909809010744861     1.230363491840700
    C                0.636830778415817     1.900809010744861     0.518363491840700
    C               -1.420169221584183     1.947809010744861    -0.625636508159300
    C               -2.553169221584183    -0.954190989255139     1.607363491840700
    C               -2.552169221584183     0.105809010744861     0.508363491840700
    O               -3.521169221584183     0.219809010744861    -0.244636508159300
    N               -1.469169221584183     0.882809010744861     0.381363491840700
    H                0.210830778415817    -0.066190989255139     1.302363491840700
    H               -0.522169221584183     1.289809010744861     2.221363491840701
    H                1.207830778415817     1.399809010744861    -0.263636508159300
    H                1.304830778415817     2.406809010744861     1.212363491840700
    H               -2.347169221584183     2.498809010744861    -0.614636508159300
    H               -1.681169221584183    -0.853190989255139     2.252363491840701
    H               -0.073599221584183     2.611239010744861     0.070513491840700
    H               -0.636879221584183     2.618269010744861    -0.242306508159300
    H               -1.244969221584183     1.678149010744861    -1.677582508159300
    H               -3.454649221584183    -0.797411989255139     2.217893491840701
    H               -2.566099221584183    -1.964286989255139     1.172003491840700
    C                3.657830778415817    -0.435190989255139    -0.060636508159300
    C                2.644830778415817    -1.274190989255139    -0.809636508159300
    O                1.484830778415817    -1.377190989255139    -0.410636508159300
    N                3.067830778415817    -1.877190989255139    -1.903636508159300
    H                3.468830778415817     0.609809010744861    -0.302636508159300
    H                4.656830778415816    -0.679190989255139    -0.414636508159300
    H                2.400830778415817    -2.406190989255139    -2.446636508159299
    H                4.047830778415817    -1.791190989255139    -2.167636508159299
    H                3.610400778415817    -0.573182989255139     1.029643491840700

}
e, wfn = energy('scf', return_wfn=True)
gdma(wfn)
dmavals = variable('DMA DISTRIBUTED MULTIPOLES')
charges = np.array(dmavals)
print(charges)
np.save('SSI-078PRO-186ASN-1-dimer.npy', np.array(charges))--------------------------------------------------------------------------

*** tstart() called on ds3
*** at Mon Apr 27 23:01:51 2020

   => Loading Basis Set <=

    Name: CC-PVDZ
    Role: ORBITAL
    Keyword: BASIS
    atoms 1-5, 19-20  entry C          line   138 file /theoryfs2/ds/metcalf/miniconda2/envs/tf2gpu/share/psi4/basis/cc-pvdz.gbs
    atoms 6, 21       entry O          line   198 file /theoryfs2/ds/metcalf/miniconda2/envs/tf2gpu/share/psi4/basis/cc-pvdz.gbs
    atoms 7, 22       entry N          line   168 file /theoryfs2/ds/metcalf/miniconda2/envs/tf2gpu/share/psi4/basis/cc-pvdz.gbs
    atoms 8-18, 23-27 entry H          line    22 file /theoryfs2/ds/metcalf/miniconda2/envs/tf2gpu/share/psi4/basis/cc-pvdz.gbs

         ---------------------------------------------------------
                                   SCF
               by Justin Turney, Rob Parrish, Andy Simmonett
                          and Daniel G. A. Smith
                              RHF Reference
                        1 Threads,    500 MiB Core
         ---------------------------------------------------------

  ==> Geometry <==

    Molecular point group: c1
    Full point group: C1

    Geometry (in Angstrom), charge = 0, multiplicity = 1:

       Center              X                  Y                   Z               Mass
    ------------   -----------------  -----------------  -----------------  -----------------
         C           -0.269169221584     0.909809010745     1.230363491841    12.000000000000
         C            0.636830778416     1.900809010745     0.518363491841    12.000000000000
         C           -1.420169221584     1.947809010745    -0.625636508159    12.000000000000
         C           -2.553169221584    -0.954190989255     1.607363491841    12.000000000000
         C           -2.552169221584     0.105809010745     0.508363491841    12.000000000000
         O           -3.521169221584     0.219809010745    -0.244636508159    15.994914619570
         N           -1.469169221584     0.882809010745     0.381363491841    14.003074004430
         H            0.210830778416    -0.066190989255     1.302363491841     1.007825032230
         H           -0.522169221584     1.289809010745     2.221363491841     1.007825032230
         H            1.207830778416     1.399809010745    -0.263636508159     1.007825032230
         H            1.304830778416     2.406809010745     1.212363491841     1.007825032230
         H           -2.347169221584     2.498809010745    -0.614636508159     1.007825032230
         H           -1.681169221584    -0.853190989255     2.252363491841     1.007825032230
         H           -0.073599221584     2.611239010745     0.070513491841     1.007825032230
         H           -0.636879221584     2.618269010745    -0.242306508159     1.007825032230
         H           -1.244969221584     1.678149010745    -1.677582508159     1.007825032230
         H           -3.454649221584    -0.797411989255     2.217893491841     1.007825032230
         H           -2.566099221584    -1.964286989255     1.172003491841     1.007825032230
         C            3.657830778416    -0.435190989255    -0.060636508159    12.000000000000
         C            2.644830778416    -1.274190989255    -0.809636508159    12.000000000000
         O            1.484830778416    -1.377190989255    -0.410636508159    15.994914619570
         N            3.067830778416    -1.877190989255    -1.903636508159    14.003074004430
         H            3.468830778416     0.609809010745    -0.302636508159     1.007825032230
         H            4.656830778416    -0.679190989255    -0.414636508159     1.007825032230
         H            2.400830778416    -2.406190989255    -2.446636508159     1.007825032230
         H            4.047830778416    -1.791190989255    -2.167636508159     1.007825032230
         H            3.610400778416    -0.573182989255     1.029643491841     1.007825032230

  Running in c1 symmetry.

  Rotational constants: A =      0.05263  B =      0.01468  C =      0.01349 [cm^-1]
  Rotational constants: A =   1577.76593  B =    440.16918  C =    404.49921 [MHz]
  Nuclear repulsion =  637.473448710037815

  Charge       = 0
  Multiplicity = 1
  Electrons    = 88
  Nalpha       = 44
  Nbeta        = 44

  ==> Algorithm <==

  SCF Algorithm Type is PK.
  DIIS enabled.
  MOM disabled.
  Fractional occupation disabled.
  Guess Type is SAD.
  Energy threshold   = 1.00e-06
  Density threshold  = 1.00e-10
  Integral threshold = 0.00e+00

  ==> Primary Basis <==

  Basis Set: CC-PVDZ
    Blend: CC-PVDZ
    Number of shells: 114
    Number of basis function: 234
    Number of Cartesian functions: 245
    Spherical Harmonics?: true
    Max angular momentum: 2

  ==> Pre-Iterations <==

   -------------------------------------------------------
    Irrep   Nso     Nmo     Nalpha   Nbeta   Ndocc  Nsocc
   -------------------------------------------------------
     A        234     234       0       0       0       0
   -------------------------------------------------------
    Total     234     234      44      44      44       0
   -------------------------------------------------------

  ==> Integral Setup <==

  Using integral reordering PK algorithm.
  Sizing the integral batches needed.
  Building batch lookup table.
   Calculation information:
      Number of atoms:                  27
      Number of AO shells:             114
      Number of primitives:            322
      Number of atomic orbitals:       245
      Number of basis functions:       234

      Integral cutoff                 1.00e-12
      Number of threads:                 1

	Batch   1 pq = [       0,    9405] index = [             0,44231715] size =     44231715
	Batch   2 pq = [    9405,   13301] index = [      44231715,88464951] size =     44233236
	Batch   3 pq = [   13301,   16290] index = [      88464951,132690195] size =     44225244
	Batch   4 pq = [   16290,   18810] index = [     132690195,176917455] size =     44227260
	Batch   5 pq = [   18810,   21030] index = [     176917455,221140965] size =     44223510
	Batch   6 pq = [   21030,   23037] index = [     221140965,265363203] size =     44222238
	Batch   7 pq = [   23037,   24883] index = [     265363203,309594286] size =     44231083
	Batch   8 pq = [   24883,   26601] index = [     309594286,353819901] size =     44225615
	Batch   9 pq = [   26601,   27495] index = [     353819901,378001260] size =     24181359
  Task number: 35
  Buffer size: 11059200
  Buffer per thread: 2
  We computed 19345626 shell quartets total.
  Whereas there are 21487290 unique shell quartets.

  ==> DiskJK: Disk-Based J/K Matrices <==

    J tasked:                  Yes
    K tasked:                  Yes
    wK tasked:                  No
    Memory [MiB]:              375
    Schwarz Cutoff:          1E-12

    OpenMP threads:              1

  Minimum eigenvalue in the overlap matrix is 1.5016259044E-03.
  Using Symmetric Orthogonalization.

  SCF Guess: Superposition of Atomic Densities via on-the-fly atomic UHF.

  ==> Iterations <==

                        Total Energy        Delta E     RMS |[F,P]|

   @RHF iter SAD:  -532.00263746739654   -5.32003e+02   0.00000e+00
   @RHF iter   1:  -532.50054163055734   -4.97904e-01   3.48091e-03 DIIS
   @RHF iter   2:  -532.76894028786194   -2.68399e-01   2.05518e-03 DIIS
   @RHF iter   3:  -532.85410370833449   -8.51634e-02   4.20990e-04 DIIS
   @RHF iter   4:  -532.86016797760317   -6.06427e-03   1.56139e-04 DIIS
   @RHF iter   5:  -532.86109454940322   -9.26572e-04   3.15659e-05 DIIS
   @RHF iter   6:  -532.86116623580290   -7.16864e-05   1.70845e-05 DIIS
   @RHF iter   7:  -532.86118188446517   -1.56487e-05   6.23231e-06 DIIS
   @RHF iter   8:  -532.86118490413389   -3.01967e-06   2.69283e-06 DIIS
   @RHF iter   9:  -532.86118534171987   -4.37586e-07   9.95751e-07 DIIS
   @RHF iter  10:  -532.86118540302232   -6.13024e-08   2.72475e-07 DIIS
   @RHF iter  11:  -532.86118540718849   -4.16617e-09   8.92728e-08 DIIS
   @RHF iter  12:  -532.86118540758935   -4.00860e-10   3.01341e-08 DIIS
   @RHF iter  13:  -532.86118540763960   -5.02496e-11   7.24062e-09 DIIS
   @RHF iter  14:  -532.86118540764505   -5.45697e-12   2.06584e-09 DIIS
   @RHF iter  15:  -532.86118540764505    0.00000e+00   7.74386e-10 DIIS
   @RHF iter  16:  -532.86118540764801   -2.95586e-12   2.91027e-10 DIIS
   @RHF iter  17:  -532.86118540764835   -3.41061e-13   1.13937e-10 DIIS
   @RHF iter  18:  -532.86118540764119    7.16227e-12   4.72269e-11 DIIS
  Energy and wave function converged.

  ==> Post-Iterations <==

    Orbital Energies [Eh]
    ---------------------

    Doubly Occupied:

       1A    -20.515138     2A    -20.478908     3A    -15.602531
       4A    -15.566390     5A    -11.359218     6A    -11.323634
       7A    -11.256053     8A    -11.253444     9A    -11.227154
      10A    -11.221268    11A    -11.204916    12A     -1.379749
      13A     -1.343742    14A     -1.234911    15A     -1.230455
      16A     -1.056455    17A     -1.012427    18A     -0.985706
      19A     -0.954934    20A     -0.838506    21A     -0.809643
      22A     -0.742017    23A     -0.739562    24A     -0.715201
      25A     -0.667095    26A     -0.652997    27A     -0.635757
      28A     -0.624442    29A     -0.598989    30A     -0.584828
      31A     -0.576502    32A     -0.570017    33A     -0.551586
      34A     -0.535021    35A     -0.531828    36A     -0.523418
      37A     -0.514719    38A     -0.504019    39A     -0.466704
      40A     -0.421466    41A     -0.415816    42A     -0.384619
      43A     -0.373523    44A     -0.339763

    Virtual:

      45A      0.153243    46A      0.184936    47A      0.193683
      48A      0.198469    49A      0.209742    50A      0.212795
      51A      0.218985    52A      0.240707    53A      0.254423
      54A      0.265427    55A      0.267937    56A      0.271558
      57A      0.287422    58A      0.290695    59A      0.302506
      60A      0.318880    61A      0.334967    62A      0.348000
      63A      0.364426    64A      0.379196    65A      0.392617
      66A      0.434118    67A      0.461570    68A      0.479302
      69A      0.506797    70A      0.541653    71A      0.551528
      72A      0.565647    73A      0.600271    74A      0.618572
      75A      0.626441    76A      0.659385    77A      0.668178
      78A      0.676515    79A      0.688856    80A      0.691416
      81A      0.705540    82A      0.718828    83A      0.721012
      84A      0.734657    85A      0.745306    86A      0.783714
      87A      0.785210    88A      0.803404    89A      0.819753
      90A      0.845177    91A      0.862040    92A      0.868066
      93A      0.877244    94A      0.880434    95A      0.882221
      96A      0.893673    97A      0.901515    98A      0.908777
      99A      0.911910   100A      0.924058   101A      0.927220
     102A      0.943840   103A      0.949648   104A      0.963687
     105A      0.967417   106A      0.987688   107A      0.996591
     108A      1.009957   109A      1.039063   110A      1.056978
     111A      1.062322   112A      1.095361   113A      1.110433
     114A      1.124096   115A      1.143285   116A      1.164166
     117A      1.185690   118A      1.245498   119A      1.258928
     120A      1.288639   121A      1.310495   122A      1.367113
     123A      1.369615   124A      1.380730   125A      1.397835
     126A      1.407685   127A      1.419195   128A      1.437308
     129A      1.446957   130A      1.448011   131A      1.454057
     132A      1.469967   133A      1.492086   134A      1.519000
     135A      1.567018   136A      1.579998   137A      1.611018
     138A      1.620079   139A      1.628505   140A      1.641129
     141A      1.648862   142A      1.652965   143A      1.683636
     144A      1.705473   145A      1.730888   146A      1.762749
     147A      1.793306   148A      1.804452   149A      1.832344
     150A      1.847939   151A      1.855082   152A      1.863391
     153A      1.876609   154A      1.882106   155A      1.890924
     156A      1.907080   157A      1.910826   158A      1.917898
     159A      1.931605   160A      1.939952   161A      1.951883
     162A      1.966156   163A      1.979430   164A      2.000002
     165A      2.019280   166A      2.024845   167A      2.032466
     168A      2.043452   169A      2.060474   170A      2.077010
     171A      2.099969   172A      2.124348   173A      2.129068
     174A      2.148242   175A      2.154890   176A      2.165560
     177A      2.200755   178A      2.212991   179A      2.218238
     180A      2.241050   181A      2.263205   182A      2.281066
     183A      2.286553   184A      2.313672   185A      2.374094
     186A      2.393385   187A      2.404512   188A      2.439127
     189A      2.449613   190A      2.454025   191A      2.465476
     192A      2.496730   193A      2.513425   194A      2.530008
     195A      2.544965   196A      2.562929   197A      2.583184
     198A      2.618157   199A      2.628101   200A      2.659817
     201A      2.719743   202A      2.731175   203A      2.766346
     204A      2.767881   205A      2.780781   206A      2.788072
     207A      2.804442   208A      2.813898   209A      2.828991
     210A      2.844036   211A      2.851001   212A      2.868915
     213A      2.882303   214A      2.935932   215A      2.964325
     216A      2.988746   217A      3.065115   218A      3.083310
     219A      3.114192   220A      3.121761   221A      3.156208
     222A      3.188968   223A      3.236842   224A      3.286458
     225A      3.356887   226A      3.383614   227A      3.489644
     228A      3.511696   229A      3.538971   230A      3.848555
     231A      3.868582   232A      3.908758   233A      3.923569
     234A      5.209606

    Final Occupation by Irrep:
              A
    DOCC [    44 ]

  @RHF Final Energy:  -532.86118540764119

   => Energetics <=

    Nuclear Repulsion Energy =            637.4734487100378146
    One-Electron Energy =               -1991.6191250164579287
    Two-Electron Energy =                 821.2844908987790404
    Total Energy =                       -532.8611854076411873

Computation Completed

Properties will be evaluated at   0.000000,   0.000000,   0.000000 [a0]

Properties computed using the SCF density matrix

  Nuclear Dipole Moment: [e a0]
     X:     7.8430      Y:     5.6051      Z:     3.1407

  Electronic Dipole Moment: [e a0]
     X:    -4.6103      Y:    -5.5682      Z:    -3.2414

  Dipole Moment: [e a0]
     X:     3.2327      Y:     0.0370      Z:    -0.1007     Total:     3.2345

  Dipole Moment: [D]
     X:     8.2168      Y:     0.0940      Z:    -0.2559     Total:     8.2213

*** tstop() called on ds3 at Mon Apr 27 23:05:03 2020
Module time:
	user time   =     139.85 seconds =       2.33 minutes
	system time =      62.12 seconds =       1.04 minutes
	total time  =        192 seconds =       3.20 minutes
Total time:
	user time   =     139.85 seconds =       2.33 minutes
	system time =      62.12 seconds =       1.04 minutes
	total time  =        192 seconds =       3.20 minutes
                                     G D M A

                                 by Anthony Stone

                           version 2.2.06, 22 June 2011

               Distributed Multipoles from Gaussian wavefunctions

Starting at 23:5:3 on 27 Apr 2020

Using SCF density matrix from file ./SSI/SSI-078PRO-186ASN-1-dimer.test.26044.fchk

                         Distributed Multipole Analysis

Standard DMA

Positions and radii in angstrom
Multipole moments in atomic units, ea_0^k for rank k

C          x = -0.269169  y =  0.909809  z =  1.230363 angstrom
           Maximum rank =  0   Radius =  0.650 angstrom
                   Q00  =   0.007079

C          x =  0.636831  y =  1.900809  z =  0.518363 angstrom
           Maximum rank =  0   Radius =  0.650 angstrom
                   Q00  =  -0.240927

C          x = -1.420169  y =  1.947809  z = -0.625637 angstrom
           Maximum rank =  0   Radius =  0.650 angstrom
                   Q00  =  -0.091305

C          x = -2.553169  y = -0.954191  z =  1.607363 angstrom
           Maximum rank =  0   Radius =  0.650 angstrom
                   Q00  =  -0.263584

C          x = -2.552169  y =  0.105809  z =  0.508363 angstrom
           Maximum rank =  0   Radius =  0.650 angstrom
                   Q00  =   0.754509

O          x = -3.521169  y =  0.219809  z = -0.244637 angstrom
           Maximum rank =  0   Radius =  0.650 angstrom
                   Q00  =  -0.792047

N          x = -1.469169  y =  0.882809  z =  0.381363 angstrom
           Maximum rank =  0   Radius =  0.650 angstrom
                   Q00  =  -0.453090

H          x =  0.210831  y = -0.066191  z =  1.302363 angstrom
           Maximum rank =  0   Radius =  0.325 angstrom
                   Q00  =   0.111315

H          x = -0.522169  y =  1.289809  z =  2.221363 angstrom
           Maximum rank =  0   Radius =  0.325 angstrom
                   Q00  =   0.041775

H          x =  1.207831  y =  1.399809  z = -0.263637 angstrom
           Maximum rank =  0   Radius =  0.325 angstrom
                   Q00  =   0.096351

H          x =  1.304831  y =  2.406809  z =  1.212363 angstrom
           Maximum rank =  0   Radius =  0.325 angstrom
                   Q00  =   0.076866

H          x = -2.347169  y =  2.498809  z = -0.614637 angstrom
           Maximum rank =  0   Radius =  0.325 angstrom
                   Q00  =   0.097419

H          x = -1.681169  y = -0.853191  z =  2.252363 angstrom
           Maximum rank =  0   Radius =  0.325 angstrom
                   Q00  =   0.087205

H          x = -0.073599  y =  2.611239  z =  0.070513 angstrom
           Maximum rank =  0   Radius =  0.325 angstrom
                   Q00  =   0.102037

H          x = -0.636879  y =  2.618269  z = -0.242307 angstrom
           Maximum rank =  0   Radius =  0.325 angstrom
                   Q00  =   0.100034

H          x = -1.244969  y =  1.678149  z = -1.677583 angstrom
           Maximum rank =  0   Radius =  0.325 angstrom
                   Q00  =   0.099966

H          x = -3.454649  y = -0.797412  z =  2.217893 angstrom
           Maximum rank =  0   Radius =  0.325 angstrom
                   Q00  =   0.120794

H          x = -2.566099  y = -1.964287  z =  1.172003 angstrom
           Maximum rank =  0   Radius =  0.325 angstrom
                   Q00  =   0.133466

C          x =  3.657831  y = -0.435191  z = -0.060637 angstrom
           Maximum rank =  0   Radius =  0.650 angstrom
                   Q00  =  -0.263027

C          x =  2.644831  y = -1.274191  z = -0.809637 angstrom
           Maximum rank =  0   Radius =  0.650 angstrom
                   Q00  =   0.812873

O          x =  1.484831  y = -1.377191  z = -0.410637 angstrom
           Maximum rank =  0   Radius =  0.650 angstrom
                   Q00  =  -0.791432

N          x =  3.067831  y = -1.877191  z = -1.903637 angstrom
           Maximum rank =  0   Radius =  0.650 angstrom
                   Q00  =  -0.533154

H          x =  3.468831  y =  0.609809  z = -0.302637 angstrom
           Maximum rank =  0   Radius =  0.325 angstrom
                   Q00  =   0.131820

H          x =  4.656831  y = -0.679191  z = -0.414637 angstrom
           Maximum rank =  0   Radius =  0.325 angstrom
                   Q00  =   0.076674

H          x =  2.400831  y = -2.406191  z = -2.446637 angstrom
           Maximum rank =  0   Radius =  0.325 angstrom
                   Q00  =   0.231560

H          x =  4.047831  y = -1.791191  z = -2.167637 angstrom
           Maximum rank =  0   Radius =  0.325 angstrom
                   Q00  =   0.212824

H          x =  3.610401  y = -0.573183  z =  1.029643 angstrom
           Maximum rank =  0   Radius =  0.325 angstrom
                   Q00  =   0.133996

Total multipoles referred to origin at
           x =   0.000000,  y =    0.000000,  z =    0.000000 angstrom
                   Q00  =  -0.000000

Finished at 23:5:3 on 27 Apr 2020

  DMA results are available in the Python driver through the
	  variable('DMA DISTRIBUTED MULTIPOLES')
  and
	  variable('DMA TOTAL MULTIPOLES')
  commands.

    Psi4 stopped on: Monday, 27 April 2020 11:05PM
    Psi4 wall time for execution: 0:03:12.70

*** Psi4 exiting successfully. Buy a developer a beer!
