                               Psi4 1.3.2 release

  ==> Input File <==

--------------------------------------------------------------------------
import numpy as np
set {scf_type pk
basis cc-pvdz
d_convergence 10
gdma_switch   0
gdma_limit    0
gdma_origin   [ 0.0,  0.0,  0.0 ]
}
molecule test {
    units Angstrom
    0 1
    --
    0 1
    C                2.892058602513681    -1.681462641372258    -0.972928850935369
    C                4.349058602513681    -1.989462641372258    -0.635928850935369
    H                2.824058602513681    -0.725462641372258    -1.497928850935369
    H                2.482058602513681    -2.466462641372258    -1.608928850935369
    H                2.297058602513681    -1.621462641372258    -0.058928850935369
    H                4.373058602513680    -2.956462641372258    -0.138928850935369
    H                4.751569602513681    -1.218283641372258     0.037321149064631
    H                4.955021602513680    -2.048034641372258    -1.552108850935369
    C               -2.303941397486319    -1.345462641372258     2.087071149064632
    C               -0.384941397486319     0.002537358627742    -0.907928850935369
    C               -0.398941397486319     1.368537358627742    -0.655928850935369
    C               -1.000941397486319    -0.871462641372258    -0.015928850935369
    C               -1.634941397486319    -0.392462641372258     1.127071149064631
    C               -1.024941397486319     1.858537358627742     0.481071149064631
    C               -1.636941397486319     0.980537358627742     1.368071149064631
    O                0.199058602513681     2.227537358627742    -1.524928850935369
    H                0.116058602513681    -0.371462641372258    -1.789928850935369
    H               -0.957941397486319    -1.936462641372258    -0.196928850935369
    H               -1.030941397486319     2.916537358627742     0.670071149064631
    H                0.098058602513681     3.145537358627742    -1.263928850935369
    H               -1.986941397486319    -1.103462641372258     3.102071149064631
    H               -1.944941397486319    -2.356462641372258     1.888071149064631
    H               -2.105941397486319     1.374537358627742     2.261071149064631
    H               -3.402401397486319    -1.336141641372258     2.029711149064632

}
e, wfn = energy('scf', return_wfn=True)
gdma(wfn)
dmavals = variable('DMA DISTRIBUTED MULTIPOLES')
charges = np.array(dmavals)
print(charges)
np.save('SSI-005LEU-191TYR-1-dimer.npy', np.array(charges))--------------------------------------------------------------------------

*** tstart() called on ds3
*** at Sun Apr 26 22:33:15 2020

   => Loading Basis Set <=

    Name: CC-PVDZ
    Role: ORBITAL
    Keyword: BASIS
    atoms 1-2, 9-15  entry C          line   138 file /theoryfs2/ds/metcalf/miniconda2/envs/tf2gpu/share/psi4/basis/cc-pvdz.gbs
    atoms 3-8, 17-24 entry H          line    22 file /theoryfs2/ds/metcalf/miniconda2/envs/tf2gpu/share/psi4/basis/cc-pvdz.gbs
    atoms 16         entry O          line   198 file /theoryfs2/ds/metcalf/miniconda2/envs/tf2gpu/share/psi4/basis/cc-pvdz.gbs

         ---------------------------------------------------------
                                   SCF
               by Justin Turney, Rob Parrish, Andy Simmonett
                          and Daniel G. A. Smith
                              RHF Reference
                        1 Threads,    500 MiB Core
         ---------------------------------------------------------

  ==> Geometry <==

    Molecular point group: c1
    Full point group: C1

    Geometry (in Angstrom), charge = 0, multiplicity = 1:

       Center              X                  Y                   Z               Mass
    ------------   -----------------  -----------------  -----------------  -----------------
         C            2.892058602514    -1.681462641372    -0.972928850935    12.000000000000
         C            4.349058602514    -1.989462641372    -0.635928850935    12.000000000000
         H            2.824058602514    -0.725462641372    -1.497928850935     1.007825032230
         H            2.482058602514    -2.466462641372    -1.608928850935     1.007825032230
         H            2.297058602514    -1.621462641372    -0.058928850935     1.007825032230
         H            4.373058602514    -2.956462641372    -0.138928850935     1.007825032230
         H            4.751569602514    -1.218283641372     0.037321149065     1.007825032230
         H            4.955021602514    -2.048034641372    -1.552108850935     1.007825032230
         C           -2.303941397486    -1.345462641372     2.087071149065    12.000000000000
         C           -0.384941397486     0.002537358628    -0.907928850935    12.000000000000
         C           -0.398941397486     1.368537358628    -0.655928850935    12.000000000000
         C           -1.000941397486    -0.871462641372    -0.015928850935    12.000000000000
         C           -1.634941397486    -0.392462641372     1.127071149065    12.000000000000
         C           -1.024941397486     1.858537358628     0.481071149065    12.000000000000
         C           -1.636941397486     0.980537358628     1.368071149065    12.000000000000
         O            0.199058602514     2.227537358628    -1.524928850935    15.994914619570
         H            0.116058602514    -0.371462641372    -1.789928850935     1.007825032230
         H           -0.957941397486    -1.936462641372    -0.196928850935     1.007825032230
         H           -1.030941397486     2.916537358628     0.670071149065     1.007825032230
         H            0.098058602514     3.145537358628    -1.263928850935     1.007825032230
         H           -1.986941397486    -1.103462641372     3.102071149065     1.007825032230
         H           -1.944941397486    -2.356462641372     1.888071149065     1.007825032230
         H           -2.105941397486     1.374537358628     2.261071149065     1.007825032230
         H           -3.402401397486    -1.336141641372     2.029711149065     1.007825032230

  Running in c1 symmetry.

  Rotational constants: A =      0.04532  B =      0.02115  C =      0.01578 [cm^-1]
  Rotational constants: A =   1358.61012  B =    633.93885  C =    473.07607 [MHz]
  Nuclear repulsion =  487.364071910125574

  Charge       = 0
  Multiplicity = 1
  Electrons    = 76
  Nalpha       = 38
  Nbeta        = 38

  ==> Algorithm <==

  SCF Algorithm Type is PK.
  DIIS enabled.
  MOM disabled.
  Fractional occupation disabled.
  Guess Type is SAD.
  Energy threshold   = 1.00e-06
  Density threshold  = 1.00e-10
  Integral threshold = 0.00e+00

  ==> Primary Basis <==

  Basis Set: CC-PVDZ
    Blend: CC-PVDZ
    Number of shells: 102
    Number of basis function: 210
    Number of Cartesian functions: 220
    Spherical Harmonics?: true
    Max angular momentum: 2

  ==> Pre-Iterations <==

   -------------------------------------------------------
    Irrep   Nso     Nmo     Nalpha   Nbeta   Ndocc  Nsocc
   -------------------------------------------------------
     A        210     210       0       0       0       0
   -------------------------------------------------------
    Total     210     210      38      38      38       0
   -------------------------------------------------------

  ==> Integral Setup <==

  Using integral reordering PK algorithm.
  Sizing the integral batches needed.
  Building batch lookup table.
   Calculation information:
      Number of atoms:                  24
      Number of AO shells:             102
      Number of primitives:            290
      Number of atomic orbitals:       220
      Number of basis functions:       210

      Integral cutoff                 1.00e-12
      Number of threads:                 1

	Batch   1 pq = [       0,    9405] index = [             0,44231715] size =     44231715
	Batch   2 pq = [    9405,   13301] index = [      44231715,88464951] size =     44233236
	Batch   3 pq = [   13301,   16290] index = [      88464951,132690195] size =     44225244
	Batch   4 pq = [   16290,   18810] index = [     132690195,176917455] size =     44227260
	Batch   5 pq = [   18810,   21030] index = [     176917455,221140965] size =     44223510
	Batch   6 pq = [   21030,   22155] index = [     221140965,245433090] size =     24292125
  Task number: 23
  Buffer size: 11059200
  Buffer per thread: 2
  We computed 10782529 shell quartets total.
  Whereas there are 13799631 unique shell quartets.

  ==> DiskJK: Disk-Based J/K Matrices <==

    J tasked:                  Yes
    K tasked:                  Yes
    wK tasked:                  No
    Memory [MiB]:              375
    Schwarz Cutoff:          1E-12

    OpenMP threads:              1

  Minimum eigenvalue in the overlap matrix is 3.1973195278E-04.
  Using Symmetric Orthogonalization.

  SCF Guess: Superposition of Atomic Densities via on-the-fly atomic UHF.

  ==> Iterations <==

                        Total Energy        Delta E     RMS |[F,P]|

   @RHF iter SAD:  -422.70226967716650   -4.22702e+02   0.00000e+00
   @RHF iter   1:  -423.60210877010468   -8.99839e-01   2.98559e-03 DIIS
   @RHF iter   2:  -423.81937749631970   -2.17269e-01   1.25726e-03 DIIS
   @RHF iter   3:  -423.85431856498377   -3.49411e-02   2.81590e-04 DIIS
   @RHF iter   4:  -423.85715966747330   -2.84110e-03   1.15021e-04 DIIS
   @RHF iter   5:  -423.85749962445772   -3.39957e-04   2.07900e-05 DIIS
   @RHF iter   6:  -423.85751685212483   -1.72277e-05   6.27981e-06 DIIS
   @RHF iter   7:  -423.85751840906829   -1.55694e-06   1.99287e-06 DIIS
   @RHF iter   8:  -423.85751860787303   -1.98805e-07   7.37627e-07 DIIS
   @RHF iter   9:  -423.85751863720782   -2.93348e-08   2.75118e-07 DIIS
   @RHF iter  10:  -423.85751864202672   -4.81890e-09   1.10765e-07 DIIS
   @RHF iter  11:  -423.85751864336413   -1.33741e-09   5.04252e-08 DIIS
   @RHF iter  12:  -423.85751864367353   -3.09399e-10   2.65807e-08 DIIS
   @RHF iter  13:  -423.85751864374538   -7.18501e-11   7.93868e-09 DIIS
   @RHF iter  14:  -423.85751864374970   -4.32010e-12   2.02819e-09 DIIS
   @RHF iter  15:  -423.85751864375123   -1.53477e-12   6.56791e-10 DIIS
   @RHF iter  16:  -423.85751864374720    4.03588e-12   1.89570e-10 DIIS
   @RHF iter  17:  -423.85751864374663    5.68434e-13   7.11660e-11 DIIS
  Energy and wave function converged.

  ==> Post-Iterations <==

    Orbital Energies [Eh]
    ---------------------

    Doubly Occupied:

       1A    -20.581694     2A    -11.297227     3A    -11.237922
       4A    -11.236665     5A    -11.232207     6A    -11.231297
       7A    -11.228218     8A    -11.227606     9A    -11.214602
      10A    -11.211049    11A     -1.400416    12A     -1.151072
      13A     -1.037013    14A     -1.017846    15A     -1.013486
      16A     -0.925934    17A     -0.844748    18A     -0.830825
      19A     -0.802050    20A     -0.733047    21A     -0.667592
      22A     -0.640704    23A     -0.607138    24A     -0.594449
      25A     -0.592328    26A     -0.586949    27A     -0.586023
      28A     -0.570655    29A     -0.565243    30A     -0.524416
      31A     -0.498025    32A     -0.495165    33A     -0.484140
      34A     -0.482016    35A     -0.478220    36A     -0.466619
      37A     -0.337929    38A     -0.301223

    Virtual:

      39A      0.130878    40A      0.156681    41A      0.179389
      42A      0.182879    43A      0.193546    44A      0.210690
      45A      0.222398    46A      0.244594    47A      0.257669
      48A      0.261647    49A      0.266715    50A      0.279559
      51A      0.283976    52A      0.286569    53A      0.293917
      54A      0.313671    55A      0.368902    56A      0.375365
      57A      0.407102    58A      0.432410    59A      0.456539
      60A      0.488172    61A      0.496703    62A      0.509944
      63A      0.599707    64A      0.605213    65A      0.608857
      66A      0.613625    67A      0.639071    68A      0.647282
      69A      0.659189    70A      0.680114    71A      0.684958
      72A      0.692414    73A      0.701586    74A      0.718699
      75A      0.730165    76A      0.739973    77A      0.766166
      78A      0.772372    79A      0.779350    80A      0.792562
      81A      0.796787    82A      0.828085    83A      0.831610
      84A      0.847936    85A      0.878555    86A      0.881607
      87A      0.895521    88A      0.897667    89A      0.898921
      90A      0.902353    91A      0.908468    92A      0.915582
      93A      0.922983    94A      0.923974    95A      0.937760
      96A      0.944287    97A      0.950639    98A      0.973884
      99A      0.989217   100A      1.015828   101A      1.027497
     102A      1.059643   103A      1.126171   104A      1.129462
     105A      1.136219   106A      1.145305   107A      1.149328
     108A      1.168384   109A      1.206695   110A      1.226949
     111A      1.246752   112A      1.250852   113A      1.278748
     114A      1.287962   115A      1.297276   116A      1.309259
     117A      1.318231   118A      1.365102   119A      1.371619
     120A      1.386605   121A      1.476232   122A      1.484909
     123A      1.488313   124A      1.513547   125A      1.526764
     126A      1.549868   127A      1.587364   128A      1.620472
     129A      1.623009   130A      1.682726   131A      1.685387
     132A      1.697554   133A      1.699086   134A      1.733542
     135A      1.748026   136A      1.783072   137A      1.806593
     138A      1.808856   139A      1.867730   140A      1.868467
     141A      1.871010   142A      1.890205   143A      1.895013
     144A      1.908084   145A      1.916319   146A      1.922332
     147A      1.927122   148A      1.944802   149A      1.948056
     150A      1.953429   151A      1.956340   152A      1.961015
     153A      1.968606   154A      1.980114   155A      2.000595
     156A      2.013771   157A      2.033276   158A      2.051517
     159A      2.063520   160A      2.069550   161A      2.077114
     162A      2.097306   163A      2.122635   164A      2.128055
     165A      2.149728   166A      2.177259   167A      2.204073
     168A      2.223436   169A      2.259193   170A      2.273087
     171A      2.303419   172A      2.306651   173A      2.339535
     174A      2.343287   175A      2.372897   176A      2.411617
     177A      2.455815   178A      2.462846   179A      2.467998
     180A      2.480226   181A      2.509116   182A      2.527739
     183A      2.544740   184A      2.561651   185A      2.578778
     186A      2.608323   187A      2.651245   188A      2.749251
     189A      2.767667   190A      2.771362   191A      2.790290
     192A      2.797832   193A      2.812332   194A      2.845638
     195A      2.851067   196A      2.857206   197A      2.900133
     198A      2.948617   199A      2.959321   200A      2.966972
     201A      3.007297   202A      3.092931   203A      3.117116
     204A      3.250739   205A      3.288189   206A      3.353092
     207A      3.576970   208A      3.675857   209A      3.985641
     210A      4.198993

    Final Occupation by Irrep:
              A
    DOCC [    38 ]

  @RHF Final Energy:  -423.85751864374663

   => Energetics <=

    Nuclear Repulsion Energy =            487.3640719101255740
    One-Electron Energy =               -1540.5756691890671846
    Two-Electron Energy =                 629.3540786351949237
    Total Energy =                       -423.8575186437466300

Computation Completed

Properties will be evaluated at   0.000000,   0.000000,   0.000000 [a0]

Properties computed using the SCF density matrix

  Nuclear Dipole Moment: [e a0]
     X:     9.8142      Y:   -10.0235      Z:     1.7558

  Electronic Dipole Moment: [e a0]
     X:   -10.0616      Y:    10.3572      Z:    -1.3287

  Dipole Moment: [e a0]
     X:    -0.2474      Y:     0.3337      Z:     0.4271     Total:     0.5957

  Dipole Moment: [D]
     X:    -0.6287      Y:     0.8481      Z:     1.0855     Total:     1.5142

*** tstop() called on ds3 at Sun Apr 26 22:36:45 2020
Module time:
	user time   =      78.19 seconds =       1.30 minutes
	system time =      33.17 seconds =       0.55 minutes
	total time  =        210 seconds =       3.50 minutes
Total time:
	user time   =      78.19 seconds =       1.30 minutes
	system time =      33.17 seconds =       0.55 minutes
	total time  =        210 seconds =       3.50 minutes
                                     G D M A

                                 by Anthony Stone

                           version 2.2.06, 22 June 2011

               Distributed Multipoles from Gaussian wavefunctions

Starting at 22:36:45 on 26 Apr 2020

Using SCF density matrix from file ./SSI/SSI-005LEU-191TYR-1-dimer.test.12704.fchk

                         Distributed Multipole Analysis

Standard DMA

Positions and radii in angstrom
Multipole moments in atomic units, ea_0^k for rank k

C          x =  2.892059  y = -1.681463  z = -0.972929 angstrom
           Maximum rank =  0   Radius =  0.650 angstrom
                   Q00  =  -0.236311

C          x =  4.349059  y = -1.989463  z = -0.635929 angstrom
           Maximum rank =  0   Radius =  0.650 angstrom
                   Q00  =  -0.236601

H          x =  2.824059  y = -0.725463  z = -1.497929 angstrom
           Maximum rank =  0   Radius =  0.325 angstrom
                   Q00  =   0.081055

H          x =  2.482059  y = -2.466463  z = -1.608929 angstrom
           Maximum rank =  0   Radius =  0.325 angstrom
                   Q00  =   0.073059

H          x =  2.297059  y = -1.621463  z = -0.058929 angstrom
           Maximum rank =  0   Radius =  0.325 angstrom
                   Q00  =   0.084404

H          x =  4.373059  y = -2.956463  z = -0.138929 angstrom
           Maximum rank =  0   Radius =  0.325 angstrom
                   Q00  =   0.075929

H          x =  4.751570  y = -1.218284  z =  0.037321 angstrom
           Maximum rank =  0   Radius =  0.325 angstrom
                   Q00  =   0.079939

H          x =  4.955022  y = -2.048035  z = -1.552109 angstrom
           Maximum rank =  0   Radius =  0.325 angstrom
                   Q00  =   0.077971

C          x = -2.303941  y = -1.345463  z =  2.087071 angstrom
           Maximum rank =  0   Radius =  0.650 angstrom
                   Q00  =  -0.197607

C          x = -0.384941  y =  0.002537  z = -0.907929 angstrom
           Maximum rank =  0   Radius =  0.650 angstrom
                   Q00  =  -0.113005

C          x = -0.398941  y =  1.368537  z = -0.655929 angstrom
           Maximum rank =  0   Radius =  0.650 angstrom
                   Q00  =   0.310101

C          x = -1.000941  y = -0.871463  z = -0.015929 angstrom
           Maximum rank =  0   Radius =  0.650 angstrom
                   Q00  =  -0.014656

C          x = -1.634941  y = -0.392463  z =  1.127071 angstrom
           Maximum rank =  0   Radius =  0.650 angstrom
                   Q00  =  -0.133232

C          x = -1.024941  y =  1.858537  z =  0.481071 angstrom
           Maximum rank =  0   Radius =  0.650 angstrom
                   Q00  =  -0.177572

C          x = -1.636941  y =  0.980537  z =  1.368071 angstrom
           Maximum rank =  0   Radius =  0.650 angstrom
                   Q00  =   0.023371

O          x =  0.199059  y =  2.227537  z = -1.524929 angstrom
           Maximum rank =  0   Radius =  0.650 angstrom
                   Q00  =  -0.677299

H          x =  0.116059  y = -0.371463  z = -1.789929 angstrom
           Maximum rank =  0   Radius =  0.325 angstrom
                   Q00  =   0.083260

H          x = -0.957941  y = -1.936463  z = -0.196929 angstrom
           Maximum rank =  0   Radius =  0.325 angstrom
                   Q00  =   0.064362

H          x = -1.030941  y =  2.916537  z =  0.670071 angstrom
           Maximum rank =  0   Radius =  0.325 angstrom
                   Q00  =   0.070161

H          x =  0.098059  y =  3.145537  z = -1.263929 angstrom
           Maximum rank =  0   Radius =  0.325 angstrom
                   Q00  =   0.405118

H          x = -1.986941  y = -1.103463  z =  3.102071 angstrom
           Maximum rank =  0   Radius =  0.325 angstrom
                   Q00  =   0.095412

H          x = -1.944941  y = -2.356463  z =  1.888071 angstrom
           Maximum rank =  0   Radius =  0.325 angstrom
                   Q00  =   0.094790

H          x = -2.105941  y =  1.374537  z =  2.261071 angstrom
           Maximum rank =  0   Radius =  0.325 angstrom
                   Q00  =   0.066719

H          x = -3.402401  y = -1.336142  z =  2.029711 angstrom
           Maximum rank =  0   Radius =  0.325 angstrom
                   Q00  =   0.100630

Total multipoles referred to origin at
           x =   0.000000,  y =    0.000000,  z =    0.000000 angstrom
                   Q00  =  -0.000000

Finished at 22:36:45 on 26 Apr 2020

  DMA results are available in the Python driver through the
	  variable('DMA DISTRIBUTED MULTIPOLES')
  and
	  variable('DMA TOTAL MULTIPOLES')
  commands.

    Psi4 stopped on: Sunday, 26 April 2020 10:36PM
    Psi4 wall time for execution: 0:03:30.06

*** Psi4 exiting successfully. Buy a developer a beer!
