                               Psi4 1.3.2 release

  ==> Input File <==

--------------------------------------------------------------------------
import numpy as np
set {scf_type pk
basis cc-pvdz
d_convergence 10
gdma_switch   0
gdma_limit    0
gdma_origin   [ 0.0,  0.0,  0.0 ]
}
molecule test {
    units Angstrom
    0 1
    --
    0 1
    C               -3.905256353061008    -0.423423816654459    -0.395611382253827
    C               -5.004256353061008    -0.628423816654459    -1.435611382253827
    C               -3.460256353061008     1.032576183345541    -0.370611382253828
    C               -4.396256353061008    -0.874423816654459     0.986388617746172
    H               -3.054256353061008    -1.041423816654459    -0.672611382253828
    H               -5.923256353061008    -0.175423816654459    -1.062611382253827
    H               -4.305256353061008     1.687576183345542    -0.158611382253827
    H               -2.716256353061008     1.139576183345541     0.409388617746173
    H               -2.974256353061007     1.329576183345542    -1.299611382253827
    H               -4.717256353061008    -1.913423816654459     0.966388617746172
    H               -3.589256353061007    -0.776423816654459     1.711388617746173
    H               -5.234256353061008    -0.254423816654459     1.305388617746173
    H               -5.169555353061007    -1.700223816654459    -1.619780382253827
    H               -4.730790353061008    -0.108113816654459    -2.365395782253827
    C                4.653743646938992     1.085576183345542    -0.067611382253827
    C                1.056743646938992     0.043576183345541    -0.389611382253827
    C                2.251743646938993     0.133576183345541     0.366388617746173
    C                3.243743646938993     0.758576183345541    -0.464611382253827
    C                2.622743646938992     1.050576183345541    -1.641611382253827
    C               -0.101256353061007    -0.531423816654459     0.114388617746173
    C               -0.069256353061007    -1.029423816654459     1.402388617746173
    C                1.097743646938993    -0.957423816654459     2.174388617746172
    C                2.262743646938993    -0.386423816654459     1.664388617746173
    N                1.318743646938992     0.612576183345541    -1.608611382253827
    H               -0.984256353061007    -0.586423816654459    -0.496611382253828
    H               -0.957256353061007    -1.484423816654458     1.822388617746173
    H                0.646743646938993     0.726576183345541    -2.367611382253827
    H                1.094743646938993    -1.360423816654458     3.179388617746173
    H                3.094743646938992     1.552576183345542    -2.479611382253827
    H                3.164743646938992    -0.353423816654459     2.258388617746172
    H                5.208743646938992     1.450576183345542    -0.933611382253827
    H                5.130743646938993     0.169576183345541     0.283388617746173
    H                4.683893646938992     1.837196183345541     0.734980617746173

}
e, wfn = energy('scf', return_wfn=True)
gdma(wfn)
dmavals = variable('DMA DISTRIBUTED MULTIPOLES')
charges = np.array(dmavals)
print(charges)
np.save('SSI-083VAL-103TRP-1-dimer.npy', np.array(charges))--------------------------------------------------------------------------

*** tstart() called on ds3
*** at Mon Apr 27 23:53:49 2020

   => Loading Basis Set <=

    Name: CC-PVDZ
    Role: ORBITAL
    Keyword: BASIS
    atoms 1-4, 15-23  entry C          line   138 file /theoryfs2/ds/metcalf/miniconda2/envs/tf2gpu/share/psi4/basis/cc-pvdz.gbs
    atoms 5-14, 25-33 entry H          line    22 file /theoryfs2/ds/metcalf/miniconda2/envs/tf2gpu/share/psi4/basis/cc-pvdz.gbs
    atoms 24          entry N          line   168 file /theoryfs2/ds/metcalf/miniconda2/envs/tf2gpu/share/psi4/basis/cc-pvdz.gbs

         ---------------------------------------------------------
                                   SCF
               by Justin Turney, Rob Parrish, Andy Simmonett
                          and Daniel G. A. Smith
                              RHF Reference
                        1 Threads,    500 MiB Core
         ---------------------------------------------------------

  ==> Geometry <==

    Molecular point group: c1
    Full point group: C1

    Geometry (in Angstrom), charge = 0, multiplicity = 1:

       Center              X                  Y                   Z               Mass
    ------------   -----------------  -----------------  -----------------  -----------------
         C           -3.905256353061    -0.423423816654    -0.395611382254    12.000000000000
         C           -5.004256353061    -0.628423816654    -1.435611382254    12.000000000000
         C           -3.460256353061     1.032576183346    -0.370611382254    12.000000000000
         C           -4.396256353061    -0.874423816654     0.986388617746    12.000000000000
         H           -3.054256353061    -1.041423816654    -0.672611382254     1.007825032230
         H           -5.923256353061    -0.175423816654    -1.062611382254     1.007825032230
         H           -4.305256353061     1.687576183346    -0.158611382254     1.007825032230
         H           -2.716256353061     1.139576183346     0.409388617746     1.007825032230
         H           -2.974256353061     1.329576183346    -1.299611382254     1.007825032230
         H           -4.717256353061    -1.913423816654     0.966388617746     1.007825032230
         H           -3.589256353061    -0.776423816654     1.711388617746     1.007825032230
         H           -5.234256353061    -0.254423816654     1.305388617746     1.007825032230
         H           -5.169555353061    -1.700223816654    -1.619780382254     1.007825032230
         H           -4.730790353061    -0.108113816654    -2.365395782254     1.007825032230
         C            4.653743646939     1.085576183346    -0.067611382254    12.000000000000
         C            1.056743646939     0.043576183346    -0.389611382254    12.000000000000
         C            2.251743646939     0.133576183346     0.366388617746    12.000000000000
         C            3.243743646939     0.758576183346    -0.464611382254    12.000000000000
         C            2.622743646939     1.050576183346    -1.641611382254    12.000000000000
         C           -0.101256353061    -0.531423816654     0.114388617746    12.000000000000
         C           -0.069256353061    -1.029423816654     1.402388617746    12.000000000000
         C            1.097743646939    -0.957423816654     2.174388617746    12.000000000000
         C            2.262743646939    -0.386423816654     1.664388617746    12.000000000000
         N            1.318743646939     0.612576183346    -1.608611382254    14.003074004430
         H           -0.984256353061    -0.586423816654    -0.496611382254     1.007825032230
         H           -0.957256353061    -1.484423816654     1.822388617746     1.007825032230
         H            0.646743646939     0.726576183346    -2.367611382254     1.007825032230
         H            1.094743646939    -1.360423816654     3.179388617746     1.007825032230
         H            3.094743646939     1.552576183346    -2.479611382254     1.007825032230
         H            3.164743646939    -0.353423816654     2.258388617746     1.007825032230
         H            5.208743646939     1.450576183346    -0.933611382254     1.007825032230
         H            5.130743646939     0.169576183346     0.283388617746     1.007825032230
         H            4.683893646939     1.837196183346     0.734980617746     1.007825032230

  Running in c1 symmetry.

  Rotational constants: A =      0.04493  B =      0.00903  C =      0.00783 [cm^-1]
  Rotational constants: A =   1346.94727  B =    270.86058  C =    234.72972 [MHz]
  Nuclear repulsion =  829.277946291071771

  Charge       = 0
  Multiplicity = 1
  Electrons    = 104
  Nalpha       = 52
  Nbeta        = 52

  ==> Algorithm <==

  SCF Algorithm Type is PK.
  DIIS enabled.
  MOM disabled.
  Fractional occupation disabled.
  Guess Type is SAD.
  Energy threshold   = 1.00e-06
  Density threshold  = 1.00e-10
  Integral threshold = 0.00e+00

  ==> Primary Basis <==

  Basis Set: CC-PVDZ
    Blend: CC-PVDZ
    Number of shells: 141
    Number of basis function: 291
    Number of Cartesian functions: 305
    Spherical Harmonics?: true
    Max angular momentum: 2

  ==> Pre-Iterations <==

   -------------------------------------------------------
    Irrep   Nso     Nmo     Nalpha   Nbeta   Ndocc  Nsocc
   -------------------------------------------------------
     A        291     291       0       0       0       0
   -------------------------------------------------------
    Total     291     291      52      52      52       0
   -------------------------------------------------------

  ==> Integral Setup <==

  Using integral reordering PK algorithm.
  Sizing the integral batches needed.
  Building batch lookup table.
   Calculation information:
      Number of atoms:                  33
      Number of AO shells:             141
      Number of primitives:            403
      Number of atomic orbitals:       305
      Number of basis functions:       291

      Integral cutoff                 1.00e-12
      Number of threads:                 1

	Batch   1 pq = [       0,    9405] index = [             0,44231715] size =     44231715
	Batch   2 pq = [    9405,   13301] index = [      44231715,88464951] size =     44233236
	Batch   3 pq = [   13301,   16290] index = [      88464951,132690195] size =     44225244
	Batch   4 pq = [   16290,   18810] index = [     132690195,176917455] size =     44227260
	Batch   5 pq = [   18810,   21030] index = [     176917455,221140965] size =     44223510
	Batch   6 pq = [   21030,   23037] index = [     221140965,265363203] size =     44222238
	Batch   7 pq = [   23037,   24883] index = [     265363203,309594286] size =     44231083
	Batch   8 pq = [   24883,   26601] index = [     309594286,353819901] size =     44225615
	Batch   9 pq = [   26601,   28214] index = [     353819901,398029005] size =     44209104
	Batch  10 pq = [   28214,   29740] index = [     398029005,442248670] size =     44219665
	Batch  11 pq = [   29740,   31191] index = [     442248670,486454836] size =     44206166
	Batch  12 pq = [   31191,   32578] index = [     486454836,530679331] size =     44224495
	Batch  13 pq = [   32578,   33908] index = [     530679331,574893186] size =     44213855
	Batch  14 pq = [   33908,   35188] index = [     574893186,619115266] size =     44222080
	Batch  15 pq = [   35188,   36423] index = [     619115266,663335676] size =     44220410
	Batch  16 pq = [   36423,   37617] index = [     663335676,707538153] size =     44202477
	Batch  17 pq = [   37617,   38775] index = [     707538153,751769700] size =     44231547
	Batch  18 pq = [   38775,   39899] index = [     751769700,795985050] size =     44215350
	Batch  19 pq = [   39899,   40992] index = [     795985050,840192528] size =     44207478
	Batch  20 pq = [   40992,   42057] index = [     840192528,884416653] size =     44224125
	Batch  21 pq = [   42057,   42486] index = [     884416653,902551341] size =     18134688
  Task number: 82
  Buffer size: 11059200
  Buffer per thread: 2
  We computed 45097508 shell quartets total.
  Whereas there are 50115066 unique shell quartets.

  ==> DiskJK: Disk-Based J/K Matrices <==

    J tasked:                  Yes
    K tasked:                  Yes
    wK tasked:                  No
    Memory [MiB]:              375
    Schwarz Cutoff:          1E-12

    OpenMP threads:              1

  Minimum eigenvalue in the overlap matrix is 2.3847262926E-04.
  Using Symmetric Orthogonalization.

  SCF Guess: Superposition of Atomic Densities via on-the-fly atomic UHF.

  ==> Iterations <==

                        Total Energy        Delta E     RMS |[F,P]|

   @RHF iter SAD:  -557.13781525221032   -5.57138e+02   0.00000e+00
   @RHF iter   1:  -557.49490106509859   -3.57086e-01   2.42651e-03 DIIS
   @RHF iter   2:  -557.78516926534530   -2.90268e-01   1.08110e-03 DIIS
   @RHF iter   3:  -557.83746940848073   -5.23001e-02   2.75510e-04 DIIS
   @RHF iter   4:  -557.84207784446232   -4.60844e-03   1.22279e-04 DIIS
   @RHF iter   5:  -557.84278472444453   -7.06880e-04   1.94414e-05 DIIS
   @RHF iter   6:  -557.84281724866139   -3.25242e-05   8.49311e-06 DIIS
   @RHF iter   7:  -557.84282423147909   -6.98282e-06   3.11867e-06 DIIS
   @RHF iter   8:  -557.84282584335517   -1.61188e-06   1.32346e-06 DIIS
   @RHF iter   9:  -557.84282617462122   -3.31266e-07   5.79574e-07 DIIS
   @RHF iter  10:  -557.84282624240814   -6.77869e-08   2.54457e-07 DIIS
   @RHF iter  11:  -557.84282625945866   -1.70505e-08   9.73291e-08 DIIS
   @RHF iter  12:  -557.84282626209529   -2.63663e-09   3.29212e-08 DIIS
   @RHF iter  13:  -557.84282626225956   -1.64277e-10   1.16114e-08 DIIS
   @RHF iter  14:  -557.84282626227230   -1.27329e-11   3.69497e-09 DIIS
   @RHF iter  15:  -557.84282626227400   -1.70530e-12   1.92581e-09 DIIS
   @RHF iter  16:  -557.84282626227355    4.54747e-13   9.19575e-10 DIIS
   @RHF iter  17:  -557.84282626227980   -6.25278e-12   3.94874e-10 DIIS
   @RHF iter  18:  -557.84282626227343    6.36646e-12   1.54371e-10 DIIS
   @RHF iter  19:  -557.84282626227287    5.68434e-13   5.75251e-11 DIIS
  Energy and wave function converged.

  ==> Post-Iterations <==

    Orbital Energies [Eh]
    ---------------------

    Doubly Occupied:

       1A    -15.601120     2A    -11.264442     3A    -11.262664
       4A    -11.230337     5A    -11.229382     6A    -11.227736
       7A    -11.227533     8A    -11.224937     9A    -11.221134
      10A    -11.219190    11A    -11.217443    12A    -11.216772
      13A    -11.215044    14A    -11.213479    15A     -1.294023
      16A     -1.128634    17A     -1.085353    18A     -1.072758
      19A     -0.996807    20A     -0.987430    21A     -0.930973
      22A     -0.929725    23A     -0.926821    24A     -0.839597
      25A     -0.803102    26A     -0.767336    27A     -0.752602
      28A     -0.718456    29A     -0.662445    30A     -0.644079
      31A     -0.633902    32A     -0.602027    33A     -0.591699
      34A     -0.590989    35A     -0.589849    36A     -0.589334
      37A     -0.567746    38A     -0.552145    39A     -0.540870
      40A     -0.536075    41A     -0.534335    42A     -0.528312
      43A     -0.509338    44A     -0.495221    45A     -0.472713
      46A     -0.462571    47A     -0.461838    48A     -0.459714
      49A     -0.454686    50A     -0.372131    51A     -0.294820
      52A     -0.275646

    Virtual:

      53A      0.126338    54A      0.162671    55A      0.168007
      56A      0.179571    57A      0.189593    58A      0.207496
      59A      0.217146    60A      0.221716    61A      0.230124
      62A      0.235116    63A      0.239912    64A      0.252383
      65A      0.259816    66A      0.264415    67A      0.273559
      68A      0.281138    69A      0.287726    70A      0.299204
      71A      0.302278    72A      0.313775    73A      0.336349
      74A      0.353896    75A      0.366597    76A      0.376073
      77A      0.385987    78A      0.394530    79A      0.406245
      80A      0.412387    81A      0.440347    82A      0.447386
      83A      0.480720    84A      0.481831    85A      0.503372
      86A      0.510410    87A      0.568852    88A      0.587397
      89A      0.595232    90A      0.605151    91A      0.611263
      92A      0.631964    93A      0.634437    94A      0.639228
      95A      0.660217    96A      0.669219    97A      0.700444
      98A      0.712075    99A      0.720477   100A      0.727804
     101A      0.737368   102A      0.741691   103A      0.742105
     104A      0.750112   105A      0.762639   106A      0.765882
     107A      0.772710   108A      0.777599   109A      0.784172
     110A      0.793390   111A      0.801087   112A      0.821086
     113A      0.831750   114A      0.836942   115A      0.850237
     116A      0.868303   117A      0.873023   118A      0.874561
     119A      0.879383   120A      0.887576   121A      0.891956
     122A      0.896666   123A      0.900561   124A      0.906482
     125A      0.913794   126A      0.917079   127A      0.923273
     128A      0.927285   129A      0.940714   130A      0.948211
     131A      0.950934   132A      0.961100   133A      0.968246
     134A      0.973949   135A      0.987217   136A      0.994246
     137A      1.005192   138A      1.018121   139A      1.025847
     140A      1.053190   141A      1.066667   142A      1.079537
     143A      1.099656   144A      1.122086   145A      1.129690
     146A      1.135863   147A      1.142187   148A      1.154362
     149A      1.159188   150A      1.175472   151A      1.204340
     152A      1.215429   153A      1.222603   154A      1.230421
     155A      1.239173   156A      1.262806   157A      1.272002
     158A      1.295714   159A      1.304089   160A      1.330910
     161A      1.331898   162A      1.362364   163A      1.374270
     164A      1.377260   165A      1.392208   166A      1.413372
     167A      1.427140   168A      1.455213   169A      1.531864
     170A      1.546910   171A      1.559485   172A      1.570020
     173A      1.589301   174A      1.599169   175A      1.631216
     176A      1.640391   177A      1.653750   178A      1.657628
     179A      1.677543   180A      1.682641   181A      1.687440
     182A      1.691415   183A      1.694984   184A      1.702202
     185A      1.717409   186A      1.734021   187A      1.746101
     188A      1.767843   189A      1.781108   190A      1.792735
     191A      1.809061   192A      1.824439   193A      1.828079
     194A      1.846150   195A      1.849543   196A      1.862604
     197A      1.883786   198A      1.891536   199A      1.904326
     200A      1.905650   201A      1.924123   202A      1.931859
     203A      1.937720   204A      1.938745   205A      1.944531
     206A      1.955858   207A      1.960976   208A      1.967267
     209A      1.973961   210A      1.985419   211A      1.990709
     212A      2.002087   213A      2.005306   214A      2.017960
     215A      2.022257   216A      2.027753   217A      2.039640
     218A      2.056087   219A      2.080574   220A      2.084744
     221A      2.087476   222A      2.098600   223A      2.104646
     224A      2.107339   225A      2.117427   226A      2.132507
     227A      2.141517   228A      2.149430   229A      2.152988
     230A      2.159298   231A      2.181190   232A      2.196891
     233A      2.221862   234A      2.237202   235A      2.250460
     236A      2.263022   237A      2.288226   238A      2.301630
     239A      2.311671   240A      2.318609   241A      2.327060
     242A      2.334013   243A      2.341785   244A      2.361591
     245A      2.365456   246A      2.376031   247A      2.400177
     248A      2.424197   249A      2.456636   250A      2.463859
     251A      2.484013   252A      2.537041   253A      2.573218
     254A      2.583076   255A      2.596678   256A      2.617517
     257A      2.638058   258A      2.647782   259A      2.659439
     260A      2.690300   261A      2.698537   262A      2.712886
     263A      2.729527   264A      2.760219   265A      2.769193
     266A      2.774690   267A      2.783983   268A      2.789594
     269A      2.793071   270A      2.811313   271A      2.818256
     272A      2.825124   273A      2.841300   274A      2.851789
     275A      2.866752   276A      2.877076   277A      2.878612
     278A      2.912699   279A      2.968074   280A      3.014170
     281A      3.022683   282A      3.041341   283A      3.055600
     284A      3.083436   285A      3.112090   286A      3.119514
     287A      3.207622   288A      3.316407   289A      3.379532
     290A      3.736809   291A      3.959316

    Final Occupation by Irrep:
              A
    DOCC [    52 ]

  @RHF Final Energy:  -557.84282626227287

   => Energetics <=

    Nuclear Repulsion Energy =            829.2779462910717712
    One-Electron Energy =               -2399.7869114273398736
    Two-Electron Energy =                1012.6661388739953509
    Total Energy =                       -557.8428262622728653

Computation Completed

Properties will be evaluated at   0.000000,   0.000000,   0.000000 [a0]

Properties computed using the SCF density matrix

  Nuclear Dipole Moment: [e a0]
     X:   -20.0015      Y:     0.1286      Z:    -0.7312

  Electronic Dipole Moment: [e a0]
     X:    19.9164      Y:     0.1338      Z:     0.0280

  Dipole Moment: [e a0]
     X:    -0.0851      Y:     0.2624      Z:    -0.7032     Total:     0.7554

  Dipole Moment: [D]
     X:    -0.2163      Y:     0.6670      Z:    -1.7873     Total:     1.9200

*** tstop() called on ds3 at Tue Apr 28 00:10:49 2020
Module time:
	user time   =     379.35 seconds =       6.32 minutes
	system time =     157.40 seconds =       2.62 minutes
	total time  =       1020 seconds =      17.00 minutes
Total time:
	user time   =     379.35 seconds =       6.32 minutes
	system time =     157.40 seconds =       2.62 minutes
	total time  =       1020 seconds =      17.00 minutes
                                     G D M A

                                 by Anthony Stone

                           version 2.2.06, 22 June 2011

               Distributed Multipoles from Gaussian wavefunctions

Starting at 0:10:49 on 28 Apr 2020

Using SCF density matrix from file ./SSI/SSI-083VAL-103TRP-1-dimer.test.4438.fchk

                         Distributed Multipole Analysis

Standard DMA

Positions and radii in angstrom
Multipole moments in atomic units, ea_0^k for rank k

C          x = -3.905256  y = -0.423424  z = -0.395611 angstrom
           Maximum rank =  0   Radius =  0.650 angstrom
                   Q00  =   0.017859

C          x = -5.004256  y = -0.628424  z = -1.435611 angstrom
           Maximum rank =  0   Radius =  0.650 angstrom
                   Q00  =  -0.238280

C          x = -3.460256  y =  1.032576  z = -0.370611 angstrom
           Maximum rank =  0   Radius =  0.650 angstrom
                   Q00  =  -0.249906

C          x = -4.396256  y = -0.874424  z =  0.986389 angstrom
           Maximum rank =  0   Radius =  0.650 angstrom
                   Q00  =  -0.249647

H          x = -3.054256  y = -1.041424  z = -0.672611 angstrom
           Maximum rank =  0   Radius =  0.325 angstrom
                   Q00  =   0.006391

H          x = -5.923256  y = -0.175424  z = -1.062611 angstrom
           Maximum rank =  0   Radius =  0.325 angstrom
                   Q00  =   0.074197

H          x = -4.305256  y =  1.687576  z = -0.158611 angstrom
           Maximum rank =  0   Radius =  0.325 angstrom
                   Q00  =   0.079285

H          x = -2.716256  y =  1.139576  z =  0.409389 angstrom
           Maximum rank =  0   Radius =  0.325 angstrom
                   Q00  =   0.088020

H          x = -2.974256  y =  1.329576  z = -1.299611 angstrom
           Maximum rank =  0   Radius =  0.325 angstrom
                   Q00  =   0.074321

H          x = -4.717256  y = -1.913424  z =  0.966389 angstrom
           Maximum rank =  0   Radius =  0.325 angstrom
                   Q00  =   0.082430

H          x = -3.589256  y = -0.776424  z =  1.711389 angstrom
           Maximum rank =  0   Radius =  0.325 angstrom
                   Q00  =   0.083790

H          x = -5.234256  y = -0.254424  z =  1.305389 angstrom
           Maximum rank =  0   Radius =  0.325 angstrom
                   Q00  =   0.078017

H          x = -5.169555  y = -1.700224  z = -1.619780 angstrom
           Maximum rank =  0   Radius =  0.325 angstrom
                   Q00  =   0.082298

H          x = -4.730790  y = -0.108114  z = -2.365396 angstrom
           Maximum rank =  0   Radius =  0.325 angstrom
                   Q00  =   0.074600

C          x =  4.653744  y =  1.085576  z = -0.067611 angstrom
           Maximum rank =  0   Radius =  0.650 angstrom
                   Q00  =  -0.201836

C          x =  1.056744  y =  0.043576  z = -0.389611 angstrom
           Maximum rank =  0   Radius =  0.650 angstrom
                   Q00  =   0.304259

C          x =  2.251744  y =  0.133576  z =  0.366389 angstrom
           Maximum rank =  0   Radius =  0.650 angstrom
                   Q00  =  -0.054479

C          x =  3.243744  y =  0.758576  z = -0.464611 angstrom
           Maximum rank =  0   Radius =  0.650 angstrom
                   Q00  =  -0.126150

C          x =  2.622744  y =  1.050576  z = -1.641611 angstrom
           Maximum rank =  0   Radius =  0.650 angstrom
                   Q00  =   0.073831

C          x = -0.101256  y = -0.531424  z =  0.114389 angstrom
           Maximum rank =  0   Radius =  0.650 angstrom
                   Q00  =  -0.124699

C          x = -0.069256  y = -1.029424  z =  1.402389 angstrom
           Maximum rank =  0   Radius =  0.650 angstrom
                   Q00  =  -0.070683

C          x =  1.097744  y = -0.957424  z =  2.174389 angstrom
           Maximum rank =  0   Radius =  0.650 angstrom
                   Q00  =  -0.085103

C          x =  2.262744  y = -0.386424  z =  1.664389 angstrom
           Maximum rank =  0   Radius =  0.650 angstrom
                   Q00  =  -0.097918

N          x =  1.318744  y =  0.612576  z = -1.608611 angstrom
           Maximum rank =  0   Radius =  0.650 angstrom
                   Q00  =  -0.506109

H          x = -0.984256  y = -0.586424  z = -0.496611 angstrom
           Maximum rank =  0   Radius =  0.325 angstrom
                   Q00  =   0.071813

H          x = -0.957256  y = -1.484424  z =  1.822389 angstrom
           Maximum rank =  0   Radius =  0.325 angstrom
                   Q00  =   0.063606

H          x =  0.646744  y =  0.726576  z = -2.367611 angstrom
           Maximum rank =  0   Radius =  0.325 angstrom
                   Q00  =   0.219021

H          x =  1.094744  y = -1.360424  z =  3.179389 angstrom
           Maximum rank =  0   Radius =  0.325 angstrom
                   Q00  =   0.059512

H          x =  3.094744  y =  1.552576  z = -2.479611 angstrom
           Maximum rank =  0   Radius =  0.325 angstrom
                   Q00  =   0.101687

H          x =  3.164744  y = -0.353424  z =  2.258389 angstrom
           Maximum rank =  0   Radius =  0.325 angstrom
                   Q00  =   0.070020

H          x =  5.208744  y =  1.450576  z = -0.933611 angstrom
           Maximum rank =  0   Radius =  0.325 angstrom
                   Q00  =   0.104513

H          x =  5.130744  y =  0.169576  z =  0.283389 angstrom
           Maximum rank =  0   Radius =  0.325 angstrom
                   Q00  =   0.097857

H          x =  4.683894  y =  1.837196  z =  0.734981 angstrom
           Maximum rank =  0   Radius =  0.325 angstrom
                   Q00  =   0.097485

Total multipoles referred to origin at
           x =   0.000000,  y =    0.000000,  z =    0.000000 angstrom
                   Q00  =  -0.000000

Finished at 0:10:49 on 28 Apr 2020

  DMA results are available in the Python driver through the
	  variable('DMA DISTRIBUTED MULTIPOLES')
  and
	  variable('DMA TOTAL MULTIPOLES')
  commands.

    Psi4 stopped on: Tuesday, 28 April 2020 12:10AM
    Psi4 wall time for execution: 0:17:01.07

*** Psi4 exiting successfully. Buy a developer a beer!
