                               Psi4 1.3.2 release

  ==> Input File <==

--------------------------------------------------------------------------
import numpy as np
set {scf_type pk
basis cc-pvdz
d_convergence 10
gdma_switch   0
gdma_limit    0
gdma_origin   [ 0.0,  0.0,  0.0 ]
}
molecule test {
    units Angstrom
    1 1
    --
    1 1
    C                0.911117780851037    -0.126955797011825     0.946331139225903
    C                2.229117780851037    -0.815955797011825     1.082331139225903
    N                1.026117780851037     1.350044202988175     1.076331139225903
    H                0.461117780851037    -0.398955797011825    -0.009668860774097
    H                0.247117780851037    -0.467955797011825     1.749331139225903
    H                2.631117780851037    -0.621955797011825     2.079331139225903
    H                2.939117780851037    -0.438955797011825     0.341331139225903
    H                1.635117780851037     1.745044202988175     0.367331139225903
    H                0.124117780851037     1.806044202988175     0.997331139225903
    H                1.410117780851037     1.611044202988175     1.979331139225903
    H                2.116737780851037    -1.902817797011825     0.955441139225903
    C               -2.388882219148963    -0.570955797011825    -0.931668860774097
    C               -1.851882219148963    -0.031955797011825    -2.262668860774097
    H               -2.425882219148964    -1.657955797011825    -0.946668860774097
    H               -1.749882219148963    -0.247955797011825    -0.112668860774097
    H               -3.393882219148963    -0.181955797011825    -0.756668860774097
    H               -1.715882219148963     1.041044202988175    -2.132668860774098
    H               -2.565812219148963    -0.176862797011825    -3.086868860774098
    H               -0.866652219148963    -0.459940797011825    -2.499638860774097

}
e, wfn = energy('scf', return_wfn=True)
gdma(wfn)
dmavals = variable('DMA DISTRIBUTED MULTIPOLES')
charges = np.array(dmavals)
print(charges)
np.save('SSI-186LYS-191VAL-1-dimer.npy', np.array(charges))--------------------------------------------------------------------------

*** tstart() called on ds3
*** at Tue Apr 28 03:37:43 2020

   => Loading Basis Set <=

    Name: CC-PVDZ
    Role: ORBITAL
    Keyword: BASIS
    atoms 1-2, 12-13  entry C          line   138 file /theoryfs2/ds/metcalf/miniconda2/envs/tf2gpu/share/psi4/basis/cc-pvdz.gbs
    atoms 3           entry N          line   168 file /theoryfs2/ds/metcalf/miniconda2/envs/tf2gpu/share/psi4/basis/cc-pvdz.gbs
    atoms 4-11, 14-19 entry H          line    22 file /theoryfs2/ds/metcalf/miniconda2/envs/tf2gpu/share/psi4/basis/cc-pvdz.gbs

         ---------------------------------------------------------
                                   SCF
               by Justin Turney, Rob Parrish, Andy Simmonett
                          and Daniel G. A. Smith
                              RHF Reference
                        1 Threads,    500 MiB Core
         ---------------------------------------------------------

  ==> Geometry <==

    Molecular point group: c1
    Full point group: C1

    Geometry (in Angstrom), charge = 1, multiplicity = 1:

       Center              X                  Y                   Z               Mass
    ------------   -----------------  -----------------  -----------------  -----------------
         C            0.911117780851    -0.126955797012     0.946331139226    12.000000000000
         C            2.229117780851    -0.815955797012     1.082331139226    12.000000000000
         N            1.026117780851     1.350044202988     1.076331139226    14.003074004430
         H            0.461117780851    -0.398955797012    -0.009668860774     1.007825032230
         H            0.247117780851    -0.467955797012     1.749331139226     1.007825032230
         H            2.631117780851    -0.621955797012     2.079331139226     1.007825032230
         H            2.939117780851    -0.438955797012     0.341331139226     1.007825032230
         H            1.635117780851     1.745044202988     0.367331139226     1.007825032230
         H            0.124117780851     1.806044202988     0.997331139226     1.007825032230
         H            1.410117780851     1.611044202988     1.979331139226     1.007825032230
         H            2.116737780851    -1.902817797012     0.955441139226     1.007825032230
         C           -2.388882219149    -0.570955797012    -0.931668860774    12.000000000000
         C           -1.851882219149    -0.031955797012    -2.262668860774    12.000000000000
         H           -2.425882219149    -1.657955797012    -0.946668860774     1.007825032230
         H           -1.749882219149    -0.247955797012    -0.112668860774     1.007825032230
         H           -3.393882219149    -0.181955797012    -0.756668860774     1.007825032230
         H           -1.715882219149     1.041044202988    -2.132668860774     1.007825032230
         H           -2.565812219149    -0.176862797012    -3.086868860774     1.007825032230
         H           -0.866652219149    -0.459940797012    -2.499638860774     1.007825032230

  Running in c1 symmetry.

  Rotational constants: A =      0.20561  B =      0.04224  C =      0.03949 [cm^-1]
  Rotational constants: A =   6164.03252  B =   1266.22946  C =   1183.96678 [MHz]
  Nuclear repulsion =  189.575267206274532

  Charge       = 1
  Multiplicity = 1
  Electrons    = 44
  Nalpha       = 22
  Nbeta        = 22

  ==> Algorithm <==

  SCF Algorithm Type is PK.
  DIIS enabled.
  MOM disabled.
  Fractional occupation disabled.
  Guess Type is SAD.
  Energy threshold   = 1.00e-06
  Density threshold  = 1.00e-10
  Integral threshold = 0.00e+00

  ==> Primary Basis <==

  Basis Set: CC-PVDZ
    Blend: CC-PVDZ
    Number of shells: 72
    Number of basis function: 140
    Number of Cartesian functions: 145
    Spherical Harmonics?: true
    Max angular momentum: 2

  ==> Pre-Iterations <==

   -------------------------------------------------------
    Irrep   Nso     Nmo     Nalpha   Nbeta   Ndocc  Nsocc
   -------------------------------------------------------
     A        140     140       0       0       0       0
   -------------------------------------------------------
    Total     140     140      22      22      22       0
   -------------------------------------------------------

  ==> Integral Setup <==

  Using integral reordering PK algorithm.
  Sizing the integral batches needed.
  Building batch lookup table.
   Calculation information:
      Number of atoms:                  19
      Number of AO shells:              72
      Number of primitives:            180
      Number of atomic orbitals:       145
      Number of basis functions:       140

      Integral cutoff                 1.00e-12
      Number of threads:                 1

	Batch   1 pq = [       0,    9405] index = [             0,44231715] size =     44231715
	Batch   2 pq = [    9405,    9870] index = [      44231715,48713385] size =      4481670
  Task number: 5
  Buffer size: 11059200
  Buffer per thread: 2
  We computed 2905843 shell quartets total.
  Whereas there are 3454506 unique shell quartets.

  ==> DiskJK: Disk-Based J/K Matrices <==

    J tasked:                  Yes
    K tasked:                  Yes
    wK tasked:                  No
    Memory [MiB]:              375
    Schwarz Cutoff:          1E-12

    OpenMP threads:              1

  Minimum eigenvalue in the overlap matrix is 4.7910411401E-03.
  Using Symmetric Orthogonalization.

  SCF Guess: Superposition of Atomic Densities via on-the-fly atomic UHF.

  ==> Iterations <==

                        Total Energy        Delta E     RMS |[F,P]|

   @RHF iter SAD:  -213.23317383285755   -2.13233e+02   0.00000e+00
   @RHF iter   1:  -213.68952393516361   -4.56350e-01   3.57371e-03 DIIS
   @RHF iter   2:  -213.84081998916918   -1.51296e-01   1.35181e-03 DIIS
   @RHF iter   3:  -213.86094417810719   -2.01242e-02   3.43234e-04 DIIS
   @RHF iter   4:  -213.86309733470159   -2.15316e-03   4.69402e-05 DIIS
   @RHF iter   5:  -213.86314162028324   -4.42856e-05   1.25371e-05 DIIS
   @RHF iter   6:  -213.86314423326297   -2.61298e-06   3.48555e-06 DIIS
   @RHF iter   7:  -213.86314441047790   -1.77215e-07   8.60121e-07 DIIS
   @RHF iter   8:  -213.86314442643479   -1.59569e-08   2.50465e-07 DIIS
   @RHF iter   9:  -213.86314442752121   -1.08642e-09   6.78798e-08 DIIS
   @RHF iter  10:  -213.86314442760107   -7.98650e-11   1.22361e-08 DIIS
   @RHF iter  11:  -213.86314442760363   -2.55795e-12   2.30350e-09 DIIS
   @RHF iter  12:  -213.86314442760417   -5.40012e-13   4.58948e-10 DIIS
   @RHF iter  13:  -213.86314442760332    8.52651e-13   1.27990e-10 DIIS
   @RHF iter  14:  -213.86314442760377   -4.54747e-13   4.04557e-11 DIIS
  Energy and wave function converged.

  ==> Post-Iterations <==

    Orbital Energies [Eh]
    ---------------------

    Doubly Occupied:

       1A    -15.908196     2A    -11.481463     3A    -11.406425
       4A    -11.334915     5A    -11.332707     6A     -1.528769
       7A     -1.231099     8A     -1.133745     9A     -1.059243
      10A     -0.983889    11A     -0.971634    12A     -0.953009
      13A     -0.865927    14A     -0.803880    15A     -0.731728
      16A     -0.718922    17A     -0.711580    18A     -0.702601
      19A     -0.685295    20A     -0.615965    21A     -0.603826
      22A     -0.597692

    Virtual:

      23A     -0.053616    24A      0.008567    25A      0.012472
      26A      0.029536    27A      0.071816    28A      0.080637
      29A      0.108043    30A      0.116262    31A      0.120628
      32A      0.136347    33A      0.148417    34A      0.156900
      35A      0.166731    36A      0.177088    37A      0.197593
      38A      0.243401    39A      0.284256    40A      0.372583
      41A      0.391443    42A      0.430058    43A      0.441995
      44A      0.453925    45A      0.486032    46A      0.495426
      47A      0.541381    48A      0.563788    49A      0.582179
      50A      0.611629    51A      0.617792    52A      0.653412
      53A      0.678873    54A      0.689905    55A      0.709164
      56A      0.711003    57A      0.729771    58A      0.737753
      59A      0.769248    60A      0.770771    61A      0.782434
      62A      0.783899    63A      0.796328    64A      0.804749
      65A      0.822395    66A      0.835260    67A      0.863821
      68A      0.898908    69A      0.930800    70A      0.943879
      71A      1.005803    72A      1.015628    73A      1.047536
      74A      1.156468    75A      1.193086    76A      1.265127
      77A      1.291706    78A      1.348981    79A      1.361007
      80A      1.391490    81A      1.451980    82A      1.462075
      83A      1.477663    84A      1.507234    85A      1.568837
      86A      1.577558    87A      1.581143    88A      1.671665
      89A      1.679240    90A      1.729369    91A      1.733417
      92A      1.749559    93A      1.754700    94A      1.766175
      95A      1.766739    96A      1.774836    97A      1.809259
      98A      1.817006    99A      1.823846   100A      1.840458
     101A      1.857232   102A      1.860664   103A      1.871199
     104A      1.882971   105A      1.889423   106A      1.923238
     107A      1.955703   108A      1.983097   109A      1.996553
     110A      2.018524   111A      2.051414   112A      2.136170
     113A      2.153414   114A      2.179644   115A      2.195219
     116A      2.205333   117A      2.292082   118A      2.317399
     119A      2.330087   120A      2.350492   121A      2.371322
     122A      2.433724   123A      2.443463   124A      2.475147
     125A      2.518311   126A      2.547788   127A      2.587556
     128A      2.630195   129A      2.650706   130A      2.662358
     131A      2.680297   132A      2.729222   133A      2.735455
     134A      2.757964   135A      2.782990   136A      2.827156
     137A      2.844709   138A      2.890695   139A      3.103104
     140A      3.136106

    Final Occupation by Irrep:
              A
    DOCC [    22 ]

  @RHF Final Energy:  -213.86314442760377

   => Energetics <=

    Nuclear Repulsion Energy =            189.5752672062745319
    One-Electron Energy =                -654.1517987375721077
    Two-Electron Energy =                 250.7133871036938046
    Total Energy =                       -213.8631444276037712

Computation Completed

Properties will be evaluated at   0.000000,   0.000000,   0.000000 [a0]

Properties computed using the SCF density matrix

  Nuclear Dipole Moment: [e a0]
     X:    -1.0843      Y:    -0.3340      Z:    -1.0113

  Electronic Dipole Moment: [e a0]
     X:     2.9425      Y:     2.1280      Z:     2.8390

  Dipole Moment: [e a0]
     X:     1.8582      Y:     1.7940      Z:     1.8277     Total:     3.1642

  Dipole Moment: [D]
     X:     4.7232      Y:     4.5598      Z:     4.6456     Total:     8.0425

*** tstop() called on ds3 at Tue Apr 28 03:38:04 2020
Module time:
	user time   =      15.16 seconds =       0.25 minutes
	system time =       6.34 seconds =       0.11 minutes
	total time  =         21 seconds =       0.35 minutes
Total time:
	user time   =      15.16 seconds =       0.25 minutes
	system time =       6.34 seconds =       0.11 minutes
	total time  =         21 seconds =       0.35 minutes
                                     G D M A

                                 by Anthony Stone

                           version 2.2.06, 22 June 2011

               Distributed Multipoles from Gaussian wavefunctions

Starting at 3:38:4 on 28 Apr 2020

Using SCF density matrix from file ./SSI/SSI-186LYS-191VAL-1-dimer.test.31979.fchk

                         Distributed Multipole Analysis

Standard DMA

Positions and radii in angstrom
Multipole moments in atomic units, ea_0^k for rank k

C          x =  0.911118  y = -0.126956  z =  0.946331 angstrom
           Maximum rank =  0   Radius =  0.650 angstrom
                   Q00  =  -0.037438

C          x =  2.229118  y = -0.815956  z =  1.082331 angstrom
           Maximum rank =  0   Radius =  0.650 angstrom
                   Q00  =  -0.209324

N          x =  1.026118  y =  1.350044  z =  1.076331 angstrom
           Maximum rank =  0   Radius =  0.650 angstrom
                   Q00  =  -0.145396

H          x =  0.461118  y = -0.398956  z = -0.009669 angstrom
           Maximum rank =  0   Radius =  0.325 angstrom
                   Q00  =   0.134889

H          x =  0.247118  y = -0.467956  z =  1.749331 angstrom
           Maximum rank =  0   Radius =  0.325 angstrom
                   Q00  =   0.124224

H          x =  2.631118  y = -0.621956  z =  2.079331 angstrom
           Maximum rank =  0   Radius =  0.325 angstrom
                   Q00  =   0.102160

H          x =  2.939118  y = -0.438956  z =  0.341331 angstrom
           Maximum rank =  0   Radius =  0.325 angstrom
                   Q00  =   0.102526

H          x =  1.635118  y =  1.745044  z =  0.367331 angstrom
           Maximum rank =  0   Radius =  0.325 angstrom
                   Q00  =   0.256725

H          x =  0.124118  y =  1.806044  z =  0.997331 angstrom
           Maximum rank =  0   Radius =  0.325 angstrom
                   Q00  =   0.261967

H          x =  1.410118  y =  1.611044  z =  1.979331 angstrom
           Maximum rank =  0   Radius =  0.325 angstrom
                   Q00  =   0.256478

H          x =  2.116738  y = -1.902818  z =  0.955441 angstrom
           Maximum rank =  0   Radius =  0.325 angstrom
                   Q00  =   0.156158

C          x = -2.388882  y = -0.570956  z = -0.931669 angstrom
           Maximum rank =  0   Radius =  0.650 angstrom
                   Q00  =  -0.231185

C          x = -1.851882  y = -0.031956  z = -2.262669 angstrom
           Maximum rank =  0   Radius =  0.650 angstrom
                   Q00  =  -0.240217

H          x = -2.425882  y = -1.657956  z = -0.946669 angstrom
           Maximum rank =  0   Radius =  0.325 angstrom
                   Q00  =   0.100538

H          x = -1.749882  y = -0.247956  z = -0.112669 angstrom
           Maximum rank =  0   Radius =  0.325 angstrom
                   Q00  =   0.012664

H          x = -3.393882  y = -0.181956  z = -0.756669 angstrom
           Maximum rank =  0   Radius =  0.325 angstrom
                   Q00  =   0.107637

H          x = -1.715882  y =  1.041044  z = -2.132669 angstrom
           Maximum rank =  0   Radius =  0.325 angstrom
                   Q00  =   0.058413

H          x = -2.565812  y = -0.176863  z = -3.086869 angstrom
           Maximum rank =  0   Radius =  0.325 angstrom
                   Q00  =   0.121179

H          x = -0.866652  y = -0.459941  z = -2.499639 angstrom
           Maximum rank =  0   Radius =  0.325 angstrom
                   Q00  =   0.068000

Total multipoles referred to origin at
           x =   0.000000,  y =    0.000000,  z =    0.000000 angstrom
                   Q00  =   1.000000

Finished at 3:38:4 on 28 Apr 2020

  DMA results are available in the Python driver through the
	  variable('DMA DISTRIBUTED MULTIPOLES')
  and
	  variable('DMA TOTAL MULTIPOLES')
  commands.

    Psi4 stopped on: Tuesday, 28 April 2020 03:38AM
    Psi4 wall time for execution: 0:00:21.30

*** Psi4 exiting successfully. Buy a developer a beer!
