                               Psi4 1.3.2 release

  ==> Input File <==

--------------------------------------------------------------------------
import numpy as np
set {scf_type pk
basis cc-pvdz
d_convergence 10
gdma_switch   0
gdma_limit    0
gdma_origin   [ 0.0,  0.0,  0.0 ]
}
molecule test {
    units Angstrom
    0 1
    --
    0 1
    C               -1.335482524437461     1.481388604491576    -2.644157251919370
    O               -0.729482524437461     1.694388604491577    -1.361157251919370
    H               -0.975482524437461     2.587388604491576    -1.077157251919370
    H               -1.183482524437461     2.373388604491576    -3.253157251919371
    H               -0.852102524437461     0.630028604491576    -3.145687251919370
    H               -2.418772524437460     1.311248604491577    -2.557297251919370
    C                1.207517475562539    -1.409611395508424     2.265842748080630
    C                0.535517475562539    -0.911611395508424     1.000842748080630
    O                0.403517475562539    -1.630611395508424     0.011842748080630
    N                0.119517475562539     0.355388604491576     1.025842748080630
    H               -0.244482524437461     0.750388604491576     0.163842748080630
    H                0.267517475562539     0.929388604491576     1.840842748080630
    H                0.581517475562539    -1.099611395508424     3.103842748080630
    H                2.179517475562540    -0.927611395508424     2.382842748080630
    H                1.305797475562539    -2.504931395508424     2.290772748080630

}
e, wfn = energy('scf', return_wfn=True)
gdma(wfn)
dmavals = variable('DMA DISTRIBUTED MULTIPOLES')
charges = np.array(dmavals)
print(charges)
np.save('SSI-046THR-069ASN-1-dimer.npy', np.array(charges))--------------------------------------------------------------------------

*** tstart() called on ds3
*** at Tue Apr 28 03:55:50 2020

   => Loading Basis Set <=

    Name: CC-PVDZ
    Role: ORBITAL
    Keyword: BASIS
    atoms 1, 7-8     entry C          line   138 file /theoryfs2/ds/metcalf/miniconda2/envs/tf2gpu/share/psi4/basis/cc-pvdz.gbs
    atoms 2, 9       entry O          line   198 file /theoryfs2/ds/metcalf/miniconda2/envs/tf2gpu/share/psi4/basis/cc-pvdz.gbs
    atoms 3-6, 11-15 entry H          line    22 file /theoryfs2/ds/metcalf/miniconda2/envs/tf2gpu/share/psi4/basis/cc-pvdz.gbs
    atoms 10         entry N          line   168 file /theoryfs2/ds/metcalf/miniconda2/envs/tf2gpu/share/psi4/basis/cc-pvdz.gbs

         ---------------------------------------------------------
                                   SCF
               by Justin Turney, Rob Parrish, Andy Simmonett
                          and Daniel G. A. Smith
                              RHF Reference
                        1 Threads,    500 MiB Core
         ---------------------------------------------------------

  ==> Geometry <==

    Molecular point group: c1
    Full point group: C1

    Geometry (in Angstrom), charge = 0, multiplicity = 1:

       Center              X                  Y                   Z               Mass
    ------------   -----------------  -----------------  -----------------  -----------------
         C           -1.335482524437     1.481388604492    -2.644157251919    12.000000000000
         O           -0.729482524437     1.694388604492    -1.361157251919    15.994914619570
         H           -0.975482524437     2.587388604492    -1.077157251919     1.007825032230
         H           -1.183482524437     2.373388604492    -3.253157251919     1.007825032230
         H           -0.852102524437     0.630028604492    -3.145687251919     1.007825032230
         H           -2.418772524437     1.311248604492    -2.557297251919     1.007825032230
         C            1.207517475563    -1.409611395508     2.265842748081    12.000000000000
         C            0.535517475563    -0.911611395508     1.000842748081    12.000000000000
         O            0.403517475563    -1.630611395508     0.011842748081    15.994914619570
         N            0.119517475563     0.355388604492     1.025842748081    14.003074004430
         H           -0.244482524437     0.750388604492     0.163842748081     1.007825032230
         H            0.267517475563     0.929388604492     1.840842748081     1.007825032230
         H            0.581517475563    -1.099611395508     3.103842748081     1.007825032230
         H            2.179517475563    -0.927611395508     2.382842748081     1.007825032230
         H            1.305797475563    -2.504931395508     2.290772748081     1.007825032230

  Running in c1 symmetry.

  Rotational constants: A =      0.28307  B =      0.03803  C =      0.03406 [cm^-1]
  Rotational constants: A =   8486.10562  B =   1140.14777  C =   1021.11623 [MHz]
  Nuclear repulsion =  234.103387588778929

  Charge       = 0
  Multiplicity = 1
  Electrons    = 50
  Nalpha       = 25
  Nbeta        = 25

  ==> Algorithm <==

  SCF Algorithm Type is PK.
  DIIS enabled.
  MOM disabled.
  Fractional occupation disabled.
  Guess Type is SAD.
  Energy threshold   = 1.00e-06
  Density threshold  = 1.00e-10
  Integral threshold = 0.00e+00

  ==> Primary Basis <==

  Basis Set: CC-PVDZ
    Blend: CC-PVDZ
    Number of shells: 63
    Number of basis function: 129
    Number of Cartesian functions: 135
    Spherical Harmonics?: true
    Max angular momentum: 2

  ==> Pre-Iterations <==

   -------------------------------------------------------
    Irrep   Nso     Nmo     Nalpha   Nbeta   Ndocc  Nsocc
   -------------------------------------------------------
     A        129     129       0       0       0       0
   -------------------------------------------------------
    Total     129     129      25      25      25       0
   -------------------------------------------------------

  ==> Integral Setup <==

  Using integral reordering PK algorithm.
  Sizing the integral batches needed.
  Building batch lookup table.
   Calculation information:
      Number of atoms:                  15
      Number of AO shells:              63
      Number of primitives:            177
      Number of atomic orbitals:       135
      Number of basis functions:       129

      Integral cutoff                 1.00e-12
      Number of threads:                 1

	Batch   1 pq = [       0,    8385] index = [             0,35158305] size =     35158305
  Task number: 4
  Buffer size: 11059200
  Buffer per thread: 2
  We computed 1611350 shell quartets total.
  Whereas there are 2033136 unique shell quartets.

  ==> DiskJK: Disk-Based J/K Matrices <==

    J tasked:                  Yes
    K tasked:                  Yes
    wK tasked:                  No
    Memory [MiB]:              375
    Schwarz Cutoff:          1E-12

    OpenMP threads:              1

  Minimum eigenvalue in the overlap matrix is 4.7596057218E-03.
  Using Symmetric Orthogonalization.

  SCF Guess: Superposition of Atomic Densities via on-the-fly atomic UHF.

  ==> Iterations <==

                        Total Energy        Delta E     RMS |[F,P]|

   @RHF iter SAD:  -321.66670664288853   -3.21667e+02   0.00000e+00
   @RHF iter   1:  -322.83833452759876   -1.17163e+00   4.94830e-03 DIIS
   @RHF iter   2:  -322.99400558303586   -1.55671e-01   2.85718e-03 DIIS
   @RHF iter   3:  -323.04266665980487   -4.86611e-02   5.53149e-04 DIIS
   @RHF iter   4:  -323.04566483052474   -2.99817e-03   2.15479e-04 DIIS
   @RHF iter   5:  -323.04615378509146   -4.88955e-04   4.35726e-05 DIIS
   @RHF iter   6:  -323.04618570970729   -3.19246e-05   2.03116e-05 DIIS
   @RHF iter   7:  -323.04619251836698   -6.80866e-06   7.32372e-06 DIIS
   @RHF iter   8:  -323.04619381278729   -1.29442e-06   2.61085e-06 DIIS
   @RHF iter   9:  -323.04619397031956   -1.57532e-07   8.39479e-07 DIIS
   @RHF iter  10:  -323.04619398381578   -1.34962e-08   2.74903e-07 DIIS
   @RHF iter  11:  -323.04619398518224   -1.36646e-09   5.23287e-08 DIIS
   @RHF iter  12:  -323.04619398524142   -5.91740e-11   1.34015e-08 DIIS
   @RHF iter  13:  -323.04619398524488   -3.46745e-12   3.81199e-09 DIIS
   @RHF iter  14:  -323.04619398524483    5.68434e-14   1.48614e-09 DIIS
   @RHF iter  15:  -323.04619398524471    1.13687e-13   4.80129e-10 DIIS
   @RHF iter  16:  -323.04619398524494   -2.27374e-13   2.26581e-10 DIIS
   @RHF iter  17:  -323.04619398524443    5.11591e-13   1.01961e-10 DIIS
   @RHF iter  18:  -323.04619398524500   -5.68434e-13   3.37103e-11 DIIS
  Energy and wave function converged.

  ==> Post-Iterations <==

    Orbital Energies [Eh]
    ---------------------

    Doubly Occupied:

       1A    -20.575755     2A    -20.484953     3A    -15.555412
       4A    -11.327924     5A    -11.289333     6A    -11.228093
       7A     -1.368926     8A     -1.344967     9A     -1.188557
      10A     -0.983611    11A     -0.933237    12A     -0.773335
      13A     -0.708857    14A     -0.692748    15A     -0.636645
      16A     -0.626161    17A     -0.601903    18A     -0.595943
      19A     -0.550925    20A     -0.542853    21A     -0.510338
      22A     -0.500953    23A     -0.463504    24A     -0.389935
      25A     -0.379562

    Virtual:

      26A      0.165931    27A      0.186424    28A      0.211869
      29A      0.216426    30A      0.243128    31A      0.257699
      32A      0.264156    33A      0.269990    34A      0.291218
      35A      0.333167    36A      0.380267    37A      0.412531
      38A      0.479135    39A      0.571671    40A      0.620246
      41A      0.631475    42A      0.642048    43A      0.653431
      44A      0.698571    45A      0.728983    46A      0.749287
      47A      0.757170    48A      0.765160    49A      0.819175
      50A      0.850933    51A      0.859452    52A      0.873363
      53A      0.886811    54A      0.888353    55A      0.905056
      56A      0.939085    57A      0.973750    58A      1.026909
      59A      1.034135    60A      1.094805    61A      1.124754
      62A      1.131678    63A      1.137360    64A      1.163226
      65A      1.187254    66A      1.275594    67A      1.347675
      68A      1.365601    69A      1.375146    70A      1.391410
      71A      1.410114    72A      1.429459    73A      1.500130
      74A      1.525374    75A      1.564642    76A      1.607431
      77A      1.653355    78A      1.666248    79A      1.670737
      80A      1.677157    81A      1.739030    82A      1.833171
      83A      1.846165    84A      1.865782    85A      1.881100
      86A      1.901543    87A      1.913458    88A      1.920165
      89A      1.934436    90A      1.957521    91A      1.993913
      92A      1.999737    93A      2.009324    94A      2.101059
      95A      2.135858    96A      2.153401    97A      2.200956
      98A      2.247670    99A      2.280885   100A      2.296325
     101A      2.349166   102A      2.376929   103A      2.459403
     104A      2.484879   105A      2.504769   106A      2.534509
     107A      2.572240   108A      2.623579   109A      2.662264
     110A      2.735913   111A      2.738873   112A      2.751010
     113A      2.756033   114A      2.765963   115A      2.806450
     116A      2.917020   117A      3.005486   118A      3.108611
     119A      3.155772   120A      3.262391   121A      3.324123
     122A      3.368731   123A      3.427004   124A      3.532183
     125A      3.547100   126A      3.569870   127A      3.871278
     128A      3.919013   129A      4.071710

    Final Occupation by Irrep:
              A
    DOCC [    25 ]

  @RHF Final Energy:  -323.04619398524500

   => Energetics <=

    Nuclear Repulsion Energy =            234.1033875887789293
    One-Electron Energy =                -905.7903046770188666
    Two-Electron Energy =                 348.6407231029949685
    Total Energy =                       -323.0461939852449973

Computation Completed

Properties will be evaluated at   0.000000,   0.000000,   0.000000 [a0]

Properties computed using the SCF density matrix

  Nuclear Dipole Moment: [e a0]
     X:    -1.2581      Y:     3.7957      Z:    -0.2449

  Electronic Dipole Moment: [e a0]
     X:     0.8301      Y:    -1.9273      Z:     0.6851

  Dipole Moment: [e a0]
     X:    -0.4280      Y:     1.8684      Z:     0.4402     Total:     1.9667

  Dipole Moment: [D]
     X:    -1.0879      Y:     4.7490      Z:     1.1190     Total:     4.9989

*** tstop() called on ds3 at Tue Apr 28 03:56:14 2020
Module time:
	user time   =      11.95 seconds =       0.20 minutes
	system time =       5.59 seconds =       0.09 minutes
	total time  =         24 seconds =       0.40 minutes
Total time:
	user time   =      11.95 seconds =       0.20 minutes
	system time =       5.59 seconds =       0.09 minutes
	total time  =         24 seconds =       0.40 minutes
                                     G D M A

                                 by Anthony Stone

                           version 2.2.06, 22 June 2011

               Distributed Multipoles from Gaussian wavefunctions

Starting at 3:56:14 on 28 Apr 2020

Using SCF density matrix from file ./SSI/SSI-046THR-069ASN-1-dimer.test.27020.fchk

                         Distributed Multipole Analysis

Standard DMA

Positions and radii in angstrom
Multipole moments in atomic units, ea_0^k for rank k

C          x = -1.335483  y =  1.481389  z = -2.644157 angstrom
           Maximum rank =  0   Radius =  0.650 angstrom
                   Q00  =  -0.054473

O          x = -0.729483  y =  1.694389  z = -1.361157 angstrom
           Maximum rank =  0   Radius =  0.650 angstrom
                   Q00  =  -0.612877

H          x = -0.975483  y =  2.587389  z = -1.077157 angstrom
           Maximum rank =  0   Radius =  0.325 angstrom
                   Q00  =   0.381014

H          x = -1.183483  y =  2.373389  z = -3.253157 angstrom
           Maximum rank =  0   Radius =  0.325 angstrom
                   Q00  =   0.079692

H          x = -0.852103  y =  0.630029  z = -3.145687 angstrom
           Maximum rank =  0   Radius =  0.325 angstrom
                   Q00  =   0.133730

H          x = -2.418773  y =  1.311249  z = -2.557297 angstrom
           Maximum rank =  0   Radius =  0.325 angstrom
                   Q00  =   0.083711

C          x =  1.207517  y = -1.409611  z =  2.265843 angstrom
           Maximum rank =  0   Radius =  0.650 angstrom
                   Q00  =  -0.259488

C          x =  0.535517  y = -0.911611  z =  1.000843 angstrom
           Maximum rank =  0   Radius =  0.650 angstrom
                   Q00  =   0.827074

O          x =  0.403517  y = -1.630611  z =  0.011843 angstrom
           Maximum rank =  0   Radius =  0.650 angstrom
                   Q00  =  -0.795149

N          x =  0.119517  y =  0.355389  z =  1.025843 angstrom
           Maximum rank =  0   Radius =  0.650 angstrom
                   Q00  =  -0.571848

H          x = -0.244483  y =  0.750389  z =  0.163843 angstrom
           Maximum rank =  0   Radius =  0.325 angstrom
                   Q00  =   0.280074

H          x =  0.267517  y =  0.929389  z =  1.840843 angstrom
           Maximum rank =  0   Radius =  0.325 angstrom
                   Q00  =   0.186417

H          x =  0.581517  y = -1.099611  z =  3.103843 angstrom
           Maximum rank =  0   Radius =  0.325 angstrom
                   Q00  =   0.084808

H          x =  2.179517  y = -0.927611  z =  2.382843 angstrom
           Maximum rank =  0   Radius =  0.325 angstrom
                   Q00  =   0.112666

H          x =  1.305797  y = -2.504931  z =  2.290773 angstrom
           Maximum rank =  0   Radius =  0.325 angstrom
                   Q00  =   0.124650

Total multipoles referred to origin at
           x =   0.000000,  y =    0.000000,  z =    0.000000 angstrom
                   Q00  =  -0.000000

Finished at 3:56:14 on 28 Apr 2020

  DMA results are available in the Python driver through the
	  variable('DMA DISTRIBUTED MULTIPOLES')
  and
	  variable('DMA TOTAL MULTIPOLES')
  commands.

    Psi4 stopped on: Tuesday, 28 April 2020 03:56AM
    Psi4 wall time for execution: 0:00:23.65

*** Psi4 exiting successfully. Buy a developer a beer!
