                               Psi4 1.3.2 release

  ==> Input File <==

--------------------------------------------------------------------------
import numpy as np
set {scf_type pk
basis cc-pvdz
d_convergence 10
gdma_switch   0
gdma_limit    0
gdma_origin   [ 0.0,  0.0,  0.0 ]
}
molecule test {
    units Angstrom
    -1 1
    --
    -1 1
    C                1.875167529333623    -0.832512822325056    -1.489927573100042
    C                1.256167529333623    -0.025512822325056    -0.357927573100042
    O                0.242167529333623     0.661487177674944    -0.604927573100042
    O                1.764167529333623    -0.075512822325056     0.772072426899958
    H                1.452167529333623    -0.480512822325056    -2.431927573100042
    H                1.621167529333623    -1.885512822325056    -1.366927573100042
    H                2.968607529333623    -0.725322822325056    -1.543877573100042
    C               -2.965832470666377    -0.209512822325056     0.523072426899958
    O               -1.826832470666377     0.451487177674944     1.067072426899959
    H               -1.115832470666377     0.473487177674944     0.389072426899958
    H               -2.652832470666377    -1.177512822325056     0.131072426899958
    H               -3.718342470666377    -0.347432822325056     1.313452426899958
    H               -3.374382470666377     0.388537177674944    -0.304827573100042

}
e, wfn = energy('scf', return_wfn=True)
gdma(wfn)
dmavals = variable('DMA DISTRIBUTED MULTIPOLES')
charges = np.array(dmavals)
print(charges)
np.save('SSI-070ASP-076THR-1-dimer.npy', np.array(charges))--------------------------------------------------------------------------

*** tstart() called on ds3
*** at Tue Apr 28 17:09:01 2020

   => Loading Basis Set <=

    Name: CC-PVDZ
    Role: ORBITAL
    Keyword: BASIS
    atoms 1-2, 8     entry C          line   138 file /theoryfs2/ds/metcalf/miniconda2/envs/tf2gpu/share/psi4/basis/cc-pvdz.gbs
    atoms 3-4, 9     entry O          line   198 file /theoryfs2/ds/metcalf/miniconda2/envs/tf2gpu/share/psi4/basis/cc-pvdz.gbs
    atoms 5-7, 10-13 entry H          line    22 file /theoryfs2/ds/metcalf/miniconda2/envs/tf2gpu/share/psi4/basis/cc-pvdz.gbs

         ---------------------------------------------------------
                                   SCF
               by Justin Turney, Rob Parrish, Andy Simmonett
                          and Daniel G. A. Smith
                              RHF Reference
                        1 Threads,    500 MiB Core
         ---------------------------------------------------------

  ==> Geometry <==

    Molecular point group: c1
    Full point group: C1

    Geometry (in Angstrom), charge = -1, multiplicity = 1:

       Center              X                  Y                   Z               Mass
    ------------   -----------------  -----------------  -----------------  -----------------
         C            1.875167529334    -0.832512822325    -1.489927573100    12.000000000000
         C            1.256167529334    -0.025512822325    -0.357927573100    12.000000000000
         O            0.242167529334     0.661487177675    -0.604927573100    15.994914619570
         O            1.764167529334    -0.075512822325     0.772072426900    15.994914619570
         H            1.452167529334    -0.480512822325    -2.431927573100     1.007825032230
         H            1.621167529334    -1.885512822325    -1.366927573100     1.007825032230
         H            2.968607529334    -0.725322822325    -1.543877573100     1.007825032230
         C           -2.965832470666    -0.209512822325     0.523072426900    12.000000000000
         O           -1.826832470666     0.451487177675     1.067072426900    15.994914619570
         H           -1.115832470666     0.473487177675     0.389072426900     1.007825032230
         H           -2.652832470666    -1.177512822325     0.131072426900     1.007825032230
         H           -3.718342470666    -0.347432822325     1.313452426900     1.007825032230
         H           -3.374382470666     0.388537177675    -0.304827573100     1.007825032230

  Running in c1 symmetry.

  Rotational constants: A =      0.23104  B =      0.04586  C =      0.04200 [cm^-1]
  Rotational constants: A =   6926.40135  B =   1374.96917  C =   1259.11497 [MHz]
  Nuclear repulsion =  229.603507422809116

  Charge       = -1
  Multiplicity = 1
  Electrons    = 50
  Nalpha       = 25
  Nbeta        = 25

  ==> Algorithm <==

  SCF Algorithm Type is PK.
  DIIS enabled.
  MOM disabled.
  Fractional occupation disabled.
  Guess Type is SAD.
  Energy threshold   = 1.00e-06
  Density threshold  = 1.00e-10
  Integral threshold = 0.00e+00

  ==> Primary Basis <==

  Basis Set: CC-PVDZ
    Blend: CC-PVDZ
    Number of shells: 57
    Number of basis function: 119
    Number of Cartesian functions: 125
    Spherical Harmonics?: true
    Max angular momentum: 2

  ==> Pre-Iterations <==

   -------------------------------------------------------
    Irrep   Nso     Nmo     Nalpha   Nbeta   Ndocc  Nsocc
   -------------------------------------------------------
     A        119     119       0       0       0       0
   -------------------------------------------------------
    Total     119     119      25      25      25       0
   -------------------------------------------------------

  ==> Integral Setup <==

  Using integral reordering PK algorithm.
  Sizing the integral batches needed.
  Building batch lookup table.
   Calculation information:
      Number of atoms:                  13
      Number of AO shells:              57
      Number of primitives:            167
      Number of atomic orbitals:       125
      Number of basis functions:       119

      Integral cutoff                 1.00e-12
      Number of threads:                 1

	Batch   1 pq = [       0,    7140] index = [             0,25493370] size =     25493370
  Task number: 3
  Buffer size: 11059200
  Buffer per thread: 2
  We computed 1110817 shell quartets total.
  Whereas there are 1367031 unique shell quartets.

  ==> DiskJK: Disk-Based J/K Matrices <==

    J tasked:                  Yes
    K tasked:                  Yes
    wK tasked:                  No
    Memory [MiB]:              375
    Schwarz Cutoff:          1E-12

    OpenMP threads:              1

  Minimum eigenvalue in the overlap matrix is 5.3797607807E-03.
  Using Symmetric Orthogonalization.

  SCF Guess: Superposition of Atomic Densities via on-the-fly atomic UHF.

  ==> Iterations <==

                        Total Energy        Delta E     RMS |[F,P]|

   @RHF iter SAD:  -340.67515178211306   -3.40675e+02   0.00000e+00
   @RHF iter   1:  -342.07387584686512   -1.39872e+00   6.00415e-03 DIIS
   @RHF iter   2:  -342.24868534078644   -1.74809e-01   3.43682e-03 DIIS
   @RHF iter   3:  -342.30669382049172   -5.80085e-02   4.75678e-04 DIIS
   @RHF iter   4:  -342.30881098692771   -2.11717e-03   1.77883e-04 DIIS
   @RHF iter   5:  -342.30911200585336   -3.01019e-04   4.01097e-05 DIIS
   @RHF iter   6:  -342.30912623540524   -1.42296e-05   1.72218e-05 DIIS
   @RHF iter   7:  -342.30912860588569   -2.37048e-06   3.68942e-06 DIIS
   @RHF iter   8:  -342.30912885671080   -2.50825e-07   1.65105e-06 DIIS
   @RHF iter   9:  -342.30912889581509   -3.91043e-08   7.19560e-07 DIIS
   @RHF iter  10:  -342.30912890566532   -9.85023e-09   2.14106e-07 DIIS
   @RHF iter  11:  -342.30912890673767   -1.07235e-09   5.36686e-08 DIIS
   @RHF iter  12:  -342.30912890679144   -5.37739e-11   1.81626e-08 DIIS
   @RHF iter  13:  -342.30912890679474   -3.29692e-12   4.92112e-09 DIIS
   @RHF iter  14:  -342.30912890679849   -3.75167e-12   1.46261e-09 DIIS
   @RHF iter  15:  -342.30912890679548    3.01270e-12   5.06239e-10 DIIS
   @RHF iter  16:  -342.30912890679673   -1.25056e-12   1.40481e-10 DIIS
   @RHF iter  17:  -342.30912890679724   -5.11591e-13   6.12541e-11 DIIS
  Energy and wave function converged.

  ==> Post-Iterations <==

    Orbital Energies [Eh]
    ---------------------

    Doubly Occupied:

       1A    -20.353499     2A    -20.281305     3A    -20.271759
       4A    -11.132341     5A    -11.128833     6A    -11.062208
       7A     -1.175556     8A     -1.155388     9A     -1.057309
      10A     -0.809597    11A     -0.763634    12A     -0.531439
      13A     -0.498005    14A     -0.457074    15A     -0.430629
      16A     -0.424274    17A     -0.423748    18A     -0.414467
      19A     -0.358780    20A     -0.332635    21A     -0.313734
      22A     -0.262985    23A     -0.204026    24A     -0.187710
      25A     -0.181339

    Virtual:

      26A      0.323708    27A      0.344931    28A      0.382113
      29A      0.389296    30A      0.398842    31A      0.409792
      32A      0.460064    33A      0.474723    34A      0.559813
      35A      0.597201    36A      0.692653    37A      0.744801
      38A      0.773620    39A      0.801048    40A      0.821557
      41A      0.849348    42A      0.885249    43A      0.943396
      44A      0.954242    45A      0.977707    46A      1.001233
      47A      1.017157    48A      1.025106    49A      1.031597
      50A      1.044075    51A      1.064937    52A      1.073794
      53A      1.128631    54A      1.208051    55A      1.270638
      56A      1.304154    57A      1.316341    58A      1.325979
      59A      1.348868    60A      1.395139    61A      1.513969
      62A      1.533290    63A      1.564697    64A      1.570065
      65A      1.589986    66A      1.601566    67A      1.636036
      68A      1.712865    69A      1.731840    70A      1.801571
      71A      1.812985    72A      1.830763    73A      1.842157
      74A      1.859432    75A      1.879993    76A      1.998623
      77A      2.041829    78A      2.050967    79A      2.063012
      80A      2.071714    81A      2.086156    82A      2.110112
      83A      2.117641    84A      2.202128    85A      2.217063
      86A      2.256229    87A      2.323849    88A      2.351207
      89A      2.360228    90A      2.425973    91A      2.457311
      92A      2.510705    93A      2.536320    94A      2.578364
      95A      2.648653    96A      2.672980    97A      2.776602
      98A      2.827180    99A      2.894751   100A      2.903707
     101A      2.904756   102A      2.912100   103A      2.969981
     104A      2.978054   105A      3.242378   106A      3.261675
     107A      3.339587   108A      3.438353   109A      3.481026
     110A      3.568946   111A      3.621819   112A      3.634513
     113A      3.768915   114A      3.782292   115A      3.821886
     116A      4.070457   117A      4.076378   118A      4.194701
     119A      4.348395

    Final Occupation by Irrep:
              A
    DOCC [    25 ]

  @RHF Final Energy:  -342.30912890679724

   => Energetics <=

    Nuclear Repulsion Energy =            229.6035074228091162
    One-Electron Energy =                -935.4007234727342848
    Two-Electron Energy =                 363.4880871431279274
    Total Energy =                       -342.3091289067972411

Computation Completed

Properties will be evaluated at   0.000000,   0.000000,   0.000000 [a0]

Properties computed using the SCF density matrix

  Nuclear Dipole Moment: [e a0]
     X:    -4.5172      Y:    -3.5145      Z:    -3.5695

  Electronic Dipole Moment: [e a0]
     X:     3.5163      Y:     2.5778      Z:     2.4251

  Dipole Moment: [e a0]
     X:    -1.0009      Y:    -0.9367      Z:    -1.1444     Total:     1.7858

  Dipole Moment: [D]
     X:    -2.5441      Y:    -2.3810      Z:    -2.9088     Total:     4.5390

*** tstop() called on ds3 at Tue Apr 28 17:09:36 2020
Module time:
	user time   =       9.13 seconds =       0.15 minutes
	system time =       3.54 seconds =       0.06 minutes
	total time  =         35 seconds =       0.58 minutes
Total time:
	user time   =       9.13 seconds =       0.15 minutes
	system time =       3.54 seconds =       0.06 minutes
	total time  =         35 seconds =       0.58 minutes
                                     G D M A

                                 by Anthony Stone

                           version 2.2.06, 22 June 2011

               Distributed Multipoles from Gaussian wavefunctions

Starting at 17:9:36 on 28 Apr 2020

Using SCF density matrix from file ./SSI/SSI-070ASP-076THR-1-dimer.test.26793.fchk

                         Distributed Multipole Analysis

Standard DMA

Positions and radii in angstrom
Multipole moments in atomic units, ea_0^k for rank k

C          x =  1.875168  y = -0.832513  z = -1.489928 angstrom
           Maximum rank =  0   Radius =  0.650 angstrom
                   Q00  =  -0.279931

C          x =  1.256168  y = -0.025513  z = -0.357928 angstrom
           Maximum rank =  0   Radius =  0.650 angstrom
                   Q00  =   0.954180

O          x =  0.242168  y =  0.661487  z = -0.604928 angstrom
           Maximum rank =  0   Radius =  0.650 angstrom
                   Q00  =  -0.962407

O          x =  1.764168  y = -0.075513  z =  0.772072 angstrom
           Maximum rank =  0   Radius =  0.650 angstrom
                   Q00  =  -0.895468

H          x =  1.452168  y = -0.480513  z = -2.431928 angstrom
           Maximum rank =  0   Radius =  0.325 angstrom
                   Q00  =   0.054594

H          x =  1.621168  y = -1.885513  z = -1.366928 angstrom
           Maximum rank =  0   Radius =  0.325 angstrom
                   Q00  =   0.081559

H          x =  2.968608  y = -0.725323  z = -1.543878 angstrom
           Maximum rank =  0   Radius =  0.325 angstrom
                   Q00  =   0.066777

C          x = -2.965832  y = -0.209513  z =  0.523072 angstrom
           Maximum rank =  0   Radius =  0.650 angstrom
                   Q00  =  -0.002014

O          x = -1.826832  y =  0.451487  z =  1.067072 angstrom
           Maximum rank =  0   Radius =  0.650 angstrom
                   Q00  =  -0.688090

H          x = -1.115832  y =  0.473487  z =  0.389072 angstrom
           Maximum rank =  0   Radius =  0.325 angstrom
                   Q00  =   0.535375

H          x = -2.652832  y = -1.177513  z =  0.131072 angstrom
           Maximum rank =  0   Radius =  0.325 angstrom
                   Q00  =   0.043688

H          x = -3.718342  y = -0.347433  z =  1.313452 angstrom
           Maximum rank =  0   Radius =  0.325 angstrom
                   Q00  =   0.059550

H          x = -3.374382  y =  0.388537  z = -0.304828 angstrom
           Maximum rank =  0   Radius =  0.325 angstrom
                   Q00  =   0.032188

Total multipoles referred to origin at
           x =   0.000000,  y =    0.000000,  z =    0.000000 angstrom
                   Q00  =  -1.000000

Finished at 17:9:36 on 28 Apr 2020

  DMA results are available in the Python driver through the
	  variable('DMA DISTRIBUTED MULTIPOLES')
  and
	  variable('DMA TOTAL MULTIPOLES')
  commands.

    Psi4 stopped on: Tuesday, 28 April 2020 05:09PM
    Psi4 wall time for execution: 0:00:35.78

*** Psi4 exiting successfully. Buy a developer a beer!
