                               Psi4 1.3.2 release

  ==> Input File <==

--------------------------------------------------------------------------
import numpy as np
set {scf_type pk
basis cc-pvdz
d_convergence 10
gdma_switch   0
gdma_limit    0
gdma_origin   [ 0.0,  0.0,  0.0 ]
}
molecule test {
    units Angstrom
    0 1
    --
    0 1
    C                2.278824683007439     2.742777492895408     0.024083038146286
    C                2.222824683007439     1.252777492895409     0.327083038146286
    O                1.362824683007439     0.803777492895408     1.123083038146286
    O                3.055824683007439     0.516777492895409    -0.247916961853714
    H                2.210824683007439     2.881777492895409    -1.056916961853714
    H                3.246824683007439     3.107777492895409     0.364083038146286
    H                1.496304683007438     3.336144492895409     0.519634038146286
    C               -3.370175316992561     0.105777492895408    -0.135916961853714
    C               -1.383175316992561    -1.342222507104591    -0.261916961853714
    N               -0.162175316992561    -1.623222507104592     0.144083038146286
    N               -2.016175316992561    -0.295222507104591     0.241083038146286
    N               -1.967175316992561    -2.097222507104591    -1.173916961853714
    H                0.355824683007439    -0.936222507104591     0.693083038146286
    H                0.266824683007439    -2.488222507104591    -0.128916961853714
    H               -1.523175316992561     0.246777492895408     0.937083038146286
    H               -2.914175316992561    -1.903222507104591    -1.448916961853714
    H               -1.488175316992561    -2.890222507104591    -1.569916961853714
    H               -4.091175316992561    -0.478222507104591     0.442083038146286
    H               -3.557175316992561    -0.065222507104592    -1.197916961853714
    H               -3.533545316992561     1.173533492895408     0.071945038146286

}
e, wfn = energy('scf', return_wfn=True)
gdma(wfn)
dmavals = variable('DMA DISTRIBUTED MULTIPOLES')
charges = np.array(dmavals)
print(charges)
np.save('SSI-049GLU-080ARG-1-dimer.npy', np.array(charges))--------------------------------------------------------------------------

*** tstart() called on ds3
*** at Mon Apr 27 22:02:04 2020

   => Loading Basis Set <=

    Name: CC-PVDZ
    Role: ORBITAL
    Keyword: BASIS
    atoms 1-2, 8-9   entry C          line   138 file /theoryfs2/ds/metcalf/miniconda2/envs/tf2gpu/share/psi4/basis/cc-pvdz.gbs
    atoms 3-4        entry O          line   198 file /theoryfs2/ds/metcalf/miniconda2/envs/tf2gpu/share/psi4/basis/cc-pvdz.gbs
    atoms 5-7, 13-20 entry H          line    22 file /theoryfs2/ds/metcalf/miniconda2/envs/tf2gpu/share/psi4/basis/cc-pvdz.gbs
    atoms 10-12      entry N          line   168 file /theoryfs2/ds/metcalf/miniconda2/envs/tf2gpu/share/psi4/basis/cc-pvdz.gbs

         ---------------------------------------------------------
                                   SCF
               by Justin Turney, Rob Parrish, Andy Simmonett
                          and Daniel G. A. Smith
                              RHF Reference
                        1 Threads,    500 MiB Core
         ---------------------------------------------------------

  ==> Geometry <==

    Molecular point group: c1
    Full point group: C1

    Geometry (in Angstrom), charge = 0, multiplicity = 1:

       Center              X                  Y                   Z               Mass
    ------------   -----------------  -----------------  -----------------  -----------------
         C            2.278824683007     2.742777492895     0.024083038146    12.000000000000
         C            2.222824683007     1.252777492895     0.327083038146    12.000000000000
         O            1.362824683007     0.803777492895     1.123083038146    15.994914619570
         O            3.055824683007     0.516777492895    -0.247916961854    15.994914619570
         H            2.210824683007     2.881777492895    -1.056916961854     1.007825032230
         H            3.246824683007     3.107777492895     0.364083038146     1.007825032230
         H            1.496304683007     3.336144492895     0.519634038146     1.007825032230
         C           -3.370175316993     0.105777492895    -0.135916961854    12.000000000000
         C           -1.383175316993    -1.342222507105    -0.261916961854    12.000000000000
         N           -0.162175316993    -1.623222507105     0.144083038146    14.003074004430
         N           -2.016175316993    -0.295222507105     0.241083038146    14.003074004430
         N           -1.967175316993    -2.097222507105    -1.173916961854    14.003074004430
         H            0.355824683007    -0.936222507105     0.693083038146     1.007825032230
         H            0.266824683007    -2.488222507105    -0.128916961854     1.007825032230
         H           -1.523175316993     0.246777492895     0.937083038146     1.007825032230
         H           -2.914175316993    -1.903222507105    -1.448916961854     1.007825032230
         H           -1.488175316993    -2.890222507105    -1.569916961854     1.007825032230
         H           -4.091175316993    -0.478222507105     0.442083038146     1.007825032230
         H           -3.557175316993    -0.065222507105    -1.197916961854     1.007825032230
         H           -3.533545316993     1.173533492895     0.071945038146     1.007825032230

  Running in c1 symmetry.

  Rotational constants: A =      0.08676  B =      0.02011  C =      0.01767 [cm^-1]
  Rotational constants: A =   2600.97797  B =    602.96219  C =    529.80386 [MHz]
  Nuclear repulsion =  447.168196128620139

  Charge       = 0
  Multiplicity = 1
  Electrons    = 72
  Nalpha       = 36
  Nbeta        = 36

  ==> Algorithm <==

  SCF Algorithm Type is PK.
  DIIS enabled.
  MOM disabled.
  Fractional occupation disabled.
  Guess Type is SAD.
  Energy threshold   = 1.00e-06
  Density threshold  = 1.00e-10
  Integral threshold = 0.00e+00

  ==> Primary Basis <==

  Basis Set: CC-PVDZ
    Blend: CC-PVDZ
    Number of shells: 87
    Number of basis function: 181
    Number of Cartesian functions: 190
    Spherical Harmonics?: true
    Max angular momentum: 2

  ==> Pre-Iterations <==

   -------------------------------------------------------
    Irrep   Nso     Nmo     Nalpha   Nbeta   Ndocc  Nsocc
   -------------------------------------------------------
     A        181     181       0       0       0       0
   -------------------------------------------------------
    Total     181     181      36      36      36       0
   -------------------------------------------------------

  ==> Integral Setup <==

  Using integral reordering PK algorithm.
  Sizing the integral batches needed.
  Building batch lookup table.
   Calculation information:
      Number of atoms:                  20
      Number of AO shells:              87
      Number of primitives:            253
      Number of atomic orbitals:       190
      Number of basis functions:       181

      Integral cutoff                 1.00e-12
      Number of threads:                 1

	Batch   1 pq = [       0,    9405] index = [             0,44231715] size =     44231715
	Batch   2 pq = [    9405,   13301] index = [      44231715,88464951] size =     44233236
	Batch   3 pq = [   13301,   16471] index = [      88464951,135655156] size =     47190205
  Task number: 13
  Buffer size: 11059200
  Buffer per thread: 2
  We computed 5441430 shell quartets total.
  Whereas there are 7328706 unique shell quartets.

  ==> DiskJK: Disk-Based J/K Matrices <==

    J tasked:                  Yes
    K tasked:                  Yes
    wK tasked:                  No
    Memory [MiB]:              375
    Schwarz Cutoff:          1E-12

    OpenMP threads:              1

  Minimum eigenvalue in the overlap matrix is 3.8352460249E-03.
  Using Symmetric Orthogonalization.

  SCF Guess: Superposition of Atomic Densities via on-the-fly atomic UHF.

  ==> Iterations <==

                        Total Energy        Delta E     RMS |[F,P]|

   @RHF iter SAD:  -469.65560415635264   -4.69656e+02   0.00000e+00
   @RHF iter   1:  -470.67651737442600   -1.02091e+00   4.28634e-03 DIIS
   @RHF iter   2:  -470.90508180383449   -2.28564e-01   2.26925e-03 DIIS
   @RHF iter   3:  -470.96587633114859   -6.07945e-02   3.95374e-04 DIIS
   @RHF iter   4:  -470.96915617096494   -3.27984e-03   1.39617e-04 DIIS
   @RHF iter   5:  -470.96955558085227   -3.99410e-04   2.65124e-05 DIIS
   @RHF iter   6:  -470.96957693000593   -2.13492e-05   1.29626e-05 DIIS
   @RHF iter   7:  -470.96958027177777   -3.34177e-06   3.50081e-06 DIIS
   @RHF iter   8:  -470.96958082653236   -5.54755e-07   1.62893e-06 DIIS
   @RHF iter   9:  -470.96958091761400   -9.10816e-08   5.63340e-07 DIIS
   @RHF iter  10:  -470.96958093519032   -1.75763e-08   1.97982e-07 DIIS
   @RHF iter  11:  -470.96958093713454   -1.94422e-09   4.79930e-08 DIIS
   @RHF iter  12:  -470.96958093723885   -1.04308e-10   1.64558e-08 DIIS
   @RHF iter  13:  -470.96958093724646   -7.61702e-12   5.35175e-09 DIIS
   @RHF iter  14:  -470.96958093724385    2.61480e-12   1.43345e-09 DIIS
   @RHF iter  15:  -470.96958093724470   -8.52651e-13   6.63064e-10 DIIS
   @RHF iter  16:  -470.96958093724658   -1.87583e-12   2.23299e-10 DIIS
   @RHF iter  17:  -470.96958093724623    3.41061e-13   7.70838e-11 DIIS
  Energy and wave function converged.

  ==> Post-Iterations <==

    Orbital Energies [Eh]
    ---------------------

    Doubly Occupied:

       1A    -20.399690     2A    -20.377847     3A    -15.671310
       4A    -15.657289     5A    -15.631222     6A    -11.456155
       7A    -11.338317     8A    -11.240617     9A    -11.155396
      10A     -1.416399    11A     -1.278431    12A     -1.276929
      13A     -1.253405    14A     -1.161611    15A     -1.026852
      16A     -0.912940    17A     -0.903867    18A     -0.848384
      19A     -0.807052    20A     -0.737945    21A     -0.717676
      22A     -0.700210    23A     -0.674929    24A     -0.626288
      25A     -0.620967    26A     -0.616066    27A     -0.530083
      28A     -0.521011    29A     -0.517651    30A     -0.489841
      31A     -0.458240    32A     -0.452872    33A     -0.425486
      34A     -0.313830    35A     -0.294881    36A     -0.290467

    Virtual:

      37A      0.107832    38A      0.139609    39A      0.153471
      40A      0.167609    41A      0.196387    42A      0.210520
      43A      0.221481    44A      0.232378    45A      0.259965
      46A      0.288656    47A      0.300149    48A      0.316487
      49A      0.347752    50A      0.372929    51A      0.405398
      52A      0.457865    53A      0.464381    54A      0.474046
      55A      0.553144    56A      0.571131    57A      0.581848
      58A      0.604782    59A      0.641195    60A      0.642522
      61A      0.654170    62A      0.666682    63A      0.688930
      64A      0.707830    65A      0.716609    66A      0.775144
      67A      0.787616    68A      0.798037    69A      0.812775
      70A      0.825435    71A      0.833135    72A      0.855864
      73A      0.865487    74A      0.883941    75A      0.908265
      76A      0.915656    77A      0.929134    78A      0.934951
      79A      0.941361    80A      0.965129    81A      0.983033
      82A      0.991221    83A      1.015868    84A      1.043960
      85A      1.047651    86A      1.077492    87A      1.106932
      88A      1.116957    89A      1.180024    90A      1.223449
      91A      1.236827    92A      1.239196    93A      1.257623
      94A      1.271875    95A      1.305915    96A      1.324379
      97A      1.349095    98A      1.364438    99A      1.405179
     100A      1.445703   101A      1.450105   102A      1.483930
     103A      1.493114   104A      1.509753   105A      1.552777
     106A      1.572587   107A      1.583164   108A      1.607726
     109A      1.625259   110A      1.647715   111A      1.661194
     112A      1.689609   113A      1.741580   114A      1.744898
     115A      1.752772   116A      1.783341   117A      1.833033
     118A      1.843467   119A      1.851429   120A      1.869344
     121A      1.896770   122A      1.901093   123A      1.918867
     124A      1.937082   125A      1.965922   126A      1.975101
     127A      1.981210   128A      1.993250   129A      2.017961
     130A      2.029632   131A      2.105744   132A      2.142002
     133A      2.150951   134A      2.164426   135A      2.169959
     136A      2.197174   137A      2.244258   138A      2.251560
     139A      2.270659   140A      2.316477   141A      2.326611
     142A      2.351732   143A      2.398983   144A      2.449940
     145A      2.459471   146A      2.478566   147A      2.487619
     148A      2.515908   149A      2.545948   150A      2.571270
     151A      2.588514   152A      2.607537   153A      2.659309
     154A      2.676911   155A      2.683351   156A      2.714664
     157A      2.752870   158A      2.814895   159A      2.842729
     160A      2.858917   161A      2.877081   162A      2.891601
     163A      2.908121   164A      2.947354   165A      2.972688
     166A      3.018217   167A      3.118378   168A      3.144671
     169A      3.171617   170A      3.188004   171A      3.232490
     172A      3.242606   173A      3.276302   174A      3.507764
     175A      3.657564   176A      3.693646   177A      3.705290
     178A      3.771835   179A      3.939020   180A      3.957833
     181A      4.077765

    Final Occupation by Irrep:
              A
    DOCC [    36 ]

  @RHF Final Energy:  -470.96958093724623

   => Energetics <=

    Nuclear Repulsion Energy =            447.1681961286201386
    One-Electron Energy =               -1530.6712381707322947
    Two-Electron Energy =                 612.5334611048658644
    Total Energy =                       -470.9695809372462918

Computation Completed

Properties will be evaluated at   0.000000,   0.000000,   0.000000 [a0]

Properties computed using the SCF density matrix

  Nuclear Dipole Moment: [e a0]
     X:    -8.9016      Y:     1.8786      Z:    -2.2197

  Electronic Dipole Moment: [e a0]
     X:     2.8958      Y:    -4.5770      Z:     0.9658

  Dipole Moment: [e a0]
     X:    -6.0058      Y:    -2.6984      Z:    -1.2538     Total:     6.7025

  Dipole Moment: [D]
     X:   -15.2652      Y:    -6.8587      Z:    -3.1869     Total:    17.0360

*** tstop() called on ds3 at Mon Apr 27 22:03:00 2020
Module time:
	user time   =      38.63 seconds =       0.64 minutes
	system time =      19.52 seconds =       0.33 minutes
	total time  =         56 seconds =       0.93 minutes
Total time:
	user time   =      38.63 seconds =       0.64 minutes
	system time =      19.52 seconds =       0.33 minutes
	total time  =         56 seconds =       0.93 minutes
                                     G D M A

                                 by Anthony Stone

                           version 2.2.06, 22 June 2011

               Distributed Multipoles from Gaussian wavefunctions

Starting at 22:3:0 on 27 Apr 2020

Using SCF density matrix from file ./SSI/SSI-049GLU-080ARG-1-dimer.test.30411.fchk

                         Distributed Multipole Analysis

Standard DMA

Positions and radii in angstrom
Multipole moments in atomic units, ea_0^k for rank k

C          x =  2.278825  y =  2.742777  z =  0.024083 angstrom
           Maximum rank =  0   Radius =  0.650 angstrom
                   Q00  =  -0.275095

C          x =  2.222825  y =  1.252777  z =  0.327083 angstrom
           Maximum rank =  0   Radius =  0.650 angstrom
                   Q00  =   0.918863

O          x =  1.362825  y =  0.803777  z =  1.123083 angstrom
           Maximum rank =  0   Radius =  0.650 angstrom
                   Q00  =  -0.949487

O          x =  3.055825  y =  0.516777  z = -0.247917 angstrom
           Maximum rank =  0   Radius =  0.650 angstrom
                   Q00  =  -0.893929

H          x =  2.210825  y =  2.881777  z = -1.056917 angstrom
           Maximum rank =  0   Radius =  0.325 angstrom
                   Q00  =   0.083987

H          x =  3.246825  y =  3.107777  z =  0.364083 angstrom
           Maximum rank =  0   Radius =  0.325 angstrom
                   Q00  =   0.101866

H          x =  1.496305  y =  3.336144  z =  0.519634 angstrom
           Maximum rank =  0   Radius =  0.325 angstrom
                   Q00  =   0.054100

C          x = -3.370175  y =  0.105777  z = -0.135917 angstrom
           Maximum rank =  0   Radius =  0.650 angstrom
                   Q00  =  -0.111361

C          x = -1.383175  y = -1.342223  z = -0.261917 angstrom
           Maximum rank =  0   Radius =  0.650 angstrom
                   Q00  =   1.062436

N          x = -0.162175  y = -1.623223  z =  0.144083 angstrom
           Maximum rank =  0   Radius =  0.650 angstrom
                   Q00  =  -0.567388

N          x = -2.016175  y = -0.295223  z =  0.241083 angstrom
           Maximum rank =  0   Radius =  0.650 angstrom
                   Q00  =  -0.486914

N          x = -1.967175  y = -2.097223  z = -1.173917 angstrom
           Maximum rank =  0   Radius =  0.650 angstrom
                   Q00  =  -0.579907

H          x =  0.355825  y = -0.936223  z =  0.693083 angstrom
           Maximum rank =  0   Radius =  0.325 angstrom
                   Q00  =   0.300444

H          x =  0.266825  y = -2.488223  z = -0.128917 angstrom
           Maximum rank =  0   Radius =  0.325 angstrom
                   Q00  =   0.242237

H          x = -1.523175  y =  0.246777  z =  0.937083 angstrom
           Maximum rank =  0   Radius =  0.325 angstrom
                   Q00  =   0.251814

H          x = -2.914175  y = -1.903223  z = -1.448917 angstrom
           Maximum rank =  0   Radius =  0.325 angstrom
                   Q00  =   0.244460

H          x = -1.488175  y = -2.890223  z = -1.569917 angstrom
           Maximum rank =  0   Radius =  0.325 angstrom
                   Q00  =   0.253773

H          x = -4.091175  y = -0.478223  z =  0.442083 angstrom
           Maximum rank =  0   Radius =  0.325 angstrom
                   Q00  =   0.101541

H          x = -3.557175  y = -0.065223  z = -1.197917 angstrom
           Maximum rank =  0   Radius =  0.325 angstrom
                   Q00  =   0.094819

H          x = -3.533545  y =  1.173533  z =  0.071945 angstrom
           Maximum rank =  0   Radius =  0.325 angstrom
                   Q00  =   0.153740

Total multipoles referred to origin at
           x =   0.000000,  y =    0.000000,  z =    0.000000 angstrom
                   Q00  =  -0.000000

Finished at 22:3:0 on 27 Apr 2020

  DMA results are available in the Python driver through the
	  variable('DMA DISTRIBUTED MULTIPOLES')
  and
	  variable('DMA TOTAL MULTIPOLES')
  commands.

    Psi4 stopped on: Monday, 27 April 2020 10:03PM
    Psi4 wall time for execution: 0:00:56.24

*** Psi4 exiting successfully. Buy a developer a beer!
