                               Psi4 1.3.2 release

  ==> Input File <==

--------------------------------------------------------------------------
import numpy as np
set {scf_type pk
basis cc-pvdz
d_convergence 10
gdma_switch   0
gdma_limit    0
gdma_origin   [ 0.0,  0.0,  0.0 ]
}
molecule test {
    units Angstrom
    0 1
    --
    0 1
    C               -1.302547042794429     3.462862738444919     1.161128396239204
    C               -0.423547042794429     2.275862738444919     0.820128396239204
    O                0.684452957205571     2.144862738444919     1.332128396239204
    N               -0.919547042794429     1.398862738444919    -0.032871603760796
    H               -0.406547042794429     0.551862738444919    -0.252871603760796
    H               -1.820547042794429     1.561862738444919    -0.470871603760796
    H               -1.754547042794429     3.852862738444919     0.248128396239204
    H               -0.657547042794429     4.232862738444919     1.580128396239204
    H               -2.089547042794429     3.200052738444919     1.883318396239204
    C               -0.018547042794429    -3.668137261555081    -0.830871603760796
    C                0.470452957205571    -2.231137261555081    -0.812871603760796
    O               -0.309547042794429    -1.297137261555081    -0.950871603760796
    N                1.767452957205571    -2.043137261555080    -0.635871603760796
    H                0.826452957205571    -4.326137261555080    -0.618871603760796
    H               -0.377547042794429    -3.886137261555081    -1.835871603760796
    H                2.123452957205571    -1.098137261555081    -0.651871603760796
    H                2.401452957205571    -2.826137261555081    -0.574871603760796
    H               -0.804667042794429    -3.853567261555081    -0.084131603760796

}
e, wfn = energy('scf', return_wfn=True)
gdma(wfn)
dmavals = variable('DMA DISTRIBUTED MULTIPOLES')
charges = np.array(dmavals)
print(charges)
np.save('SSI-025ASN-181ASN-1-dimer.npy', np.array(charges))--------------------------------------------------------------------------

*** tstart() called on ds3
*** at Tue Apr 28 09:14:31 2020

   => Loading Basis Set <=

    Name: CC-PVDZ
    Role: ORBITAL
    Keyword: BASIS
    atoms 1-2, 10-11 entry C          line   138 file /theoryfs2/ds/metcalf/miniconda2/envs/tf2gpu/share/psi4/basis/cc-pvdz.gbs
    atoms 3, 12      entry O          line   198 file /theoryfs2/ds/metcalf/miniconda2/envs/tf2gpu/share/psi4/basis/cc-pvdz.gbs
    atoms 4, 13      entry N          line   168 file /theoryfs2/ds/metcalf/miniconda2/envs/tf2gpu/share/psi4/basis/cc-pvdz.gbs
    atoms 5-9, 14-18 entry H          line    22 file /theoryfs2/ds/metcalf/miniconda2/envs/tf2gpu/share/psi4/basis/cc-pvdz.gbs

         ---------------------------------------------------------
                                   SCF
               by Justin Turney, Rob Parrish, Andy Simmonett
                          and Daniel G. A. Smith
                              RHF Reference
                        1 Threads,    500 MiB Core
         ---------------------------------------------------------

  ==> Geometry <==

    Molecular point group: c1
    Full point group: C1

    Geometry (in Angstrom), charge = 0, multiplicity = 1:

       Center              X                  Y                   Z               Mass
    ------------   -----------------  -----------------  -----------------  -----------------
         C           -1.302547042794     3.462862738445     1.161128396239    12.000000000000
         C           -0.423547042794     2.275862738445     0.820128396239    12.000000000000
         O            0.684452957206     2.144862738445     1.332128396239    15.994914619570
         N           -0.919547042794     1.398862738445    -0.032871603761    14.003074004430
         H           -0.406547042794     0.551862738445    -0.252871603761     1.007825032230
         H           -1.820547042794     1.561862738445    -0.470871603761     1.007825032230
         H           -1.754547042794     3.852862738445     0.248128396239     1.007825032230
         H           -0.657547042794     4.232862738445     1.580128396239     1.007825032230
         H           -2.089547042794     3.200052738445     1.883318396239     1.007825032230
         C           -0.018547042794    -3.668137261555    -0.830871603761    12.000000000000
         C            0.470452957206    -2.231137261555    -0.812871603761    12.000000000000
         O           -0.309547042794    -1.297137261555    -0.950871603761    15.994914619570
         N            1.767452957206    -2.043137261555    -0.635871603761    14.003074004430
         H            0.826452957206    -4.326137261555    -0.618871603761     1.007825032230
         H           -0.377547042794    -3.886137261555    -1.835871603761     1.007825032230
         H            2.123452957206    -1.098137261555    -0.651871603761     1.007825032230
         H            2.401452957206    -2.826137261555    -0.574871603761     1.007825032230
         H           -0.804667042794    -3.853567261555    -0.084131603761     1.007825032230

  Running in c1 symmetry.

  Rotational constants: A =      0.16420  B =      0.01999  C =      0.01840 [cm^-1]
  Rotational constants: A =   4922.59318  B =    599.42140  C =    551.50852 [MHz]
  Nuclear repulsion =  354.888062825707152

  Charge       = 0
  Multiplicity = 1
  Electrons    = 64
  Nalpha       = 32
  Nbeta        = 32

  ==> Algorithm <==

  SCF Algorithm Type is PK.
  DIIS enabled.
  MOM disabled.
  Fractional occupation disabled.
  Guess Type is SAD.
  Energy threshold   = 1.00e-06
  Density threshold  = 1.00e-10
  Integral threshold = 0.00e+00

  ==> Primary Basis <==

  Basis Set: CC-PVDZ
    Blend: CC-PVDZ
    Number of shells: 78
    Number of basis function: 162
    Number of Cartesian functions: 170
    Spherical Harmonics?: true
    Max angular momentum: 2

  ==> Pre-Iterations <==

   -------------------------------------------------------
    Irrep   Nso     Nmo     Nalpha   Nbeta   Ndocc  Nsocc
   -------------------------------------------------------
     A        162     162       0       0       0       0
   -------------------------------------------------------
    Total     162     162      32      32      32       0
   -------------------------------------------------------

  ==> Integral Setup <==

  Using integral reordering PK algorithm.
  Sizing the integral batches needed.
  Building batch lookup table.
   Calculation information:
      Number of atoms:                  18
      Number of AO shells:              78
      Number of primitives:            226
      Number of atomic orbitals:       170
      Number of basis functions:       162

      Integral cutoff                 1.00e-12
      Number of threads:                 1

	Batch   1 pq = [       0,    9405] index = [             0,44231715] size =     44231715
	Batch   2 pq = [    9405,   13203] index = [      44231715,87166206] size =     42934491
  Task number: 8
  Buffer size: 11059200
  Buffer per thread: 2
  We computed 3160296 shell quartets total.
  Whereas there are 4747821 unique shell quartets.

  ==> DiskJK: Disk-Based J/K Matrices <==

    J tasked:                  Yes
    K tasked:                  Yes
    wK tasked:                  No
    Memory [MiB]:              375
    Schwarz Cutoff:          1E-12

    OpenMP threads:              1

  Minimum eigenvalue in the overlap matrix is 4.4111455285E-03.
  Using Symmetric Orthogonalization.

  SCF Guess: Superposition of Atomic Densities via on-the-fly atomic UHF.

  ==> Iterations <==

                        Total Energy        Delta E     RMS |[F,P]|

   @RHF iter SAD:  -414.57670142303317   -4.14577e+02   0.00000e+00
   @RHF iter   1:  -415.71436727384565   -1.13767e+00   4.62861e-03 DIIS
   @RHF iter   2:  -415.92540243027486   -2.11035e-01   2.67588e-03 DIIS
   @RHF iter   3:  -415.99244014704971   -6.70377e-02   5.07004e-04 DIIS
   @RHF iter   4:  -415.99650371475406   -4.06357e-03   1.93059e-04 DIIS
   @RHF iter   5:  -415.99719022770699   -6.86513e-04   3.55429e-05 DIIS
   @RHF iter   6:  -415.99723653077024   -4.63031e-05   1.79935e-05 DIIS
   @RHF iter   7:  -415.99724528851618   -8.75775e-06   6.68580e-06 DIIS
   @RHF iter   8:  -415.99724709779531   -1.80928e-06   2.10240e-06 DIIS
   @RHF iter   9:  -415.99724726982083   -1.72026e-07   7.51065e-07 DIIS
   @RHF iter  10:  -415.99724728116814   -1.13473e-08   2.76165e-07 DIIS
   @RHF iter  11:  -415.99724728301874   -1.85059e-09   4.53275e-08 DIIS
   @RHF iter  12:  -415.99724728308587   -6.71321e-11   1.20402e-08 DIIS
   @RHF iter  13:  -415.99724728309025   -4.37694e-12   3.16859e-09 DIIS
   @RHF iter  14:  -415.99724728309059   -3.41061e-13   1.22324e-09 DIIS
   @RHF iter  15:  -415.99724728309030    2.84217e-13   3.54159e-10 DIIS
   @RHF iter  16:  -415.99724728309042   -1.13687e-13   1.29176e-10 DIIS
   @RHF iter  17:  -415.99724728309070   -2.84217e-13   5.09276e-11 DIIS
  Energy and wave function converged.

  ==> Post-Iterations <==

    Orbital Energies [Eh]
    ---------------------

    Doubly Occupied:

       1A    -20.520319     2A    -20.479381     3A    -15.600481
       4A    -15.551272     5A    -11.363442     6A    -11.321636
       7A    -11.253643     8A    -11.222785     9A     -1.388541
      10A     -1.343826    11A     -1.230737    12A     -1.185291
      13A     -1.010978    14A     -0.978771    15A     -0.812864
      16A     -0.771271    17A     -0.738776    18A     -0.698167
      19A     -0.667462    20A     -0.631823    21A     -0.625505
      22A     -0.592447    23A     -0.586652    24A     -0.567695
      25A     -0.545053    26A     -0.538587    27A     -0.533539
      28A     -0.499755    29A     -0.427827    30A     -0.420402
      31A     -0.386886    32A     -0.374638

    Virtual:

      33A      0.158523    34A      0.187396    35A      0.191598
      36A      0.210224    37A      0.216919    38A      0.219684
      39A      0.249092    40A      0.268669    41A      0.273008
      42A      0.274908    43A      0.298325    44A      0.345603
      45A      0.372145    46A      0.404312    47A      0.477813
      48A      0.500943    49A      0.556459    50A      0.581997
      51A      0.629190    52A      0.654652    53A      0.664109
      54A      0.670046    55A      0.677698    56A      0.697088
      57A      0.718853    58A      0.728727    59A      0.743330
      60A      0.754742    61A      0.764365    62A      0.776432
      63A      0.829576    64A      0.845524    65A      0.861849
      66A      0.872841    67A      0.877631    68A      0.899663
      69A      0.912968    70A      0.928268    71A      0.942107
      72A      0.980134    73A      0.989240    74A      0.995009
      75A      1.036600    76A      1.039628    77A      1.055255
      78A      1.100704    79A      1.129464    80A      1.137020
      81A      1.177188    82A      1.199102    83A      1.307646
      84A      1.327598    85A      1.358767    86A      1.372889
      87A      1.389543    88A      1.393767    89A      1.411297
      90A      1.424192    91A      1.439868    92A      1.453253
      93A      1.465033    94A      1.488795    95A      1.524188
      96A      1.580170    97A      1.614867    98A      1.649430
      99A      1.658268   100A      1.671188   101A      1.693540
     102A      1.746878   103A      1.810232   104A      1.840813
     105A      1.853242   106A      1.869716   107A      1.882933
     108A      1.894235   109A      1.905798   110A      1.909640
     111A      1.915950   112A      1.918972   113A      1.950681
     114A      1.960926   115A      1.997264   116A      2.006632
     117A      2.044478   118A      2.065967   119A      2.116831
     120A      2.123892   121A      2.163690   122A      2.194836
     123A      2.215269   124A      2.222598   125A      2.286348
     126A      2.305660   127A      2.391520   128A      2.413060
     129A      2.438285   130A      2.468624   131A      2.481981
     132A      2.508064   133A      2.526218   134A      2.562328
     135A      2.587726   136A      2.612877   137A      2.630229
     138A      2.641878   139A      2.733325   140A      2.751202
     141A      2.762143   142A      2.781172   143A      2.791978
     144A      2.806885   145A      2.842767   146A      2.901690
     147A      2.958681   148A      3.035114   149A      3.072430
     150A      3.117925   151A      3.125949   152A      3.165287
     153A      3.264262   154A      3.323109   155A      3.491383
     156A      3.503740   157A      3.538980   158A      3.563110
     159A      3.856576   160A      3.886238   161A      3.929198
     162A      3.948070

    Final Occupation by Irrep:
              A
    DOCC [    32 ]

  @RHF Final Energy:  -415.99724728309070

   => Energetics <=

    Nuclear Repulsion Energy =            354.8880628257071521
    One-Electron Energy =               -1272.0297146588168289
    Two-Electron Energy =                 501.1444045500189759
    Total Energy =                       -415.9972472830907009

Computation Completed

Properties will be evaluated at   0.000000,   0.000000,   0.000000 [a0]

Properties computed using the SCF density matrix

  Nuclear Dipole Moment: [e a0]
     X:    -2.4002      Y:    -2.4227      Z:    -0.7254

  Electronic Dipole Moment: [e a0]
     X:     2.3439      Y:     0.8319      Z:    -0.1054

  Dipole Moment: [e a0]
     X:    -0.0563      Y:    -1.5908      Z:    -0.8307     Total:     1.7955

  Dipole Moment: [D]
     X:    -0.1431      Y:    -4.0433      Z:    -2.1115     Total:     4.5637

*** tstop() called on ds3 at Tue Apr 28 09:15:12 2020
Module time:
	user time   =      26.19 seconds =       0.44 minutes
	system time =      17.60 seconds =       0.29 minutes
	total time  =         41 seconds =       0.68 minutes
Total time:
	user time   =      26.19 seconds =       0.44 minutes
	system time =      17.60 seconds =       0.29 minutes
	total time  =         41 seconds =       0.68 minutes
                                     G D M A

                                 by Anthony Stone

                           version 2.2.06, 22 June 2011

               Distributed Multipoles from Gaussian wavefunctions

Starting at 9:15:12 on 28 Apr 2020

Using SCF density matrix from file ./SSI/SSI-025ASN-181ASN-1-dimer.test.9793.fchk

                         Distributed Multipole Analysis

Standard DMA

Positions and radii in angstrom
Multipole moments in atomic units, ea_0^k for rank k

C          x = -1.302547  y =  3.462863  z =  1.161128 angstrom
           Maximum rank =  0   Radius =  0.650 angstrom
                   Q00  =  -0.270652

C          x = -0.423547  y =  2.275863  z =  0.820128 angstrom
           Maximum rank =  0   Radius =  0.650 angstrom
                   Q00  =   0.841672

O          x =  0.684453  y =  2.144863  z =  1.332128 angstrom
           Maximum rank =  0   Radius =  0.650 angstrom
                   Q00  =  -0.817246

N          x = -0.919547  y =  1.398863  z = -0.032872 angstrom
           Maximum rank =  0   Radius =  0.650 angstrom
                   Q00  =  -0.555004

H          x = -0.406547  y =  0.551863  z = -0.252872 angstrom
           Maximum rank =  0   Radius =  0.325 angstrom
                   Q00  =   0.259458

H          x = -1.820547  y =  1.561863  z = -0.470872 angstrom
           Maximum rank =  0   Radius =  0.325 angstrom
                   Q00  =   0.194170

H          x = -1.754547  y =  3.852863  z =  0.248128 angstrom
           Maximum rank =  0   Radius =  0.325 angstrom
                   Q00  =   0.086271

H          x = -0.657547  y =  4.232863  z =  1.580128 angstrom
           Maximum rank =  0   Radius =  0.325 angstrom
                   Q00  =   0.119856

H          x = -2.089547  y =  3.200053  z =  1.883318 angstrom
           Maximum rank =  0   Radius =  0.325 angstrom
                   Q00  =   0.120000

C          x = -0.018547  y = -3.668137  z = -0.830872 angstrom
           Maximum rank =  0   Radius =  0.650 angstrom
                   Q00  =  -0.254302

C          x =  0.470453  y = -2.231137  z = -0.812872 angstrom
           Maximum rank =  0   Radius =  0.650 angstrom
                   Q00  =   0.817843

O          x = -0.309547  y = -1.297137  z = -0.950872 angstrom
           Maximum rank =  0   Radius =  0.650 angstrom
                   Q00  =  -0.804658

N          x =  1.767453  y = -2.043137  z = -0.635872 angstrom
           Maximum rank =  0   Radius =  0.650 angstrom
                   Q00  =  -0.530896

H          x =  0.826453  y = -4.326137  z = -0.618872 angstrom
           Maximum rank =  0   Radius =  0.325 angstrom
                   Q00  =   0.072713

H          x = -0.377547  y = -3.886137  z = -1.835872 angstrom
           Maximum rank =  0   Radius =  0.325 angstrom
                   Q00  =   0.135362

H          x =  2.123453  y = -1.098137  z = -0.651872 angstrom
           Maximum rank =  0   Radius =  0.325 angstrom
                   Q00  =   0.234815

H          x =  2.401453  y = -2.826137  z = -0.574872 angstrom
           Maximum rank =  0   Radius =  0.325 angstrom
                   Q00  =   0.213041

H          x = -0.804667  y = -3.853567  z = -0.084132 angstrom
           Maximum rank =  0   Radius =  0.325 angstrom
                   Q00  =   0.137559

Total multipoles referred to origin at
           x =   0.000000,  y =    0.000000,  z =    0.000000 angstrom
                   Q00  =  -0.000000

Finished at 9:15:12 on 28 Apr 2020

  DMA results are available in the Python driver through the
	  variable('DMA DISTRIBUTED MULTIPOLES')
  and
	  variable('DMA TOTAL MULTIPOLES')
  commands.

    Psi4 stopped on: Tuesday, 28 April 2020 09:15AM
    Psi4 wall time for execution: 0:00:41.87

*** Psi4 exiting successfully. Buy a developer a beer!
