                               Psi4 1.3.2 release

  ==> Input File <==

--------------------------------------------------------------------------
import numpy as np
set {scf_type pk
basis cc-pvdz
d_convergence 10
gdma_switch   0
gdma_limit    0
gdma_origin   [ 0.0,  0.0,  0.0 ]
}
molecule test {
    units Angstrom
    0 1
    --
    0 1
    C                2.979053574911446     1.013685663724721     1.790012606959150
    C                0.115053574911446    -0.835314336275279     0.136012606959150
    C                1.238053574911446    -0.037314336275279     0.312012606959150
    C               -0.480946425088554    -1.446314336275279     1.221012606959150
    C                1.776053574911446     0.143685663724721     1.586012606959150
    C                0.043053574911446    -1.259314336275279     2.493012606959150
    C                1.164053574911446    -0.457314336275279     2.676012606959150
    H               -0.290946425088554    -0.988314336275279    -0.852987393040850
    H                1.698053574911446     0.434685663724721    -0.544987393040850
    H               -1.348946425088554    -2.075314336275279     1.080012606959150
    H               -0.420946425088554    -1.736314336275279     3.345012606959150
    H                3.708053574911446     0.805685663724721     1.008012606959150
    H                3.439053574911446     0.742685663724721     2.742012606959150
    H                1.560053574911446    -0.309314336275279     3.669012606959150
    H                2.742369574911446     2.087755663724721     1.808712606959150
    C               -1.646946425088554     0.533685663724721    -2.895987393040850
    C               -1.880946425088555     1.005685663724721    -4.337987393040850
    C               -2.788946425088554     0.863685663724721    -1.947987393040850
    H               -1.485946425088554    -0.545314336275279    -2.890987393040851
    H               -0.755946425088554     1.010685663724721    -2.487987393040850
    H               -2.093946425088554     2.076685663724720    -4.315987393040850
    H               -2.498946425088554     0.598685663724721    -0.930987393040850
    H               -3.002946425088554     1.929685663724721    -1.983987393040850
    H               -3.683946425088554     0.299685663724721    -2.204987393040850
    H               -0.982084125088554     0.837635663724721    -4.949387393040850
    H               -2.745191425088554     0.488145663724721    -4.779837393040849

}
e, wfn = energy('scf', return_wfn=True)
gdma(wfn)
dmavals = variable('DMA DISTRIBUTED MULTIPOLES')
charges = np.array(dmavals)
print(charges)
np.save('SSI-052PHE-157ILE-1-dimer.npy', np.array(charges))--------------------------------------------------------------------------

*** tstart() called on ds3
*** at Tue Apr 28 20:39:59 2020

   => Loading Basis Set <=

    Name: CC-PVDZ
    Role: ORBITAL
    Keyword: BASIS
    atoms 1-7, 16-18  entry C          line   138 file /theoryfs2/ds/metcalf/miniconda2/envs/tf2gpu/share/psi4/basis/cc-pvdz.gbs
    atoms 8-15, 19-26 entry H          line    22 file /theoryfs2/ds/metcalf/miniconda2/envs/tf2gpu/share/psi4/basis/cc-pvdz.gbs

         ---------------------------------------------------------
                                   SCF
               by Justin Turney, Rob Parrish, Andy Simmonett
                          and Daniel G. A. Smith
                              RHF Reference
                        1 Threads,    500 MiB Core
         ---------------------------------------------------------

  ==> Geometry <==

    Molecular point group: c1
    Full point group: C1

    Geometry (in Angstrom), charge = 0, multiplicity = 1:

       Center              X                  Y                   Z               Mass
    ------------   -----------------  -----------------  -----------------  -----------------
         C            2.979053574911     1.013685663725     1.790012606959    12.000000000000
         C            0.115053574911    -0.835314336275     0.136012606959    12.000000000000
         C            1.238053574911    -0.037314336275     0.312012606959    12.000000000000
         C           -0.480946425089    -1.446314336275     1.221012606959    12.000000000000
         C            1.776053574911     0.143685663725     1.586012606959    12.000000000000
         C            0.043053574911    -1.259314336275     2.493012606959    12.000000000000
         C            1.164053574911    -0.457314336275     2.676012606959    12.000000000000
         H           -0.290946425089    -0.988314336275    -0.852987393041     1.007825032230
         H            1.698053574911     0.434685663725    -0.544987393041     1.007825032230
         H           -1.348946425089    -2.075314336275     1.080012606959     1.007825032230
         H           -0.420946425089    -1.736314336275     3.345012606959     1.007825032230
         H            3.708053574911     0.805685663725     1.008012606959     1.007825032230
         H            3.439053574911     0.742685663725     2.742012606959     1.007825032230
         H            1.560053574911    -0.309314336275     3.669012606959     1.007825032230
         H            2.742369574911     2.087755663725     1.808712606959     1.007825032230
         C           -1.646946425089     0.533685663725    -2.895987393041    12.000000000000
         C           -1.880946425089     1.005685663725    -4.337987393041    12.000000000000
         C           -2.788946425089     0.863685663725    -1.947987393041    12.000000000000
         H           -1.485946425089    -0.545314336275    -2.890987393041     1.007825032230
         H           -0.755946425089     1.010685663725    -2.487987393041     1.007825032230
         H           -2.093946425089     2.076685663725    -4.315987393041     1.007825032230
         H           -2.498946425089     0.598685663725    -0.930987393041     1.007825032230
         H           -3.002946425089     1.929685663725    -1.983987393041     1.007825032230
         H           -3.683946425089     0.299685663725    -2.204987393041     1.007825032230
         H           -0.982084125089     0.837635663725    -4.949387393041     1.007825032230
         H           -2.745191425089     0.488145663725    -4.779837393041     1.007825032230

  Running in c1 symmetry.

  Rotational constants: A =      0.07210  B =      0.01521  C =      0.01333 [cm^-1]
  Rotational constants: A =   2161.39379  B =    456.00572  C =    399.58715 [MHz]
  Nuclear repulsion =  475.539312489344923

  Charge       = 0
  Multiplicity = 1
  Electrons    = 76
  Nalpha       = 38
  Nbeta        = 38

  ==> Algorithm <==

  SCF Algorithm Type is PK.
  DIIS enabled.
  MOM disabled.
  Fractional occupation disabled.
  Guess Type is SAD.
  Energy threshold   = 1.00e-06
  Density threshold  = 1.00e-10
  Integral threshold = 0.00e+00

  ==> Primary Basis <==

  Basis Set: CC-PVDZ
    Blend: CC-PVDZ
    Number of shells: 108
    Number of basis function: 220
    Number of Cartesian functions: 230
    Spherical Harmonics?: true
    Max angular momentum: 2

  ==> Pre-Iterations <==

   -------------------------------------------------------
    Irrep   Nso     Nmo     Nalpha   Nbeta   Ndocc  Nsocc
   -------------------------------------------------------
     A        220     220       0       0       0       0
   -------------------------------------------------------
    Total     220     220      38      38      38       0
   -------------------------------------------------------

  ==> Integral Setup <==

  Using integral reordering PK algorithm.
  Sizing the integral batches needed.
  Building batch lookup table.
   Calculation information:
      Number of atoms:                  26
      Number of AO shells:             108
      Number of primitives:            300
      Number of atomic orbitals:       230
      Number of basis functions:       220

      Integral cutoff                 1.00e-12
      Number of threads:                 1

	Batch   1 pq = [       0,    9405] index = [             0,44231715] size =     44231715
	Batch   2 pq = [    9405,   13301] index = [      44231715,88464951] size =     44233236
	Batch   3 pq = [   13301,   16290] index = [      88464951,132690195] size =     44225244
	Batch   4 pq = [   16290,   18810] index = [     132690195,176917455] size =     44227260
	Batch   5 pq = [   18810,   21030] index = [     176917455,221140965] size =     44223510
	Batch   6 pq = [   21030,   23037] index = [     221140965,265363203] size =     44222238
	Batch   7 pq = [   23037,   24310] index = [     265363203,295500205] size =     30137002
  Task number: 27
  Buffer size: 11059200
  Buffer per thread: 2
  We computed 13392024 shell quartets total.
  Whereas there are 17325441 unique shell quartets.

  ==> DiskJK: Disk-Based J/K Matrices <==

    J tasked:                  Yes
    K tasked:                  Yes
    wK tasked:                  No
    Memory [MiB]:              375
    Schwarz Cutoff:          1E-12

    OpenMP threads:              1

  Minimum eigenvalue in the overlap matrix is 2.9787944053E-04.
  Using Symmetric Orthogonalization.

  SCF Guess: Superposition of Atomic Densities via on-the-fly atomic UHF.

  ==> Iterations <==

                        Total Energy        Delta E     RMS |[F,P]|

   @RHF iter SAD:  -386.94809512926281   -3.86948e+02   0.00000e+00
   @RHF iter   1:  -387.77111102755953   -8.23016e-01   2.76551e-03 DIIS
   @RHF iter   2:  -387.99194351782967   -2.20832e-01   1.16360e-03 DIIS
   @RHF iter   3:  -388.02750862616665   -3.55651e-02   2.51046e-04 DIIS
   @RHF iter   4:  -388.03040926139630   -2.90064e-03   5.27994e-05 DIIS
   @RHF iter   5:  -388.03050034437621   -9.10830e-05   1.65717e-05 DIIS
   @RHF iter   6:  -388.03050893736633   -8.59299e-06   4.90214e-06 DIIS
   @RHF iter   7:  -388.03050978449505   -8.47129e-07   1.19192e-06 DIIS
   @RHF iter   8:  -388.03050984250712   -5.80121e-08   2.80439e-07 DIIS
   @RHF iter   9:  -388.03050984860892   -6.10180e-09   1.04230e-07 DIIS
   @RHF iter  10:  -388.03050984978285   -1.17393e-09   5.35394e-08 DIIS
   @RHF iter  11:  -388.03050985014659   -3.63741e-10   2.14186e-08 DIIS
   @RHF iter  12:  -388.03050985022008   -7.34985e-11   7.59312e-09 DIIS
   @RHF iter  13:  -388.03050985022981   -9.72022e-12   3.05812e-09 DIIS
   @RHF iter  14:  -388.03050985022935    4.54747e-13   7.40253e-10 DIIS
   @RHF iter  15:  -388.03050985023111   -1.76215e-12   3.21471e-10 DIIS
   @RHF iter  16:  -388.03050985023071    3.97904e-13   1.54172e-10 DIIS
   @RHF iter  17:  -388.03050985022986    8.52651e-13   6.26415e-11 DIIS
  Energy and wave function converged.

  ==> Post-Iterations <==

    Orbital Energies [Eh]
    ---------------------

    Doubly Occupied:

       1A    -11.238688     2A    -11.234173     3A    -11.232577
       4A    -11.229298     5A    -11.228731     6A    -11.228584
       7A    -11.228047     8A    -11.220206     9A    -11.218893
      10A    -11.212142    11A     -1.155073    12A     -1.053947
      13A     -1.046372    14A     -1.012383    15A     -0.931380
      16A     -0.924903    17A     -0.825885    18A     -0.797962
      19A     -0.793490    20A     -0.691812    21A     -0.632942
      22A     -0.629736    23A     -0.626592    24A     -0.595536
      25A     -0.581784    26A     -0.578231    27A     -0.562829
      28A     -0.549006    29A     -0.533807    30A     -0.532244
      31A     -0.488247    32A     -0.484890    33A     -0.481548
      34A     -0.471785    35A     -0.468616    36A     -0.467701
      37A     -0.332520    38A     -0.322496

    Virtual:

      39A      0.134866    40A      0.142475    41A      0.173271
      42A      0.191437    43A      0.203188    44A      0.212131
      45A      0.222860    46A      0.232021    47A      0.244724
      48A      0.253187    49A      0.261190    50A      0.265167
      51A      0.274860    52A      0.288569    53A      0.300175
      54A      0.304527    55A      0.311191    56A      0.338245
      57A      0.364575    58A      0.381179    59A      0.385749
      60A      0.426309    61A      0.461709    62A      0.468623
      63A      0.480007    64A      0.498611    65A      0.563081
      66A      0.575280    67A      0.597192    68A      0.605878
      69A      0.615281    70A      0.620466    71A      0.637353
      72A      0.665451    73A      0.688686    74A      0.698615
      75A      0.710971    76A      0.715464    77A      0.736077
      78A      0.745061    79A      0.754378    80A      0.760916
      81A      0.768007    82A      0.777490    83A      0.781152
      84A      0.799895    85A      0.810709    86A      0.826836
      87A      0.847491    88A      0.862094    89A      0.863373
      90A      0.879285    91A      0.882367    92A      0.894860
      93A      0.895617    94A      0.897454    95A      0.903124
      96A      0.905423    97A      0.911699    98A      0.918799
      99A      0.928929   100A      0.934007   101A      0.935360
     102A      0.950638   103A      0.972986   104A      0.987389
     105A      0.997340   106A      1.006337   107A      1.053163
     108A      1.070793   109A      1.111478   110A      1.126036
     111A      1.135545   112A      1.157999   113A      1.160947
     114A      1.171776   115A      1.195268   116A      1.207224
     117A      1.239698   118A      1.250362   119A      1.253629
     120A      1.268771   121A      1.300984   122A      1.311085
     123A      1.327120   124A      1.330099   125A      1.384066
     126A      1.414907   127A      1.470874   128A      1.487459
     129A      1.520476   130A      1.525009   131A      1.541355
     132A      1.562265   133A      1.606859   134A      1.624568
     135A      1.672507   136A      1.679877   137A      1.689297
     138A      1.699141   139A      1.699733   140A      1.741441
     141A      1.747703   142A      1.763509   143A      1.792227
     144A      1.815602   145A      1.863105   146A      1.871127
     147A      1.877629   148A      1.886737   149A      1.887500
     150A      1.894628   151A      1.909444   152A      1.913562
     153A      1.917641   154A      1.923934   155A      1.934145
     156A      1.937099   157A      1.949346   158A      1.955740
     159A      1.960793   160A      1.974572   161A      1.982625
     162A      1.988466   163A      1.990762   164A      1.995990
     165A      2.006777   166A      2.037596   167A      2.048691
     168A      2.060216   169A      2.063396   170A      2.076327
     171A      2.112228   172A      2.136904   173A      2.142624
     174A      2.153517   175A      2.161312   176A      2.174890
     177A      2.187790   178A      2.193541   179A      2.254080
     180A      2.281255   181A      2.294336   182A      2.297438
     183A      2.304197   184A      2.315031   185A      2.322931
     186A      2.330998   187A      2.339053   188A      2.366635
     189A      2.472945   190A      2.478104   191A      2.492026
     192A      2.509241   193A      2.535319   194A      2.547740
     195A      2.587293   196A      2.614799   197A      2.629007
     198A      2.632798   199A      2.744913   200A      2.751652
     201A      2.768297   202A      2.769911   203A      2.773842
     204A      2.790153   205A      2.793053   206A      2.825825
     207A      2.830843   208A      2.850915   209A      2.878268
     210A      2.913479   211A      2.970564   212A      2.979294
     213A      2.990913   214A      3.020871   215A      3.027143
     216A      3.065315   217A      3.161750   218A      3.211392
     219A      3.312572   220A      3.988230

    Final Occupation by Irrep:
              A
    DOCC [    38 ]

  @RHF Final Energy:  -388.03050985022986

   => Energetics <=

    Nuclear Repulsion Energy =            475.5393124893449226
    One-Electron Energy =               -1465.4495322603945624
    Two-Electron Energy =                 601.8797099208197778
    Total Energy =                       -388.0305098502299188

Computation Completed

Properties will be evaluated at   0.000000,   0.000000,   0.000000 [a0]

Properties computed using the SCF density matrix

  Nuclear Dipole Moment: [e a0]
     X:    -5.7769      Y:     5.3037      Z:   -11.5209

  Electronic Dipole Moment: [e a0]
     X:     5.8979      Y:    -5.2341      Z:    11.5696

  Dipole Moment: [e a0]
     X:     0.1210      Y:     0.0696      Z:     0.0487     Total:     0.1478

  Dipole Moment: [D]
     X:     0.3075      Y:     0.1770      Z:     0.1238     Total:     0.3758

*** tstop() called on ds3 at Tue Apr 28 20:42:12 2020
Module time:
	user time   =      93.45 seconds =       1.56 minutes
	system time =      44.54 seconds =       0.74 minutes
	total time  =        133 seconds =       2.22 minutes
Total time:
	user time   =      93.45 seconds =       1.56 minutes
	system time =      44.54 seconds =       0.74 minutes
	total time  =        133 seconds =       2.22 minutes
                                     G D M A

                                 by Anthony Stone

                           version 2.2.06, 22 June 2011

               Distributed Multipoles from Gaussian wavefunctions

Starting at 20:42:12 on 28 Apr 2020

Using SCF density matrix from file ./SSI/SSI-052PHE-157ILE-1-dimer.test.15685.fchk

                         Distributed Multipole Analysis

Standard DMA

Positions and radii in angstrom
Multipole moments in atomic units, ea_0^k for rank k

C          x =  2.979054  y =  1.013686  z =  1.790013 angstrom
           Maximum rank =  0   Radius =  0.650 angstrom
                   Q00  =  -0.202252

C          x =  0.115054  y = -0.835314  z =  0.136013 angstrom
           Maximum rank =  0   Radius =  0.650 angstrom
                   Q00  =  -0.036995

C          x =  1.238054  y = -0.037314  z =  0.312013 angstrom
           Maximum rank =  0   Radius =  0.650 angstrom
                   Q00  =  -0.056288

C          x = -0.480946  y = -1.446314  z =  1.221013 angstrom
           Maximum rank =  0   Radius =  0.650 angstrom
                   Q00  =  -0.078190

C          x =  1.776054  y =  0.143686  z =  1.586013 angstrom
           Maximum rank =  0   Radius =  0.650 angstrom
                   Q00  =  -0.094279

C          x =  0.043054  y = -1.259314  z =  2.493013 angstrom
           Maximum rank =  0   Radius =  0.650 angstrom
                   Q00  =  -0.042027

C          x =  1.164054  y = -0.457314  z =  2.676013 angstrom
           Maximum rank =  0   Radius =  0.650 angstrom
                   Q00  =  -0.087993

H          x = -0.290946  y = -0.988314  z = -0.852987 angstrom
           Maximum rank =  0   Radius =  0.325 angstrom
                   Q00  =   0.065139

H          x =  1.698054  y =  0.434686  z = -0.544987 angstrom
           Maximum rank =  0   Radius =  0.325 angstrom
                   Q00  =   0.054107

H          x = -1.348946  y = -2.075314  z =  1.080013 angstrom
           Maximum rank =  0   Radius =  0.325 angstrom
                   Q00  =   0.057900

H          x = -0.420946  y = -1.736314  z =  3.345013 angstrom
           Maximum rank =  0   Radius =  0.325 angstrom
                   Q00  =   0.063981

H          x =  3.708054  y =  0.805686  z =  1.008013 angstrom
           Maximum rank =  0   Radius =  0.325 angstrom
                   Q00  =   0.099443

H          x =  3.439054  y =  0.742686  z =  2.742013 angstrom
           Maximum rank =  0   Radius =  0.325 angstrom
                   Q00  =   0.094476

H          x =  1.560054  y = -0.309314  z =  3.669013 angstrom
           Maximum rank =  0   Radius =  0.325 angstrom
                   Q00  =   0.056989

H          x =  2.742370  y =  2.087756  z =  1.808713 angstrom
           Maximum rank =  0   Radius =  0.325 angstrom
                   Q00  =   0.104724

C          x = -1.646946  y =  0.533686  z = -2.895987 angstrom
           Maximum rank =  0   Radius =  0.650 angstrom
                   Q00  =  -0.090537

C          x = -1.880946  y =  1.005686  z = -4.337987 angstrom
           Maximum rank =  0   Radius =  0.650 angstrom
                   Q00  =  -0.229149

C          x = -2.788946  y =  0.863686  z = -1.947987 angstrom
           Maximum rank =  0   Radius =  0.650 angstrom
                   Q00  =  -0.246489

H          x = -1.485946  y = -0.545314  z = -2.890987 angstrom
           Maximum rank =  0   Radius =  0.325 angstrom
                   Q00  =   0.041313

H          x = -0.755946  y =  1.010686  z = -2.487987 angstrom
           Maximum rank =  0   Radius =  0.325 angstrom
                   Q00  =   0.044388

H          x = -2.093946  y =  2.076686  z = -4.315987 angstrom
           Maximum rank =  0   Radius =  0.325 angstrom
                   Q00  =   0.076723

H          x = -2.498946  y =  0.598686  z = -0.930987 angstrom
           Maximum rank =  0   Radius =  0.325 angstrom
                   Q00  =   0.089655

H          x = -3.002946  y =  1.929686  z = -1.983987 angstrom
           Maximum rank =  0   Radius =  0.325 angstrom
                   Q00  =   0.076886

H          x = -3.683946  y =  0.299686  z = -2.204987 angstrom
           Maximum rank =  0   Radius =  0.325 angstrom
                   Q00  =   0.073984

H          x = -0.982084  y =  0.837636  z = -4.949387 angstrom
           Maximum rank =  0   Radius =  0.325 angstrom
                   Q00  =   0.085559

H          x = -2.745191  y =  0.488146  z = -4.779837 angstrom
           Maximum rank =  0   Radius =  0.325 angstrom
                   Q00  =   0.078935

Total multipoles referred to origin at
           x =   0.000000,  y =    0.000000,  z =    0.000000 angstrom
                   Q00  =  -0.000000

Finished at 20:42:12 on 28 Apr 2020

  DMA results are available in the Python driver through the
	  variable('DMA DISTRIBUTED MULTIPOLES')
  and
	  variable('DMA TOTAL MULTIPOLES')
  commands.

    Psi4 stopped on: Tuesday, 28 April 2020 08:42PM
    Psi4 wall time for execution: 0:02:12.82

*** Psi4 exiting successfully. Buy a developer a beer!
