                               Psi4 1.3.2 release

  ==> Input File <==

--------------------------------------------------------------------------
import numpy as np
set {scf_type pk
basis cc-pvdz
d_convergence 10
gdma_switch   0
gdma_limit    0
gdma_origin   [ 0.0,  0.0,  0.0 ]
}
molecule test {
    units Angstrom
    0 1
    --
    0 1
    C                1.560761015567023    -1.167263598510013     0.814073129002461
    C                1.793761015567023    -2.388263598510013    -0.068926870997539
    H                1.524761015567023    -1.469263598510013     1.862073129002461
    H                2.365761015567024    -0.444263598510013     0.672073129002461
    H                0.611761015567023    -0.706263598510013     0.553073129002461
    H                2.759761015567023    -2.820263598510013     0.181073129002461
    H                1.001811015567023    -3.125179598510013     0.130493129002461
    H                1.810271015567023    -2.096741598510013    -1.129466870997539
    C               -1.160238984432977     1.212736401489987    -0.382926870997539
    C               -2.195238984432976     2.340736401489987    -0.364926870997539
    H               -0.463238984432977     1.349736401489987    -1.209926870997539
    H               -0.606238984432977     1.214736401489987     0.557073129002461
    H               -1.659238984432977     0.247736401489987    -0.493926870997539
    H               -2.917238984432976     2.158736401489987     0.435073129002461
    H               -2.709258984432977     2.404420401489987    -1.335356870997539
    H               -1.707528984432977     3.311070901489987    -0.190016870997539

}
e, wfn = energy('scf', return_wfn=True)
gdma(wfn)
dmavals = variable('DMA DISTRIBUTED MULTIPOLES')
charges = np.array(dmavals)
print(charges)
np.save('SSI-100LEU-134ALA-1-dimer.npy', np.array(charges))--------------------------------------------------------------------------

*** tstart() called on ds3
*** at Tue Apr 28 09:04:38 2020

   => Loading Basis Set <=

    Name: CC-PVDZ
    Role: ORBITAL
    Keyword: BASIS
    atoms 1-2, 9-10  entry C          line   138 file /theoryfs2/ds/metcalf/miniconda2/envs/tf2gpu/share/psi4/basis/cc-pvdz.gbs
    atoms 3-8, 11-16 entry H          line    22 file /theoryfs2/ds/metcalf/miniconda2/envs/tf2gpu/share/psi4/basis/cc-pvdz.gbs

         ---------------------------------------------------------
                                   SCF
               by Justin Turney, Rob Parrish, Andy Simmonett
                          and Daniel G. A. Smith
                              RHF Reference
                        1 Threads,    500 MiB Core
         ---------------------------------------------------------

  ==> Geometry <==

    Molecular point group: c1
    Full point group: C1

    Geometry (in Angstrom), charge = 0, multiplicity = 1:

       Center              X                  Y                   Z               Mass
    ------------   -----------------  -----------------  -----------------  -----------------
         C            1.560761015567    -1.167263598510     0.814073129002    12.000000000000
         C            1.793761015567    -2.388263598510    -0.068926870998    12.000000000000
         H            1.524761015567    -1.469263598510     1.862073129002     1.007825032230
         H            2.365761015567    -0.444263598510     0.672073129002     1.007825032230
         H            0.611761015567    -0.706263598510     0.553073129002     1.007825032230
         H            2.759761015567    -2.820263598510     0.181073129002     1.007825032230
         H            1.001811015567    -3.125179598510     0.130493129002     1.007825032230
         H            1.810271015567    -2.096741598510    -1.129466870998     1.007825032230
         C           -1.160238984433     1.212736401490    -0.382926870998    12.000000000000
         C           -2.195238984433     2.340736401490    -0.364926870998    12.000000000000
         H           -0.463238984433     1.349736401490    -1.209926870998     1.007825032230
         H           -0.606238984433     1.214736401490     0.557073129002     1.007825032230
         H           -1.659238984433     0.247736401490    -0.493926870998     1.007825032230
         H           -2.917238984433     2.158736401490     0.435073129002     1.007825032230
         H           -2.709258984433     2.404420401490    -1.335356870998     1.007825032230
         H           -1.707528984433     3.311070901490    -0.190016870998     1.007825032230

  Running in c1 symmetry.

  Rotational constants: A =      0.67554  B =      0.04158  C =      0.04040 [cm^-1]
  Rotational constants: A =  20252.29636  B =   1246.62456  C =   1211.29389 [MHz]
  Nuclear repulsion =  120.153209467425313

  Charge       = 0
  Multiplicity = 1
  Electrons    = 36
  Nalpha       = 18
  Nbeta        = 18

  ==> Algorithm <==

  SCF Algorithm Type is PK.
  DIIS enabled.
  MOM disabled.
  Fractional occupation disabled.
  Guess Type is SAD.
  Energy threshold   = 1.00e-06
  Density threshold  = 1.00e-10
  Integral threshold = 0.00e+00

  ==> Primary Basis <==

  Basis Set: CC-PVDZ
    Blend: CC-PVDZ
    Number of shells: 60
    Number of basis function: 116
    Number of Cartesian functions: 120
    Spherical Harmonics?: true
    Max angular momentum: 2

  ==> Pre-Iterations <==

   -------------------------------------------------------
    Irrep   Nso     Nmo     Nalpha   Nbeta   Ndocc  Nsocc
   -------------------------------------------------------
     A        116     116       0       0       0       0
   -------------------------------------------------------
    Total     116     116      18      18      18       0
   -------------------------------------------------------

  ==> Integral Setup <==

  Using integral reordering PK algorithm.
  Sizing the integral batches needed.
  Building batch lookup table.
   Calculation information:
      Number of atoms:                  16
      Number of AO shells:              60
      Number of primitives:            148
      Number of atomic orbitals:       120
      Number of basis functions:       116

      Integral cutoff                 1.00e-12
      Number of threads:                 1

	Batch   1 pq = [       0,    6786] index = [             0,23028291] size =     23028291
  Task number: 3
  Buffer size: 11059200
  Buffer per thread: 2
  We computed 1356010 shell quartets total.
  Whereas there are 1675365 unique shell quartets.

  ==> DiskJK: Disk-Based J/K Matrices <==

    J tasked:                  Yes
    K tasked:                  Yes
    wK tasked:                  No
    Memory [MiB]:              375
    Schwarz Cutoff:          1E-12

    OpenMP threads:              1

  Minimum eigenvalue in the overlap matrix is 5.8905151519E-03.
  Using Symmetric Orthogonalization.

  SCF Guess: Superposition of Atomic Densities via on-the-fly atomic UHF.

  ==> Iterations <==

                        Total Energy        Delta E     RMS |[F,P]|

   @RHF iter SAD:  -157.35273499827511   -1.57353e+02   0.00000e+00
   @RHF iter   1:  -158.30793409345142   -9.55199e-01   4.21067e-03 DIIS
   @RHF iter   2:  -158.44121493026154   -1.33281e-01   1.79269e-03 DIIS
   @RHF iter   3:  -158.46456372783629   -2.33488e-02   3.50460e-04 DIIS
   @RHF iter   4:  -158.46640875600153   -1.84503e-03   3.92601e-05 DIIS
   @RHF iter   5:  -158.46643334510972   -2.45891e-05   6.77368e-06 DIIS
   @RHF iter   6:  -158.46643402159626   -6.76487e-07   1.21832e-06 DIIS
   @RHF iter   7:  -158.46643403614416   -1.45479e-08   3.32313e-07 DIIS
   @RHF iter   8:  -158.46643403717457   -1.03040e-09   4.57855e-08 DIIS
   @RHF iter   9:  -158.46643403720989   -3.53282e-11   1.00551e-08 DIIS
   @RHF iter  10:  -158.46643403721134   -1.44951e-12   2.72070e-09 DIIS
   @RHF iter  11:  -158.46643403721131    2.84217e-14   7.85468e-10 DIIS
   @RHF iter  12:  -158.46643403721140   -8.52651e-14   2.03370e-10 DIIS
   @RHF iter  13:  -158.46643403721154   -1.42109e-13   3.26300e-11 DIIS
  Energy and wave function converged.

  ==> Post-Iterations <==

    Orbital Energies [Eh]
    ---------------------

    Doubly Occupied:

       1A    -11.220199     2A    -11.218322     3A    -11.217511
       4A    -11.213819     5A     -1.019163     6A     -1.017004
       7A     -0.839358     8A     -0.832393     9A     -0.601664
      10A     -0.598913    11A     -0.597072    12A     -0.594283
      13A     -0.505555    14A     -0.496315    15A     -0.489649
      16A     -0.486057    17A     -0.484848    18A     -0.476930

    Virtual:

      19A      0.176555    20A      0.192620    21A      0.229208
      22A      0.238852    23A      0.244608    24A      0.259662
      25A      0.261370    26A      0.276588    27A      0.280403
      28A      0.289652    29A      0.292967    30A      0.326045
      31A      0.397596    32A      0.421018    33A      0.587034
      34A      0.591342    35A      0.603677    36A      0.605460
      37A      0.609639    38A      0.642082    39A      0.669527
      40A      0.679557    41A      0.710411    42A      0.749228
      43A      0.843869    44A      0.883844    45A      0.887469
      46A      0.890913    47A      0.894502    48A      0.896380
      49A      0.900587    50A      0.902915    51A      0.911056
      52A      0.917239    53A      0.934277    54A      0.944817
      55A      0.966810    56A      1.024097    57A      1.125344
      58A      1.125821    59A      1.130735    60A      1.144708
      61A      1.223790    62A      1.308288    63A      1.471253
      64A      1.472433    65A      1.479340    66A      1.489177
      67A      1.573370    68A      1.586214    69A      1.678725
      70A      1.680696    71A      1.691856    72A      1.697763
      73A      1.843680    74A      1.856982    75A      1.865466
      76A      1.882772    77A      1.902468    78A      1.921090
      79A      1.937092    80A      1.941503    81A      1.943453
      82A      1.945257    83A      1.952367    84A      1.958315
      85A      1.958608    86A      1.964257    87A      1.976254
      88A      2.044506    89A      2.097305    90A      2.101859
      91A      2.115928    92A      2.120370    93A      2.288752
      94A      2.301207    95A      2.310735    96A      2.337967
      97A      2.450097    98A      2.452150    99A      2.465334
     100A      2.481070   101A      2.557050   102A      2.563541
     103A      2.572476   104A      2.578647   105A      2.752303
     106A      2.767381   107A      2.775423   108A      2.801238
     109A      2.844240   110A      2.848573   111A      2.856371
     112A      2.860180   113A      2.941355   114A      2.947833
     115A      2.948622   116A      2.990625

    Final Occupation by Irrep:
              A
    DOCC [    18 ]

  @RHF Final Energy:  -158.46643403721154

   => Energetics <=

    Nuclear Repulsion Energy =            120.1532094674253131
    One-Electron Energy =                -449.4211807347313652
    Two-Electron Energy =                 170.8015372300945103
    Total Energy =                       -158.4664340372115419

Computation Completed

Properties will be evaluated at   0.000000,   0.000000,   0.000000 [a0]

Properties computed using the SCF density matrix

  Nuclear Dipole Moment: [e a0]
     X:     0.0107      Y:     0.0229      Z:     0.0302

  Electronic Dipole Moment: [e a0]
     X:    -0.0202      Y:    -0.0039      Z:    -0.0240

  Dipole Moment: [e a0]
     X:    -0.0095      Y:     0.0190      Z:     0.0062     Total:     0.0222

  Dipole Moment: [D]
     X:    -0.0243      Y:     0.0484      Z:     0.0157     Total:     0.0564

*** tstop() called on ds3 at Tue Apr 28 09:04:48 2020
Module time:
	user time   =       7.10 seconds =       0.12 minutes
	system time =       2.66 seconds =       0.04 minutes
	total time  =         10 seconds =       0.17 minutes
Total time:
	user time   =       7.10 seconds =       0.12 minutes
	system time =       2.66 seconds =       0.04 minutes
	total time  =         10 seconds =       0.17 minutes
                                     G D M A

                                 by Anthony Stone

                           version 2.2.06, 22 June 2011

               Distributed Multipoles from Gaussian wavefunctions

Starting at 9:4:48 on 28 Apr 2020

Using SCF density matrix from file ./SSI/SSI-100LEU-134ALA-1-dimer.test.9443.fchk

                         Distributed Multipole Analysis

Standard DMA

Positions and radii in angstrom
Multipole moments in atomic units, ea_0^k for rank k

C          x =  1.560761  y = -1.167264  z =  0.814073 angstrom
           Maximum rank =  0   Radius =  0.650 angstrom
                   Q00  =  -0.240029

C          x =  1.793761  y = -2.388264  z = -0.068927 angstrom
           Maximum rank =  0   Radius =  0.650 angstrom
                   Q00  =  -0.235296

H          x =  1.524761  y = -1.469264  z =  1.862073 angstrom
           Maximum rank =  0   Radius =  0.325 angstrom
                   Q00  =   0.076716

H          x =  2.365761  y = -0.444264  z =  0.672073 angstrom
           Maximum rank =  0   Radius =  0.325 angstrom
                   Q00  =   0.076819

H          x =  0.611761  y = -0.706264  z =  0.553073 angstrom
           Maximum rank =  0   Radius =  0.325 angstrom
                   Q00  =   0.086268

H          x =  2.759761  y = -2.820264  z =  0.181073 angstrom
           Maximum rank =  0   Radius =  0.325 angstrom
                   Q00  =   0.077846

H          x =  1.001811  y = -3.125180  z =  0.130493 angstrom
           Maximum rank =  0   Radius =  0.325 angstrom
                   Q00  =   0.077034

H          x =  1.810271  y = -2.096742  z = -1.129467 angstrom
           Maximum rank =  0   Radius =  0.325 angstrom
                   Q00  =   0.078310

C          x = -1.160239  y =  1.212736  z = -0.382927 angstrom
           Maximum rank =  0   Radius =  0.650 angstrom
                   Q00  =  -0.247820

C          x = -2.195239  y =  2.340736  z = -0.364927 angstrom
           Maximum rank =  0   Radius =  0.650 angstrom
                   Q00  =  -0.227151

H          x = -0.463239  y =  1.349736  z = -1.209927 angstrom
           Maximum rank =  0   Radius =  0.325 angstrom
                   Q00  =   0.081526

H          x = -0.606239  y =  1.214736  z =  0.557073 angstrom
           Maximum rank =  0   Radius =  0.325 angstrom
                   Q00  =   0.078611

H          x = -1.659239  y =  0.247736  z = -0.493927 angstrom
           Maximum rank =  0   Radius =  0.325 angstrom
                   Q00  =   0.077170

H          x = -2.917239  y =  2.158736  z =  0.435073 angstrom
           Maximum rank =  0   Radius =  0.325 angstrom
                   Q00  =   0.081057

H          x = -2.709259  y =  2.404420  z = -1.335357 angstrom
           Maximum rank =  0   Radius =  0.325 angstrom
                   Q00  =   0.079430

H          x = -1.707529  y =  3.311071  z = -0.190017 angstrom
           Maximum rank =  0   Radius =  0.325 angstrom
                   Q00  =   0.079509

Total multipoles referred to origin at
           x =   0.000000,  y =    0.000000,  z =    0.000000 angstrom
                   Q00  =  -0.000000

Finished at 9:4:49 on 28 Apr 2020

  DMA results are available in the Python driver through the
	  variable('DMA DISTRIBUTED MULTIPOLES')
  and
	  variable('DMA TOTAL MULTIPOLES')
  commands.

    Psi4 stopped on: Tuesday, 28 April 2020 09:04AM
    Psi4 wall time for execution: 0:00:10.22

*** Psi4 exiting successfully. Buy a developer a beer!
