                               Psi4 1.3.2 release

  ==> Input File <==

--------------------------------------------------------------------------
import numpy as np
set {scf_type pk
basis cc-pvdz
d_convergence 10
gdma_switch   0
gdma_limit    0
gdma_origin   [ 0.0,  0.0,  0.0 ]
}
molecule test {
    units Angstrom
    0 1
    --
    0 1
    C                1.242980079115708    -0.070888931574080     0.176120070736327
    C                2.651980079115707    -0.549888931574080     0.513120070736327
    C                0.245980079115707    -0.611888931574080     1.169120070736327
    O                0.238980079115707    -0.198888931574080     2.338120070736327
    N               -0.555019920884293    -1.596888931574080     0.729120070736327
    H                1.211980079115707     1.019111068425920     0.207120070736327
    H                0.971980079115707    -0.388888931574080    -0.832879929263673
    H                2.944980079115707    -0.150888931574080     1.488120070736326
    H               -1.228019920884293    -1.991888931574080     1.368120070736327
    H               -0.502019920884293    -1.920888931574080    -0.225879929263673
    H                3.367570079115707    -0.243425931574080    -0.264063929263673
    H                2.660560079115708    -1.649771931574080     0.526699070736327
    C               -1.442019920884293     1.164111068425920    -1.844879929263673
    C               -2.237019920884292     1.881111068425920    -2.959879929263673
    H               -1.736019920884293     1.530111068425920    -0.862879929263673
    H               -1.639019920884293     0.092111068425920    -1.891879929263673
    H               -0.375019920884293     1.333111068425920    -1.992879929263673
    H               -1.945019920884293     1.472111068425920    -3.928879929263673
    H               -1.999359920884293     2.954747068425920    -2.931208929263673
    H               -3.313505920884293     1.706911068425920    -2.815542929263673

}
e, wfn = energy('scf', return_wfn=True)
gdma(wfn)
dmavals = variable('DMA DISTRIBUTED MULTIPOLES')
charges = np.array(dmavals)
print(charges)
np.save('SSI-018ASN-227ALA-1-dimer.npy', np.array(charges))--------------------------------------------------------------------------

*** tstart() called on ds3
*** at Tue Apr 28 15:25:44 2020

   => Loading Basis Set <=

    Name: CC-PVDZ
    Role: ORBITAL
    Keyword: BASIS
    atoms 1-3, 13-14  entry C          line   138 file /theoryfs2/ds/metcalf/miniconda2/envs/tf2gpu/share/psi4/basis/cc-pvdz.gbs
    atoms 4           entry O          line   198 file /theoryfs2/ds/metcalf/miniconda2/envs/tf2gpu/share/psi4/basis/cc-pvdz.gbs
    atoms 5           entry N          line   168 file /theoryfs2/ds/metcalf/miniconda2/envs/tf2gpu/share/psi4/basis/cc-pvdz.gbs
    atoms 6-12, 15-20 entry H          line    22 file /theoryfs2/ds/metcalf/miniconda2/envs/tf2gpu/share/psi4/basis/cc-pvdz.gbs

         ---------------------------------------------------------
                                   SCF
               by Justin Turney, Rob Parrish, Andy Simmonett
                          and Daniel G. A. Smith
                              RHF Reference
                        1 Threads,    500 MiB Core
         ---------------------------------------------------------

  ==> Geometry <==

    Molecular point group: c1
    Full point group: C1

    Geometry (in Angstrom), charge = 0, multiplicity = 1:

       Center              X                  Y                   Z               Mass
    ------------   -----------------  -----------------  -----------------  -----------------
         C            1.242980079116    -0.070888931574     0.176120070736    12.000000000000
         C            2.651980079116    -0.549888931574     0.513120070736    12.000000000000
         C            0.245980079116    -0.611888931574     1.169120070736    12.000000000000
         O            0.238980079116    -0.198888931574     2.338120070736    15.994914619570
         N           -0.555019920884    -1.596888931574     0.729120070736    14.003074004430
         H            1.211980079116     1.019111068426     0.207120070736     1.007825032230
         H            0.971980079116    -0.388888931574    -0.832879929264     1.007825032230
         H            2.944980079116    -0.150888931574     1.488120070736     1.007825032230
         H           -1.228019920884    -1.991888931574     1.368120070736     1.007825032230
         H           -0.502019920884    -1.920888931574    -0.225879929264     1.007825032230
         H            3.367570079116    -0.243425931574    -0.264063929264     1.007825032230
         H            2.660560079116    -1.649771931574     0.526699070736     1.007825032230
         C           -1.442019920884     1.164111068426    -1.844879929264    12.000000000000
         C           -2.237019920884     1.881111068426    -2.959879929264    12.000000000000
         H           -1.736019920884     1.530111068426    -0.862879929264     1.007825032230
         H           -1.639019920884     0.092111068426    -1.891879929264     1.007825032230
         H           -0.375019920884     1.333111068426    -1.992879929264     1.007825032230
         H           -1.945019920884     1.472111068426    -3.928879929264     1.007825032230
         H           -1.999359920884     2.954747068426    -2.931208929264     1.007825032230
         H           -3.313505920884     1.706911068426    -2.815542929264     1.007825032230

  Running in c1 symmetry.

  Rotational constants: A =      0.10691  B =      0.02934  C =      0.02603 [cm^-1]
  Rotational constants: A =   3205.14676  B =    879.60188  C =    780.46018 [MHz]
  Nuclear repulsion =  300.846016861865962

  Charge       = 0
  Multiplicity = 1
  Electrons    = 58
  Nalpha       = 29
  Nbeta        = 29

  ==> Algorithm <==

  SCF Algorithm Type is PK.
  DIIS enabled.
  MOM disabled.
  Fractional occupation disabled.
  Guess Type is SAD.
  Energy threshold   = 1.00e-06
  Density threshold  = 1.00e-10
  Integral threshold = 0.00e+00

  ==> Primary Basis <==

  Basis Set: CC-PVDZ
    Blend: CC-PVDZ
    Number of shells: 81
    Number of basis function: 163
    Number of Cartesian functions: 170
    Spherical Harmonics?: true
    Max angular momentum: 2

  ==> Pre-Iterations <==

   -------------------------------------------------------
    Irrep   Nso     Nmo     Nalpha   Nbeta   Ndocc  Nsocc
   -------------------------------------------------------
     A        163     163       0       0       0       0
   -------------------------------------------------------
    Total     163     163      29      29      29       0
   -------------------------------------------------------

  ==> Integral Setup <==

  Using integral reordering PK algorithm.
  Sizing the integral batches needed.
  Building batch lookup table.
   Calculation information:
      Number of atoms:                  20
      Number of AO shells:              81
      Number of primitives:            219
      Number of atomic orbitals:       170
      Number of basis functions:       163

      Integral cutoff                 1.00e-12
      Number of threads:                 1

	Batch   1 pq = [       0,    9405] index = [             0,44231715] size =     44231715
	Batch   2 pq = [    9405,   13366] index = [      44231715,89331661] size =     45099946
  Task number: 9
  Buffer size: 11059200
  Buffer per thread: 2
  We computed 4719597 shell quartets total.
  Whereas there are 5516181 unique shell quartets.

  ==> DiskJK: Disk-Based J/K Matrices <==

    J tasked:                  Yes
    K tasked:                  Yes
    wK tasked:                  No
    Memory [MiB]:              375
    Schwarz Cutoff:          1E-12

    OpenMP threads:              1

  Minimum eigenvalue in the overlap matrix is 3.9760946176E-03.
  Using Symmetric Orthogonalization.

  SCF Guess: Superposition of Atomic Densities via on-the-fly atomic UHF.

  ==> Iterations <==

                        Total Energy        Delta E     RMS |[F,P]|

   @RHF iter SAD:  -324.87359881559905   -3.24874e+02   0.00000e+00
   @RHF iter   1:  -326.00925474590713   -1.13566e+00   4.09809e-03 DIIS
   @RHF iter   2:  -326.20346817242523   -1.94213e-01   2.28134e-03 DIIS
   @RHF iter   3:  -326.25791299339807   -5.44448e-02   4.96409e-04 DIIS
   @RHF iter   4:  -326.26176584266670   -3.85285e-03   2.03660e-04 DIIS
   @RHF iter   5:  -326.26244728828937   -6.81446e-04   2.94401e-05 DIIS
   @RHF iter   6:  -326.26247939500888   -3.21067e-05   1.21179e-05 DIIS
   @RHF iter   7:  -326.26248382340054   -4.42839e-06   5.16286e-06 DIIS
   @RHF iter   8:  -326.26248482757865   -1.00418e-06   2.03085e-06 DIIS
   @RHF iter   9:  -326.26248499047148   -1.62893e-07   4.73324e-07 DIIS
   @RHF iter  10:  -326.26248499803887   -7.56739e-09   1.48747e-07 DIIS
   @RHF iter  11:  -326.26248499867637   -6.37499e-10   4.16166e-08 DIIS
   @RHF iter  12:  -326.26248499873338   -5.70139e-11   1.16898e-08 DIIS
   @RHF iter  13:  -326.26248499873930   -5.91172e-12   3.19216e-09 DIIS
   @RHF iter  14:  -326.26248499873935   -5.68434e-14   1.43552e-09 DIIS
   @RHF iter  15:  -326.26248499873822    1.13687e-12   7.28811e-10 DIIS
   @RHF iter  16:  -326.26248499873941   -1.19371e-12   2.24371e-10 DIIS
   @RHF iter  17:  -326.26248499873770    1.70530e-12   7.05936e-11 DIIS
  Energy and wave function converged.

  ==> Post-Iterations <==

    Orbital Energies [Eh]
    ---------------------

    Doubly Occupied:

       1A    -20.503635     2A    -15.590110     3A    -11.345853
       4A    -11.238100     5A    -11.231948     6A    -11.226629
       7A    -11.225417     8A     -1.358039     9A     -1.211920
      10A     -1.051346    11A     -1.021176    12A     -0.888229
      13A     -0.844260    14A     -0.785799    15A     -0.722314
      16A     -0.665127    17A     -0.614341    18A     -0.604642
      19A     -0.602653    20A     -0.588637    21A     -0.566163
      22A     -0.521890    23A     -0.506765    24A     -0.499870
      25A     -0.498904    26A     -0.492514    27A     -0.490364
      28A     -0.405626    29A     -0.401381

    Virtual:

      30A      0.154855    31A      0.186205    32A      0.186793
      33A      0.217948    34A      0.220194    35A      0.224377
      36A      0.246838    37A      0.260249    38A      0.262874
      39A      0.271922    40A      0.279992    41A      0.286765
      42A      0.294435    43A      0.313287    44A      0.359252
      45A      0.396014    46A      0.422910    47A      0.463047
      48A      0.547875    49A      0.588685    50A      0.591314
      51A      0.595382    52A      0.612920    53A      0.633693
      54A      0.657262    55A      0.681836    56A      0.690381
      57A      0.713513    58A      0.738441    59A      0.753834
      60A      0.798272    61A      0.836111    62A      0.847362
      63A      0.868031    64A      0.885656    65A      0.886832
      66A      0.888315    67A      0.888730    68A      0.899904
      69A      0.904914    70A      0.911294    71A      0.912668
      72A      0.925380    73A      0.944988    74A      0.952379
      75A      0.965646    76A      0.993065    77A      1.039018
      78A      1.049813    79A      1.055590    80A      1.112909
      81A      1.120548    82A      1.128162    83A      1.135795
      84A      1.222535    85A      1.322858    86A      1.335264
      87A      1.387680    88A      1.394451    89A      1.397094
      90A      1.443036    91A      1.455106    92A      1.465013
      93A      1.470507    94A      1.479822    95A      1.502004
      96A      1.580504    97A      1.655289    98A      1.668092
      99A      1.670622   100A      1.684355   101A      1.753647
     102A      1.779882   103A      1.841652   104A      1.852518
     105A      1.867779   106A      1.872524   107A      1.886597
     108A      1.893986   109A      1.903987   110A      1.909562
     111A      1.919224   112A      1.937081   113A      1.940483
     114A      1.943957   115A      1.947155   116A      1.951107
     117A      1.957579   118A      1.985085   119A      2.012266
     120A      2.023363   121A      2.056465   122A      2.085314
     123A      2.094648   124A      2.101032   125A      2.110176
     126A      2.121445   127A      2.215098   128A      2.286525
     129A      2.289039   130A      2.312955   131A      2.369216
     132A      2.409084   133A      2.441967   134A      2.452625
     135A      2.469738   136A      2.505832   137A      2.513457
     138A      2.552101   139A      2.557347   140A      2.564212
     141A      2.572712   142A      2.586877   143A      2.629194
     144A      2.748867   145A      2.760889   146A      2.762034
     147A      2.783823   148A      2.819026   149A      2.833250
     150A      2.837832   151A      2.869203   152A      2.890021
     153A      2.939110   154A      2.945075   155A      2.967838
     156A      2.995573   157A      3.097772   158A      3.129073
     159A      3.293131   160A      3.488645   161A      3.541480
     162A      3.843134   163A      3.890826

    Final Occupation by Irrep:
              A
    DOCC [    29 ]

  @RHF Final Energy:  -326.26248499873770

   => Energetics <=

    Nuclear Repulsion Energy =            300.8460168618659623
    One-Electron Energy =               -1038.8096966162549961
    Two-Electron Energy =                 411.7011947556512723
    Total Energy =                       -326.2624849987377047

Computation Completed

Properties will be evaluated at   0.000000,   0.000000,   0.000000 [a0]

Properties computed using the SCF density matrix

  Nuclear Dipole Moment: [e a0]
     X:    -1.4793      Y:     3.5309      Z:   -11.3868

  Electronic Dipole Moment: [e a0]
     X:     1.3091      Y:    -4.2474      Z:     9.9131

  Dipole Moment: [e a0]
     X:    -0.1702      Y:    -0.7166      Z:    -1.4737     Total:     1.6475

  Dipole Moment: [D]
     X:    -0.4325      Y:    -1.8213      Z:    -3.7457     Total:     4.1875

*** tstop() called on ds3 at Tue Apr 28 15:26:25 2020
Module time:
	user time   =      28.33 seconds =       0.47 minutes
	system time =      13.50 seconds =       0.23 minutes
	total time  =         41 seconds =       0.68 minutes
Total time:
	user time   =      28.33 seconds =       0.47 minutes
	system time =      13.50 seconds =       0.23 minutes
	total time  =         41 seconds =       0.68 minutes
                                     G D M A

                                 by Anthony Stone

                           version 2.2.06, 22 June 2011

               Distributed Multipoles from Gaussian wavefunctions

Starting at 15:26:25 on 28 Apr 2020

Using SCF density matrix from file ./SSI/SSI-018ASN-227ALA-1-dimer.test.16706.fchk

                         Distributed Multipole Analysis

Standard DMA

Positions and radii in angstrom
Multipole moments in atomic units, ea_0^k for rank k

C          x =  1.242980  y = -0.070889  z =  0.176120 angstrom
           Maximum rank =  0   Radius =  0.650 angstrom
                   Q00  =  -0.130185

C          x =  2.651980  y = -0.549889  z =  0.513120 angstrom
           Maximum rank =  0   Radius =  0.650 angstrom
                   Q00  =  -0.198247

C          x =  0.245980  y = -0.611889  z =  1.169120 angstrom
           Maximum rank =  0   Radius =  0.650 angstrom
                   Q00  =   0.822798

O          x =  0.238980  y = -0.198889  z =  2.338120 angstrom
           Maximum rank =  0   Radius =  0.650 angstrom
                   Q00  =  -0.800377

N          x = -0.555020  y = -1.596889  z =  0.729120 angstrom
           Maximum rank =  0   Radius =  0.650 angstrom
                   Q00  =  -0.535154

H          x =  1.211980  y =  1.019111  z =  0.207120 angstrom
           Maximum rank =  0   Radius =  0.325 angstrom
                   Q00  =   0.104773

H          x =  0.971980  y = -0.388889  z = -0.832880 angstrom
           Maximum rank =  0   Radius =  0.325 angstrom
                   Q00  =   0.038488

H          x =  2.944980  y = -0.150889  z =  1.488120 angstrom
           Maximum rank =  0   Radius =  0.325 angstrom
                   Q00  =   0.109090

H          x = -1.228020  y = -1.991889  z =  1.368120 angstrom
           Maximum rank =  0   Radius =  0.325 angstrom
                   Q00  =   0.217231

H          x = -0.502020  y = -1.920889  z = -0.225880 angstrom
           Maximum rank =  0   Radius =  0.325 angstrom
                   Q00  =   0.210423

H          x =  3.367570  y = -0.243426  z = -0.264064 angstrom
           Maximum rank =  0   Radius =  0.325 angstrom
                   Q00  =   0.085599

H          x =  2.660560  y = -1.649772  z =  0.526699 angstrom
           Maximum rank =  0   Radius =  0.325 angstrom
                   Q00  =   0.074567

C          x = -1.442020  y =  1.164111  z = -1.844880 angstrom
           Maximum rank =  0   Radius =  0.650 angstrom
                   Q00  =  -0.243593

C          x = -2.237020  y =  1.881111  z = -2.959880 angstrom
           Maximum rank =  0   Radius =  0.650 angstrom
                   Q00  =  -0.237581

H          x = -1.736020  y =  1.530111  z = -0.862880 angstrom
           Maximum rank =  0   Radius =  0.325 angstrom
                   Q00  =   0.091808

H          x = -1.639020  y =  0.092111  z = -1.891880 angstrom
           Maximum rank =  0   Radius =  0.325 angstrom
                   Q00  =   0.065842

H          x = -0.375020  y =  1.333111  z = -1.992880 angstrom
           Maximum rank =  0   Radius =  0.325 angstrom
                   Q00  =   0.077781

H          x = -1.945020  y =  1.472111  z = -3.928880 angstrom
           Maximum rank =  0   Radius =  0.325 angstrom
                   Q00  =   0.079872

H          x = -1.999360  y =  2.954747  z = -2.931209 angstrom
           Maximum rank =  0   Radius =  0.325 angstrom
                   Q00  =   0.084164

H          x = -3.313506  y =  1.706911  z = -2.815543 angstrom
           Maximum rank =  0   Radius =  0.325 angstrom
                   Q00  =   0.082702

Total multipoles referred to origin at
           x =   0.000000,  y =    0.000000,  z =    0.000000 angstrom
                   Q00  =  -0.000000

Finished at 15:26:25 on 28 Apr 2020

  DMA results are available in the Python driver through the
	  variable('DMA DISTRIBUTED MULTIPOLES')
  and
	  variable('DMA TOTAL MULTIPOLES')
  commands.

    Psi4 stopped on: Tuesday, 28 April 2020 03:26PM
    Psi4 wall time for execution: 0:00:41.38

*** Psi4 exiting successfully. Buy a developer a beer!
