                               Psi4 1.3.2 release

  ==> Input File <==

--------------------------------------------------------------------------
import numpy as np
set {scf_type pk
basis cc-pvdz
d_convergence 10
gdma_switch   0
gdma_limit    0
gdma_origin   [ 0.0,  0.0,  0.0 ]
}
molecule test {
    units Angstrom
    0 1
    --
    0 1
    C                2.172091341661251     1.343657970513200    -0.214911298796384
    C                2.150091341661250     2.824657970513200     0.163088701203616
    S                1.580091341661251     0.983657970513200    -1.872911298796384
    H                3.187091341661251     0.956657970513200    -0.111911298796384
    H                1.542091341661251     0.801657970513200     0.492088701203616
    H                1.124091341661251     3.192657970513200     0.086088701203616
    H                1.209091341661251    -0.285342029486800    -1.648911298796384
    H                2.817941341661250     3.407697970513200    -0.488101298796384
    H                2.504201341661251     2.920967970513200     1.200068701203616
    C               -2.804908658338749    -0.694342029486800    -1.811911298796384
    C               -1.002908658338749     0.201657970513200     1.447088701203616
    C               -1.830908658338749     0.278657970513200     0.327088701203616
    C               -0.244908658338749    -0.945342029486800     1.670088701203617
    C               -1.921908658338749    -0.787342029486800    -0.575911298796384
    C               -0.314908658338749    -2.007342029486800     0.776088701203616
    C               -1.142908658338750    -1.920342029486800    -0.346911298796384
    O                0.570091341661251    -1.024342029486800     2.758088701203616
    H               -0.952908658338749     1.031657970513200     2.138088701203616
    H               -2.403908658338749     1.179657970513200     0.160088701203616
    H                0.527091341661251    -0.203342029486800     3.281088701203617
    H                0.278091341661251    -2.893342029486800     0.949088701203616
    H               -2.799908658338750    -1.648342029486800    -2.341911298796384
    H               -2.340908658338750     0.042657970513200    -2.468911298796383
    H               -1.185908658338749    -2.749342029486800    -1.039911298796384
    H               -3.846702658338750    -0.388270029486800    -1.635881298796384

}
e, wfn = energy('scf', return_wfn=True)
gdma(wfn)
dmavals = variable('DMA DISTRIBUTED MULTIPOLES')
charges = np.array(dmavals)
print(charges)
np.save('SSI-033CYS-047TYR-1-dimer.npy', np.array(charges))--------------------------------------------------------------------------

*** tstart() called on ds3
*** at Tue Apr 28 01:51:02 2020

   => Loading Basis Set <=

    Name: CC-PVDZ
    Role: ORBITAL
    Keyword: BASIS
    atoms 1-2, 10-16 entry C          line   138 file /theoryfs2/ds/metcalf/miniconda2/envs/tf2gpu/share/psi4/basis/cc-pvdz.gbs
    atoms 3          entry S          line   598 file /theoryfs2/ds/metcalf/miniconda2/envs/tf2gpu/share/psi4/basis/cc-pvdz.gbs
    atoms 4-9, 18-25 entry H          line    22 file /theoryfs2/ds/metcalf/miniconda2/envs/tf2gpu/share/psi4/basis/cc-pvdz.gbs
    atoms 17         entry O          line   198 file /theoryfs2/ds/metcalf/miniconda2/envs/tf2gpu/share/psi4/basis/cc-pvdz.gbs

         ---------------------------------------------------------
                                   SCF
               by Justin Turney, Rob Parrish, Andy Simmonett
                          and Daniel G. A. Smith
                              RHF Reference
                        1 Threads,    500 MiB Core
         ---------------------------------------------------------

  ==> Geometry <==

    Molecular point group: c1
    Full point group: C1

    Geometry (in Angstrom), charge = 0, multiplicity = 1:

       Center              X                  Y                   Z               Mass
    ------------   -----------------  -----------------  -----------------  -----------------
         C            2.172091341661     1.343657970513    -0.214911298796    12.000000000000
         C            2.150091341661     2.824657970513     0.163088701204    12.000000000000
         S            1.580091341661     0.983657970513    -1.872911298796    31.972071174400
         H            3.187091341661     0.956657970513    -0.111911298796     1.007825032230
         H            1.542091341661     0.801657970513     0.492088701204     1.007825032230
         H            1.124091341661     3.192657970513     0.086088701204     1.007825032230
         H            1.209091341661    -0.285342029487    -1.648911298796     1.007825032230
         H            2.817941341661     3.407697970513    -0.488101298796     1.007825032230
         H            2.504201341661     2.920967970513     1.200068701204     1.007825032230
         C           -2.804908658339    -0.694342029487    -1.811911298796    12.000000000000
         C           -1.002908658339     0.201657970513     1.447088701204    12.000000000000
         C           -1.830908658339     0.278657970513     0.327088701204    12.000000000000
         C           -0.244908658339    -0.945342029487     1.670088701204    12.000000000000
         C           -1.921908658339    -0.787342029487    -0.575911298796    12.000000000000
         C           -0.314908658339    -2.007342029487     0.776088701204    12.000000000000
         C           -1.142908658339    -1.920342029487    -0.346911298796    12.000000000000
         O            0.570091341661    -1.024342029487     2.758088701204    15.994914619570
         H           -0.952908658339     1.031657970513     2.138088701204     1.007825032230
         H           -2.403908658339     1.179657970513     0.160088701204     1.007825032230
         H            0.527091341661    -0.203342029487     3.281088701204     1.007825032230
         H            0.278091341661    -2.893342029487     0.949088701204     1.007825032230
         H           -2.799908658339    -1.648342029487    -2.341911298796     1.007825032230
         H           -2.340908658339     0.042657970513    -2.468911298796     1.007825032230
         H           -1.185908658339    -2.749342029487    -1.039911298796     1.007825032230
         H           -3.846702658339    -0.388270029487    -1.635881298796     1.007825032230

  Running in c1 symmetry.

  Rotational constants: A =      0.03258  B =      0.02105  C =      0.01581 [cm^-1]
  Rotational constants: A =    976.63090  B =    631.13250  C =    473.96437 [MHz]
  Nuclear repulsion =  676.584168908786978

  Charge       = 0
  Multiplicity = 1
  Electrons    = 92
  Nalpha       = 46
  Nbeta        = 46

  ==> Algorithm <==

  SCF Algorithm Type is PK.
  DIIS enabled.
  MOM disabled.
  Fractional occupation disabled.
  Guess Type is SAD.
  Energy threshold   = 1.00e-06
  Density threshold  = 1.00e-10
  Integral threshold = 0.00e+00

  ==> Primary Basis <==

  Basis Set: CC-PVDZ
    Blend: CC-PVDZ
    Number of shells: 110
    Number of basis function: 228
    Number of Cartesian functions: 239
    Spherical Harmonics?: true
    Max angular momentum: 2

  ==> Pre-Iterations <==

   -------------------------------------------------------
    Irrep   Nso     Nmo     Nalpha   Nbeta   Ndocc  Nsocc
   -------------------------------------------------------
     A        228     228       0       0       0       0
   -------------------------------------------------------
    Total     228     228      46      46      46       0
   -------------------------------------------------------

  ==> Integral Setup <==

  Using integral reordering PK algorithm.
  Sizing the integral batches needed.
  Building batch lookup table.
   Calculation information:
      Number of atoms:                  25
      Number of AO shells:             110
      Number of primitives:            340
      Number of atomic orbitals:       239
      Number of basis functions:       228

      Integral cutoff                 1.00e-12
      Number of threads:                 1

	Batch   1 pq = [       0,    9405] index = [             0,44231715] size =     44231715
	Batch   2 pq = [    9405,   13301] index = [      44231715,88464951] size =     44233236
	Batch   3 pq = [   13301,   16290] index = [      88464951,132690195] size =     44225244
	Batch   4 pq = [   16290,   18810] index = [     132690195,176917455] size =     44227260
	Batch   5 pq = [   18810,   21030] index = [     176917455,221140965] size =     44223510
	Batch   6 pq = [   21030,   23037] index = [     221140965,265363203] size =     44222238
	Batch   7 pq = [   23037,   24883] index = [     265363203,309594286] size =     44231083
	Batch   8 pq = [   24883,   26106] index = [     309594286,340774671] size =     31180385
  Task number: 31
  Buffer size: 11059200
  Buffer per thread: 2
  We computed 19263962 shell quartets total.
  Whereas there are 18638565 unique shell quartets.
     3.36 percent of shell quartets recomputed by reordering.

  ==> DiskJK: Disk-Based J/K Matrices <==

    J tasked:                  Yes
    K tasked:                  Yes
    wK tasked:                  No
    Memory [MiB]:              375
    Schwarz Cutoff:          1E-12

    OpenMP threads:              1

  Minimum eigenvalue in the overlap matrix is 3.2475524334E-04.
  Using Symmetric Orthogonalization.

  SCF Guess: Superposition of Atomic Densities via on-the-fly atomic UHF.

  ==> Iterations <==

                        Total Energy        Delta E     RMS |[F,P]|

   @RHF iter SAD:  -820.28912017557343   -8.20289e+02   0.00000e+00
   @RHF iter   1:  -821.13304166934813   -8.43921e-01   2.67604e-03 DIIS
   @RHF iter   2:  -821.34786986469146   -2.14828e-01   1.11211e-03 DIIS
   @RHF iter   3:  -821.38029374153655   -3.24239e-02   2.73846e-04 DIIS
   @RHF iter   4:  -821.38340011048081   -3.10637e-03   1.07023e-04 DIIS
   @RHF iter   5:  -821.38375551614786   -3.55406e-04   2.14389e-05 DIIS
   @RHF iter   6:  -821.38377661422930   -2.10981e-05   7.29888e-06 DIIS
   @RHF iter   7:  -821.38377906090784   -2.44668e-06   2.17377e-06 DIIS
   @RHF iter   8:  -821.38377937579685   -3.14889e-07   7.70255e-07 DIIS
   @RHF iter   9:  -821.38377942470731   -4.89105e-08   3.19203e-07 DIIS
   @RHF iter  10:  -821.38377943358421   -8.87690e-09   1.45274e-07 DIIS
   @RHF iter  11:  -821.38377943671924   -3.13503e-09   6.34763e-08 DIIS
   @RHF iter  12:  -821.38377943734940   -6.30166e-10   2.60249e-08 DIIS
   @RHF iter  13:  -821.38377943742535   -7.59428e-11   7.91612e-09 DIIS
   @RHF iter  14:  -821.38377943742876   -3.41061e-12   2.65772e-09 DIIS
   @RHF iter  15:  -821.38377943743205   -3.29692e-12   9.66032e-10 DIIS
   @RHF iter  16:  -821.38377943743285   -7.95808e-13   3.72396e-10 DIIS
   @RHF iter  17:  -821.38377943743535   -2.50111e-12   1.80502e-10 DIIS
   @RHF iter  18:  -821.38377943743001    5.34328e-12   8.90765e-11 DIIS
  Energy and wave function converged.

  ==> Post-Iterations <==

    Orbital Energies [Eh]
    ---------------------

    Doubly Occupied:

       1A    -91.933279     2A    -20.590731     3A    -11.304051
       4A    -11.252217     5A    -11.244218     6A    -11.243394
       7A    -11.239493     8A    -11.239267     9A    -11.235315
      10A    -11.232444    11A    -11.230556    12A     -8.937057
      13A     -6.619214    14A     -6.617793    15A     -6.615448
      16A     -1.404851    17A     -1.153631    18A     -1.064401
      19A     -1.038530    20A     -1.021648    21A     -0.939307
      22A     -0.928483    23A     -0.848788    24A     -0.805695
      25A     -0.803799    26A     -0.734952    27A     -0.671735
      28A     -0.645207    29A     -0.626543    30A     -0.611296
      31A     -0.605962    32A     -0.590688    33A     -0.589954
      34A     -0.571918    35A     -0.568648    36A     -0.531041
      37A     -0.530107    38A     -0.510965    39A     -0.500208
      40A     -0.494812    41A     -0.489498    42A     -0.469624
      43A     -0.434141    44A     -0.343471    45A     -0.341124
      46A     -0.305073

    Virtual:

      47A      0.123605    48A      0.147859    49A      0.157701
      50A      0.177660    51A      0.189293    52A      0.202706
      53A      0.212732    54A      0.224883    55A      0.234144
      56A      0.246561    57A      0.257381    58A      0.261578
      59A      0.269039    60A      0.272640    61A      0.280625
      62A      0.293859    63A      0.308821    64A      0.366097
      65A      0.368669    66A      0.369586    67A      0.429887
      68A      0.449869    69A      0.483602    70A      0.488173
      71A      0.504130    72A      0.520613    73A      0.582735
      74A      0.585016    75A      0.613465    76A      0.619522
      77A      0.625052    78A      0.640030    79A      0.647338
      80A      0.652873    81A      0.668980    82A      0.687466
      83A      0.695489    84A      0.702958    85A      0.709686
      86A      0.729972    87A      0.734701    88A      0.751453
      89A      0.761758    90A      0.769234    91A      0.780773
      92A      0.791981    93A      0.801089    94A      0.811079
      95A      0.829465    96A      0.833564    97A      0.859121
      98A      0.862603    99A      0.869030   100A      0.874704
     101A      0.883202   102A      0.887534   103A      0.889137
     104A      0.895752   105A      0.897458   106A      0.913509
     107A      0.919233   108A      0.931268   109A      0.935326
     110A      0.938231   111A      0.951754   112A      0.956878
     113A      0.973644   114A      0.992235   115A      0.998190
     116A      1.016145   117A      1.053963   118A      1.073355
     119A      1.123417   120A      1.134996   121A      1.141886
     122A      1.172725   123A      1.202750   124A      1.215137
     125A      1.230637   126A      1.247303   127A      1.261739
     128A      1.262972   129A      1.271761   130A      1.289046
     131A      1.301519   132A      1.309292   133A      1.316309
     134A      1.349962   135A      1.357886   136A      1.375013
     137A      1.396609   138A      1.412939   139A      1.472674
     140A      1.483927   141A      1.499201   142A      1.510659
     143A      1.555496   144A      1.608525   145A      1.613976
     146A      1.621779   147A      1.637232   148A      1.670407
     149A      1.671493   150A      1.692810   151A      1.702045
     152A      1.738278   153A      1.744478   154A      1.753404
     155A      1.785401   156A      1.791495   157A      1.813380
     158A      1.849839   159A      1.867099   160A      1.874492
     161A      1.876723   162A      1.892435   163A      1.901468
     164A      1.908633   165A      1.913146   166A      1.921128
     167A      1.938338   168A      1.946504   169A      1.954109
     170A      1.961722   171A      1.976859   172A      1.979585
     173A      1.995782   174A      2.007906   175A      2.027695
     176A      2.039041   177A      2.046053   178A      2.060403
     179A      2.066178   180A      2.079766   181A      2.115514
     182A      2.122822   183A      2.142728   184A      2.176956
     185A      2.197171   186A      2.209519   187A      2.230557
     188A      2.250696   189A      2.265464   190A      2.283346
     191A      2.303187   192A      2.308146   193A      2.361213
     194A      2.371561   195A      2.384040   196A      2.424276
     197A      2.432687   198A      2.459445   199A      2.474048
     200A      2.480794   201A      2.527371   202A      2.537412
     203A      2.567731   204A      2.578926   205A      2.607933
     206A      2.636408   207A      2.729897   208A      2.756195
     209A      2.763358   210A      2.782184   211A      2.800104
     212A      2.812757   213A      2.818912   214A      2.842521
     215A      2.882691   216A      2.897104   217A      2.966613
     218A      2.982244   219A      3.004053   220A      3.080161
     221A      3.122564   222A      3.246848   223A      3.272802
     224A      3.333708   225A      3.582346   226A      3.670477
     227A      3.951952   228A      4.174115

    Final Occupation by Irrep:
              A
    DOCC [    46 ]

  @RHF Final Energy:  -821.38377943743001

   => Energetics <=

    Nuclear Repulsion Energy =            676.5841689087869781
    One-Electron Energy =               -2468.5147410005452002
    Two-Electron Energy =                 970.5467926543282147
    Total Energy =                       -821.3837794374300074

Computation Completed

Properties will be evaluated at   0.000000,   0.000000,   0.000000 [a0]

Properties computed using the SCF density matrix

  Nuclear Dipole Moment: [e a0]
     X:    -0.2748      Y:     5.0512      Z:    -1.3758

  Electronic Dipole Moment: [e a0]
     X:    -0.0088      Y:    -4.7520      Z:     1.9834

  Dipole Moment: [e a0]
     X:    -0.2836      Y:     0.2991      Z:     0.6076     Total:     0.7342

  Dipole Moment: [D]
     X:    -0.7209      Y:     0.7603      Z:     1.5444     Total:     1.8662

*** tstop() called on ds3 at Tue Apr 28 01:54:22 2020
Module time:
	user time   =     154.92 seconds =       2.58 minutes
	system time =      50.73 seconds =       0.85 minutes
	total time  =        200 seconds =       3.33 minutes
Total time:
	user time   =     154.92 seconds =       2.58 minutes
	system time =      50.73 seconds =       0.85 minutes
	total time  =        200 seconds =       3.33 minutes
                                     G D M A

                                 by Anthony Stone

                           version 2.2.06, 22 June 2011

               Distributed Multipoles from Gaussian wavefunctions

Starting at 1:54:22 on 28 Apr 2020

Using SCF density matrix from file ./SSI/SSI-033CYS-047TYR-1-dimer.test.9356.fchk

                         Distributed Multipole Analysis

Standard DMA

Positions and radii in angstrom
Multipole moments in atomic units, ea_0^k for rank k

C          x =  2.172091  y =  1.343658  z = -0.214911 angstrom
           Maximum rank =  0   Radius =  0.650 angstrom
                   Q00  =  -0.194659

C          x =  2.150091  y =  2.824658  z =  0.163089 angstrom
           Maximum rank =  0   Radius =  0.650 angstrom
                   Q00  =  -0.213247

S          x =  1.580091  y =  0.983658  z = -1.872911 angstrom
           Maximum rank =  0   Radius =  0.650 angstrom
                   Q00  =  -0.119102

H          x =  3.187091  y =  0.956658  z = -0.111911 angstrom
           Maximum rank =  0   Radius =  0.325 angstrom
                   Q00  =   0.060448

H          x =  1.542091  y =  0.801658  z =  0.492089 angstrom
           Maximum rank =  0   Radius =  0.325 angstrom
                   Q00  =   0.073272

H          x =  1.124091  y =  3.192658  z =  0.086089 angstrom
           Maximum rank =  0   Radius =  0.325 angstrom
                   Q00  =   0.086235

H          x =  1.209091  y = -0.285342  z = -1.648911 angstrom
           Maximum rank =  0   Radius =  0.325 angstrom
                   Q00  =   0.121140

H          x =  2.817941  y =  3.407698  z = -0.488101 angstrom
           Maximum rank =  0   Radius =  0.325 angstrom
                   Q00  =   0.088007

H          x =  2.504201  y =  2.920968  z =  1.200069 angstrom
           Maximum rank =  0   Radius =  0.325 angstrom
                   Q00  =   0.086855

C          x = -2.804909  y = -0.694342  z = -1.811911 angstrom
           Maximum rank =  0   Radius =  0.650 angstrom
                   Q00  =  -0.203826

C          x = -1.002909  y =  0.201658  z =  1.447089 angstrom
           Maximum rank =  0   Radius =  0.650 angstrom
                   Q00  =  -0.180555

C          x = -1.830909  y =  0.278658  z =  0.327089 angstrom
           Maximum rank =  0   Radius =  0.650 angstrom
                   Q00  =  -0.015764

C          x = -0.244909  y = -0.945342  z =  1.670089 angstrom
           Maximum rank =  0   Radius =  0.650 angstrom
                   Q00  =   0.302767

C          x = -1.921909  y = -0.787342  z = -0.575911 angstrom
           Maximum rank =  0   Radius =  0.650 angstrom
                   Q00  =  -0.130229

C          x = -0.314909  y = -2.007342  z =  0.776089 angstrom
           Maximum rank =  0   Radius =  0.650 angstrom
                   Q00  =  -0.119733

C          x = -1.142909  y = -1.920342  z = -0.346911 angstrom
           Maximum rank =  0   Radius =  0.650 angstrom
                   Q00  =   0.033318

O          x =  0.570091  y = -1.024342  z =  2.758089 angstrom
           Maximum rank =  0   Radius =  0.650 angstrom
                   Q00  =  -0.676100

H          x = -0.952909  y =  1.031658  z =  2.138089 angstrom
           Maximum rank =  0   Radius =  0.325 angstrom
                   Q00  =   0.071277

H          x = -2.403909  y =  1.179658  z =  0.160089 angstrom
           Maximum rank =  0   Radius =  0.325 angstrom
                   Q00  =   0.072566

H          x =  0.527091  y = -0.203342  z =  3.281089 angstrom
           Maximum rank =  0   Radius =  0.325 angstrom
                   Q00  =   0.409240

H          x =  0.278091  y = -2.893342  z =  0.949089 angstrom
           Maximum rank =  0   Radius =  0.325 angstrom
                   Q00  =   0.081552

H          x = -2.799909  y = -1.648342  z = -2.341911 angstrom
           Maximum rank =  0   Radius =  0.325 angstrom
                   Q00  =   0.096962

H          x = -2.340909  y =  0.042658  z = -2.468911 angstrom
           Maximum rank =  0   Radius =  0.325 angstrom
                   Q00  =   0.101776

H          x = -1.185909  y = -2.749342  z = -1.039911 angstrom
           Maximum rank =  0   Radius =  0.325 angstrom
                   Q00  =   0.066468

H          x = -3.846703  y = -0.388270  z = -1.635881 angstrom
           Maximum rank =  0   Radius =  0.325 angstrom
                   Q00  =   0.101331

Total multipoles referred to origin at
           x =   0.000000,  y =    0.000000,  z =    0.000000 angstrom
                   Q00  =  -0.000000

Finished at 1:54:22 on 28 Apr 2020

  DMA results are available in the Python driver through the
	  variable('DMA DISTRIBUTED MULTIPOLES')
  and
	  variable('DMA TOTAL MULTIPOLES')
  commands.

    Psi4 stopped on: Tuesday, 28 April 2020 01:54AM
    Psi4 wall time for execution: 0:03:20.24

*** Psi4 exiting successfully. Buy a developer a beer!
