                               Psi4 1.3.2 release

  ==> Input File <==

--------------------------------------------------------------------------
import numpy as np
set {scf_type pk
basis cc-pvdz
d_convergence 10
gdma_switch   0
gdma_limit    0
gdma_origin   [ 0.0,  0.0,  0.0 ]
}
molecule test {
    units Angstrom
    1 1
    --
    1 1
    C                1.866250735469765    -0.395025761874913    -2.754289769748487
    O                0.536250735469766     0.077974238125087    -2.670289769748487
    H                0.176250735469765     0.113974238125087    -3.570289769748487
    H                2.442250735469766     0.206974238125087    -3.457289769748487
    H                1.845250735469766    -1.429025761874913    -3.104289769748486
    H                2.307270735469765    -0.352228761874913    -1.747479769748487
    C               -0.205749264530235    -0.879025761874913     2.906710230251513
    C               -0.569749264530234     0.296974238125087     0.758710230251514
    N               -0.882749264530234     0.218974238125087    -0.500289769748486
    N               -0.489749264530234    -0.813025761874913     1.475710230251513
    N               -0.391749264530234     1.464974238125087     1.293710230251514
    H               -0.999749264530234    -0.677025761874913    -0.944289769748486
    H               -0.775749264530235     1.013974238125087    -1.109289769748486
    H               -0.725749264530234    -1.678025761874913     1.009710230251514
    H               -0.192749264530234     1.532974238125087     2.275710230251514
    H               -0.583749264530234     2.295974238125087     0.757710230251514
    H               -0.758749264530235    -1.724025761874913     3.321710230251513
    H               -0.577749264530234     0.007974238125087     3.420710230251514
    H                0.858210735469766    -1.016034761874913     3.150040230251514

}
e, wfn = energy('scf', return_wfn=True)
gdma(wfn)
dmavals = variable('DMA DISTRIBUTED MULTIPOLES')
charges = np.array(dmavals)
print(charges)
np.save('SSI-007SER-010ARG-2-dimer.npy', np.array(charges))--------------------------------------------------------------------------

*** tstart() called on ds3
*** at Mon Apr 27 14:02:59 2020

   => Loading Basis Set <=

    Name: CC-PVDZ
    Role: ORBITAL
    Keyword: BASIS
    atoms 1, 7-8     entry C          line   138 file /theoryfs2/ds/metcalf/miniconda2/envs/tf2gpu/share/psi4/basis/cc-pvdz.gbs
    atoms 2          entry O          line   198 file /theoryfs2/ds/metcalf/miniconda2/envs/tf2gpu/share/psi4/basis/cc-pvdz.gbs
    atoms 3-6, 12-19 entry H          line    22 file /theoryfs2/ds/metcalf/miniconda2/envs/tf2gpu/share/psi4/basis/cc-pvdz.gbs
    atoms 9-11       entry N          line   168 file /theoryfs2/ds/metcalf/miniconda2/envs/tf2gpu/share/psi4/basis/cc-pvdz.gbs

         ---------------------------------------------------------
                                   SCF
               by Justin Turney, Rob Parrish, Andy Simmonett
                          and Daniel G. A. Smith
                              RHF Reference
                        1 Threads,    500 MiB Core
         ---------------------------------------------------------

  ==> Geometry <==

    Molecular point group: c1
    Full point group: C1

    Geometry (in Angstrom), charge = 1, multiplicity = 1:

       Center              X                  Y                   Z               Mass
    ------------   -----------------  -----------------  -----------------  -----------------
         C            1.866250735470    -0.395025761875    -2.754289769748    12.000000000000
         O            0.536250735470     0.077974238125    -2.670289769748    15.994914619570
         H            0.176250735470     0.113974238125    -3.570289769748     1.007825032230
         H            2.442250735470     0.206974238125    -3.457289769748     1.007825032230
         H            1.845250735470    -1.429025761875    -3.104289769748     1.007825032230
         H            2.307270735470    -0.352228761875    -1.747479769748     1.007825032230
         C           -0.205749264530    -0.879025761875     2.906710230252    12.000000000000
         C           -0.569749264530     0.296974238125     0.758710230252    12.000000000000
         N           -0.882749264530     0.218974238125    -0.500289769748    14.003074004430
         N           -0.489749264530    -0.813025761875     1.475710230252    14.003074004430
         N           -0.391749264530     1.464974238125     1.293710230252    14.003074004430
         H           -0.999749264530    -0.677025761875    -0.944289769748     1.007825032230
         H           -0.775749264530     1.013974238125    -1.109289769748     1.007825032230
         H           -0.725749264530    -1.678025761875     1.009710230252     1.007825032230
         H           -0.192749264530     1.532974238125     2.275710230252     1.007825032230
         H           -0.583749264530     2.295974238125     0.757710230252     1.007825032230
         H           -0.758749264530    -1.724025761875     3.321710230252     1.007825032230
         H           -0.577749264530     0.007974238125     3.420710230252     1.007825032230
         H            0.858210735470    -1.016034761875     3.150040230252     1.007825032230

  Running in c1 symmetry.

  Rotational constants: A =      0.14546  B =      0.03202  C =      0.02947 [cm^-1]
  Rotational constants: A =   4360.88616  B =    960.06894  C =    883.38636 [MHz]
  Nuclear repulsion =  326.775255107917758

  Charge       = 1
  Multiplicity = 1
  Electrons    = 58
  Nalpha       = 29
  Nbeta        = 29

  ==> Algorithm <==

  SCF Algorithm Type is PK.
  DIIS enabled.
  MOM disabled.
  Fractional occupation disabled.
  Guess Type is SAD.
  Energy threshold   = 1.00e-06
  Density threshold  = 1.00e-10
  Integral threshold = 0.00e+00

  ==> Primary Basis <==

  Basis Set: CC-PVDZ
    Blend: CC-PVDZ
    Number of shells: 78
    Number of basis function: 158
    Number of Cartesian functions: 165
    Spherical Harmonics?: true
    Max angular momentum: 2

  ==> Pre-Iterations <==

   -------------------------------------------------------
    Irrep   Nso     Nmo     Nalpha   Nbeta   Ndocc  Nsocc
   -------------------------------------------------------
     A        158     158       0       0       0       0
   -------------------------------------------------------
    Total     158     158      29      29      29       0
   -------------------------------------------------------

  ==> Integral Setup <==

  Using integral reordering PK algorithm.
  Sizing the integral batches needed.
  Building batch lookup table.
   Calculation information:
      Number of atoms:                  19
      Number of AO shells:              78
      Number of primitives:            214
      Number of atomic orbitals:       165
      Number of basis functions:       158

      Integral cutoff                 1.00e-12
      Number of threads:                 1

	Batch   1 pq = [       0,    9405] index = [             0,44231715] size =     44231715
	Batch   2 pq = [    9405,   12561] index = [      44231715,78895641] size =     34663926
  Task number: 8
  Buffer size: 11059200
  Buffer per thread: 2
  We computed 4158694 shell quartets total.
  Whereas there are 4747821 unique shell quartets.

  ==> DiskJK: Disk-Based J/K Matrices <==

    J tasked:                  Yes
    K tasked:                  Yes
    wK tasked:                  No
    Memory [MiB]:              375
    Schwarz Cutoff:          1E-12

    OpenMP threads:              1

  Minimum eigenvalue in the overlap matrix is 3.8168273104E-03.
  Using Symmetric Orthogonalization.

  SCF Guess: Superposition of Atomic Densities via on-the-fly atomic UHF.

  ==> Iterations <==

                        Total Energy        Delta E     RMS |[F,P]|

   @RHF iter SAD:  -358.00960167216260   -3.58010e+02   0.00000e+00
   @RHF iter   1:  -358.46200978336987   -4.52408e-01   3.62269e-03 DIIS
   @RHF iter   2:  -358.61421094603475   -1.52201e-01   1.53807e-03 DIIS
   @RHF iter   3:  -358.63837992283413   -2.41690e-02   3.74483e-04 DIIS
   @RHF iter   4:  -358.64067390615241   -2.29398e-03   9.46604e-05 DIIS
   @RHF iter   5:  -358.64079759237347   -1.23686e-04   2.38516e-05 DIIS
   @RHF iter   6:  -358.64080971996628   -1.21276e-05   6.29532e-06 DIIS
   @RHF iter   7:  -358.64081067203460   -9.52068e-07   1.70885e-06 DIIS
   @RHF iter   8:  -358.64081074878737   -7.67528e-08   5.38700e-07 DIIS
   @RHF iter   9:  -358.64081075484773   -6.06036e-09   8.61696e-08 DIIS
   @RHF iter  10:  -358.64081075505311   -2.05375e-10   3.60476e-08 DIIS
   @RHF iter  11:  -358.64081075507869   -2.55795e-11   9.16016e-09 DIIS
   @RHF iter  12:  -358.64081075508159   -2.89901e-12   3.47240e-09 DIIS
   @RHF iter  13:  -358.64081075508216   -5.68434e-13   1.14950e-09 DIIS
   @RHF iter  14:  -358.64081075508312   -9.66338e-13   3.00595e-10 DIIS
   @RHF iter  15:  -358.64081075508210    1.02318e-12   8.38681e-11 DIIS
  Energy and wave function converged.

  ==> Post-Iterations <==

    Orbital Energies [Eh]
    ---------------------

    Doubly Occupied:

       1A    -20.684033     2A    -15.774906     3A    -15.772039
       4A    -15.758578     5A    -11.567425     6A    -11.433159
       7A    -11.392918     8A     -1.539857     9A     -1.485521
      10A     -1.393280    11A     -1.378695    12A     -1.131180
      13A     -1.040907    14A     -1.026558    15A     -0.970071
      16A     -0.926518    17A     -0.849232    18A     -0.837997
      19A     -0.819061    20A     -0.809434    21A     -0.784838
      22A     -0.740445    23A     -0.735281    24A     -0.715703
      25A     -0.712978    26A     -0.628624    27A     -0.598020
      28A     -0.571420    29A     -0.567869

    Virtual:

      30A      0.004250    31A      0.036249    32A      0.046287
      33A      0.049078    34A      0.065547    35A      0.089971
      36A      0.101654    37A      0.116641    38A      0.128147
      39A      0.138847    40A      0.149703    41A      0.162605
      42A      0.164579    43A      0.210625    44A      0.242678
      45A      0.301309    46A      0.343946    47A      0.354046
      48A      0.445448    49A      0.461098    50A      0.504767
      51A      0.518293    52A      0.535367    53A      0.545454
      54A      0.550897    55A      0.558717    56A      0.578719
      57A      0.617119    58A      0.625821    59A      0.673380
      60A      0.689774    61A      0.703636    62A      0.713459
      63A      0.717323    64A      0.749666    65A      0.755410
      66A      0.762446    67A      0.777445    68A      0.781965
      69A      0.784274    70A      0.823597    71A      0.843861
      72A      0.869753    73A      0.910634    74A      0.928084
      75A      0.930350    76A      1.005970    77A      1.020443
      78A      1.029889    79A      1.061776    80A      1.078373
      81A      1.081562    82A      1.141243    83A      1.166009
      84A      1.191192    85A      1.203810    86A      1.229846
      87A      1.248055    88A      1.269517    89A      1.323063
      90A      1.403332    91A      1.441015    92A      1.474605
      93A      1.489552    94A      1.520151    95A      1.543341
      96A      1.548595    97A      1.553069    98A      1.562021
      99A      1.626408   100A      1.648451   101A      1.697758
     102A      1.720133   103A      1.733763   104A      1.745966
     105A      1.755398   106A      1.759589   107A      1.782484
     108A      1.794883   109A      1.803496   110A      1.806425
     111A      1.816902   112A      1.841829   113A      1.864396
     114A      1.875930   115A      1.910820   116A      1.928126
     117A      2.006275   118A      2.037676   119A      2.042336
     120A      2.061805   121A      2.147761   122A      2.164513
     123A      2.166126   124A      2.178665   125A      2.241208
     126A      2.245609   127A      2.263627   128A      2.284128
     129A      2.330647   130A      2.336492   131A      2.357997
     132A      2.382158   133A      2.384909   134A      2.432528
     135A      2.511922   136A      2.578393   137A      2.594210
     138A      2.610446   139A      2.635376   140A      2.651998
     141A      2.654589   142A      2.663347   143A      2.755501
     144A      2.764538   145A      2.822097   146A      2.851459
     147A      2.883780   148A      2.921532   149A      3.077798
     150A      3.105017   151A      3.148655   152A      3.170499
     153A      3.250861   154A      3.329747   155A      3.460227
     156A      3.608597   157A      3.709692   158A      3.961233

    Final Occupation by Irrep:
              A
    DOCC [    29 ]

  @RHF Final Energy:  -358.64081075508210

   => Energetics <=

    Nuclear Repulsion Energy =            326.7752551079177579
    One-Electron Energy =               -1125.5390389837339171
    Two-Electron Energy =                 440.1229731207341160
    Total Energy =                       -358.6408107550821001

Computation Completed

Properties will be evaluated at   0.000000,   0.000000,   0.000000 [a0]

Properties computed using the SCF density matrix

  Nuclear Dipole Moment: [e a0]
     X:     2.8342      Y:    -1.6001      Z:    -0.0169

  Electronic Dipole Moment: [e a0]
     X:    -3.3556      Y:     1.7875      Z:     0.7473

  Dipole Moment: [e a0]
     X:    -0.5214      Y:     0.1874      Z:     0.7303     Total:     0.9167

  Dipole Moment: [D]
     X:    -1.3253      Y:     0.4763      Z:     1.8563     Total:     2.3301

*** tstop() called on ds3 at Mon Apr 27 14:03:45 2020
Module time:
	user time   =      27.61 seconds =       0.46 minutes
	system time =      10.62 seconds =       0.18 minutes
	total time  =         46 seconds =       0.77 minutes
Total time:
	user time   =      27.61 seconds =       0.46 minutes
	system time =      10.62 seconds =       0.18 minutes
	total time  =         46 seconds =       0.77 minutes
                                     G D M A

                                 by Anthony Stone

                           version 2.2.06, 22 June 2011

               Distributed Multipoles from Gaussian wavefunctions

Starting at 14:3:45 on 27 Apr 2020

Using SCF density matrix from file ./SSI/SSI-007SER-010ARG-2-dimer.test.8632.fchk

                         Distributed Multipole Analysis

Standard DMA

Positions and radii in angstrom
Multipole moments in atomic units, ea_0^k for rank k

C          x =  1.866251  y = -0.395026  z = -2.754290 angstrom
           Maximum rank =  0   Radius =  0.650 angstrom
                   Q00  =  -0.063207

O          x =  0.536251  y =  0.077974  z = -2.670290 angstrom
           Maximum rank =  0   Radius =  0.650 angstrom
                   Q00  =  -0.625280

H          x =  0.176251  y =  0.113974  z = -3.570290 angstrom
           Maximum rank =  0   Radius =  0.325 angstrom
                   Q00  =   0.407804

H          x =  2.442251  y =  0.206974  z = -3.457290 angstrom
           Maximum rank =  0   Radius =  0.325 angstrom
                   Q00  =   0.101456

H          x =  1.845251  y = -1.429026  z = -3.104290 angstrom
           Maximum rank =  0   Radius =  0.325 angstrom
                   Q00  =   0.088860

H          x =  2.307271  y = -0.352229  z = -1.747480 angstrom
           Maximum rank =  0   Radius =  0.325 angstrom
                   Q00  =   0.110664

C          x = -0.205749  y = -0.879026  z =  2.906710 angstrom
           Maximum rank =  0   Radius =  0.650 angstrom
                   Q00  =  -0.128597

C          x = -0.569749  y =  0.296974  z =  0.758710 angstrom
           Maximum rank =  0   Radius =  0.650 angstrom
                   Q00  =   1.090111

N          x = -0.882749  y =  0.218974  z = -0.500290 angstrom
           Maximum rank =  0   Radius =  0.650 angstrom
                   Q00  =  -0.585388

N          x = -0.489749  y = -0.813026  z =  1.475710 angstrom
           Maximum rank =  0   Radius =  0.650 angstrom
                   Q00  =  -0.500388

N          x = -0.391749  y =  1.464974  z =  1.293710 angstrom
           Maximum rank =  0   Radius =  0.650 angstrom
                   Q00  =  -0.576070

H          x = -0.999749  y = -0.677026  z = -0.944290 angstrom
           Maximum rank =  0   Radius =  0.325 angstrom
                   Q00  =   0.259216

H          x = -0.775749  y =  1.013974  z = -1.109290 angstrom
           Maximum rank =  0   Radius =  0.325 angstrom
                   Q00  =   0.269430

H          x = -0.725749  y = -1.678026  z =  1.009710 angstrom
           Maximum rank =  0   Radius =  0.325 angstrom
                   Q00  =   0.229522

H          x = -0.192749  y =  1.532974  z =  2.275710 angstrom
           Maximum rank =  0   Radius =  0.325 angstrom
                   Q00  =   0.263367

H          x = -0.583749  y =  2.295974  z =  0.757710 angstrom
           Maximum rank =  0   Radius =  0.325 angstrom
                   Q00  =   0.267222

H          x = -0.758749  y = -1.724026  z =  3.321710 angstrom
           Maximum rank =  0   Radius =  0.325 angstrom
                   Q00  =   0.155135

H          x = -0.577749  y =  0.007974  z =  3.420710 angstrom
           Maximum rank =  0   Radius =  0.325 angstrom
                   Q00  =   0.106115

H          x =  0.858211  y = -1.016035  z =  3.150040 angstrom
           Maximum rank =  0   Radius =  0.325 angstrom
                   Q00  =   0.130030

Total multipoles referred to origin at
           x =   0.000000,  y =    0.000000,  z =    0.000000 angstrom
                   Q00  =   1.000000

Finished at 14:3:45 on 27 Apr 2020

  DMA results are available in the Python driver through the
	  variable('DMA DISTRIBUTED MULTIPOLES')
  and
	  variable('DMA TOTAL MULTIPOLES')
  commands.

    Psi4 stopped on: Monday, 27 April 2020 02:03PM
    Psi4 wall time for execution: 0:00:45.97

*** Psi4 exiting successfully. Buy a developer a beer!
