                               Psi4 1.3.2 release

  ==> Input File <==

--------------------------------------------------------------------------
import numpy as np
set {scf_type pk
basis cc-pvdz
d_convergence 10
gdma_switch   0
gdma_limit    0
gdma_origin   [ 0.0,  0.0,  0.0 ]
}
molecule test {
    units Angstrom
    0 1
    --
    0 1
    C                1.929338169966099     2.354728659857127    -2.220008243995042
    C               -0.197661830033901     0.416728659857128     0.236991756004958
    C                0.384338169966099    -0.848271340142872     0.234991756004958
    C                0.308338169966099     1.436728659857127    -0.548008243995042
    C                1.412338169966099     1.221728659857128    -1.354008243995042
    C                1.495338169966099    -1.081271340142872    -0.575008243995042
    C                1.999338169966099    -0.045271340142872    -1.357008243995042
    H               -1.055661830033901     0.606728659857128     0.858991756004958
    H               -0.027661830033901    -1.630271340142872     0.859991756004958
    H               -0.159661830033901     2.407728659857127    -0.531008243995042
    H                1.962338169966099    -2.055271340142872    -0.595008243995042
    H                1.976338169966099     3.242728659857128    -1.594008243995042
    H                1.189338169966099     2.518728659857127    -3.007008243995042
    H                2.859338169966098    -0.230271340142872    -1.974008243995042
    H                2.918388169966098     2.187498659857128    -2.671468243995042
    C               -2.529661830033902    -1.457271340142872     2.295991756004958
    C               -3.974661830033901    -1.778271340142872     2.743991756004958
    H               -2.024661830033901    -2.372271340142873     1.987991756004958
    H               -2.549661830033902    -0.762271340142872     1.456991756004958
    H               -1.980661830033901    -1.006271340142872     3.123991756004958
    H               -4.532661830033901    -2.214271340142872     1.913991756004958
    H               -3.974661830033901    -2.478581340142873     3.592261756004958
    H               -4.447911830033902    -0.828171340142872     3.032681756004957

}
e, wfn = energy('scf', return_wfn=True)
gdma(wfn)
dmavals = variable('DMA DISTRIBUTED MULTIPOLES')
charges = np.array(dmavals)
print(charges)
np.save('SSI-149PHE-169VAL-1-dimer.npy', np.array(charges))--------------------------------------------------------------------------

*** tstart() called on ds3
*** at Mon Apr 27 11:23:41 2020

   => Loading Basis Set <=

    Name: CC-PVDZ
    Role: ORBITAL
    Keyword: BASIS
    atoms 1-7, 16-17  entry C          line   138 file /theoryfs2/ds/metcalf/miniconda2/envs/tf2gpu/share/psi4/basis/cc-pvdz.gbs
    atoms 8-15, 18-23 entry H          line    22 file /theoryfs2/ds/metcalf/miniconda2/envs/tf2gpu/share/psi4/basis/cc-pvdz.gbs

         ---------------------------------------------------------
                                   SCF
               by Justin Turney, Rob Parrish, Andy Simmonett
                          and Daniel G. A. Smith
                              RHF Reference
                        1 Threads,    500 MiB Core
         ---------------------------------------------------------

  ==> Geometry <==

    Molecular point group: c1
    Full point group: C1

    Geometry (in Angstrom), charge = 0, multiplicity = 1:

       Center              X                  Y                   Z               Mass
    ------------   -----------------  -----------------  -----------------  -----------------
         C            1.929338169966     2.354728659857    -2.220008243995    12.000000000000
         C           -0.197661830034     0.416728659857     0.236991756005    12.000000000000
         C            0.384338169966    -0.848271340143     0.234991756005    12.000000000000
         C            0.308338169966     1.436728659857    -0.548008243995    12.000000000000
         C            1.412338169966     1.221728659857    -1.354008243995    12.000000000000
         C            1.495338169966    -1.081271340143    -0.575008243995    12.000000000000
         C            1.999338169966    -0.045271340143    -1.357008243995    12.000000000000
         H           -1.055661830034     0.606728659857     0.858991756005     1.007825032230
         H           -0.027661830034    -1.630271340143     0.859991756005     1.007825032230
         H           -0.159661830034     2.407728659857    -0.531008243995     1.007825032230
         H            1.962338169966    -2.055271340143    -0.595008243995     1.007825032230
         H            1.976338169966     3.242728659857    -1.594008243995     1.007825032230
         H            1.189338169966     2.518728659857    -3.007008243995     1.007825032230
         H            2.859338169966    -0.230271340143    -1.974008243995     1.007825032230
         H            2.918388169966     2.187498659857    -2.671468243995     1.007825032230
         C           -2.529661830034    -1.457271340143     2.295991756005    12.000000000000
         C           -3.974661830034    -1.778271340143     2.743991756005    12.000000000000
         H           -2.024661830034    -2.372271340143     1.987991756005     1.007825032230
         H           -2.549661830034    -0.762271340143     1.456991756005     1.007825032230
         H           -1.980661830034    -1.006271340143     3.123991756005     1.007825032230
         H           -4.532661830034    -2.214271340143     1.913991756005     1.007825032230
         H           -3.974661830034    -2.478581340143     3.592261756005     1.007825032230
         H           -4.447911830034    -0.828171340143     3.032681756005     1.007825032230

  Running in c1 symmetry.

  Rotational constants: A =      0.13140  B =      0.01728  C =      0.01550 [cm^-1]
  Rotational constants: A =   3939.24809  B =    517.95041  C =    464.75092 [MHz]
  Nuclear repulsion =  397.404147036994573

  Charge       = 0
  Multiplicity = 1
  Electrons    = 68
  Nalpha       = 34
  Nbeta        = 34

  ==> Algorithm <==

  SCF Algorithm Type is PK.
  DIIS enabled.
  MOM disabled.
  Fractional occupation disabled.
  Guess Type is SAD.
  Energy threshold   = 1.00e-06
  Density threshold  = 1.00e-10
  Integral threshold = 0.00e+00

  ==> Primary Basis <==

  Basis Set: CC-PVDZ
    Blend: CC-PVDZ
    Number of shells: 96
    Number of basis function: 196
    Number of Cartesian functions: 205
    Spherical Harmonics?: true
    Max angular momentum: 2

  ==> Pre-Iterations <==

   -------------------------------------------------------
    Irrep   Nso     Nmo     Nalpha   Nbeta   Ndocc  Nsocc
   -------------------------------------------------------
     A        196     196       0       0       0       0
   -------------------------------------------------------
    Total     196     196      34      34      34       0
   -------------------------------------------------------

  ==> Integral Setup <==

  Using integral reordering PK algorithm.
  Sizing the integral batches needed.
  Building batch lookup table.
   Calculation information:
      Number of atoms:                  23
      Number of AO shells:              96
      Number of primitives:            268
      Number of atomic orbitals:       205
      Number of basis functions:       196

      Integral cutoff                 1.00e-12
      Number of threads:                 1

	Batch   1 pq = [       0,    9405] index = [             0,44231715] size =     44231715
	Batch   2 pq = [    9405,   13301] index = [      44231715,88464951] size =     44233236
	Batch   3 pq = [   13301,   16290] index = [      88464951,132690195] size =     44225244
	Batch   4 pq = [   16290,   18810] index = [     132690195,176917455] size =     44227260
	Batch   5 pq = [   18810,   19306] index = [     176917455,186370471] size =      9453016
  Task number: 17
  Buffer size: 11059200
  Buffer per thread: 2
  We computed 8133183 shell quartets total.
  Whereas there are 10841496 unique shell quartets.

  ==> DiskJK: Disk-Based J/K Matrices <==

    J tasked:                  Yes
    K tasked:                  Yes
    wK tasked:                  No
    Memory [MiB]:              375
    Schwarz Cutoff:          1E-12

    OpenMP threads:              1

  Minimum eigenvalue in the overlap matrix is 2.9723978627E-04.
  Using Symmetric Orthogonalization.

  SCF Guess: Superposition of Atomic Densities via on-the-fly atomic UHF.

  ==> Iterations <==

                        Total Energy        Delta E     RMS |[F,P]|

   @RHF iter SAD:  -347.88013942489670   -3.47880e+02   0.00000e+00
   @RHF iter   1:  -348.76737884512920   -8.87239e-01   2.87577e-03 DIIS
   @RHF iter   2:  -348.95889533277034   -1.91516e-01   1.18034e-03 DIIS
   @RHF iter   3:  -348.98818650796795   -2.92912e-02   2.59297e-04 DIIS
   @RHF iter   4:  -348.99065888598381   -2.47238e-03   5.46717e-05 DIIS
   @RHF iter   5:  -348.99073629953932   -7.74136e-05   1.89999e-05 DIIS
   @RHF iter   6:  -348.99074508585068   -8.78631e-06   4.94388e-06 DIIS
   @RHF iter   7:  -348.99074578910296   -7.03252e-07   1.22676e-06 DIIS
   @RHF iter   8:  -348.99074583889364   -4.97907e-08   2.87743e-07 DIIS
   @RHF iter   9:  -348.99074584424744   -5.35380e-09   1.09131e-07 DIIS
   @RHF iter  10:  -348.99074584526886   -1.02142e-09   5.24295e-08 DIIS
   @RHF iter  11:  -348.99074584561748   -3.48621e-10   1.92966e-08 DIIS
   @RHF iter  12:  -348.99074584567194   -5.44560e-11   7.25094e-09 DIIS
   @RHF iter  13:  -348.99074584567882   -6.87805e-12   3.11204e-09 DIIS
   @RHF iter  14:  -348.99074584567916   -3.41061e-13   6.24475e-10 DIIS
   @RHF iter  15:  -348.99074584567882    3.41061e-13   2.61137e-10 DIIS
   @RHF iter  16:  -348.99074584567825    5.68434e-13   9.30191e-11 DIIS
  Energy and wave function converged.

  ==> Post-Iterations <==

    Orbital Energies [Eh]
    ---------------------

    Doubly Occupied:

       1A    -11.239276     2A    -11.234024     3A    -11.231017
       4A    -11.230221     5A    -11.228716     6A    -11.227695
       7A    -11.225731     8A    -11.222261     9A    -11.220331
      10A     -1.151916    11A     -1.041910    12A     -1.016574
      13A     -1.010456    14A     -0.930465    15A     -0.840666
      16A     -0.822172    17A     -0.795329    18A     -0.689919
      19A     -0.629920    20A     -0.628423    21A     -0.599519
      22A     -0.598532    23A     -0.580340    24A     -0.577526
      25A     -0.561531    26A     -0.536697    27A     -0.497764
      28A     -0.492641    29A     -0.489650    30A     -0.485220
      31A     -0.480105    32A     -0.477086    33A     -0.331237
      34A     -0.319591

    Virtual:

      35A      0.137155    36A      0.145446    37A      0.178943
      38A      0.190291    39A      0.206685    40A      0.219811
      41A      0.232956    42A      0.245392    43A      0.256314
      44A      0.258899    45A      0.270319    46A      0.278982
      47A      0.283586    48A      0.286972    49A      0.320929
      50A      0.330994    51A      0.371629    52A      0.379443
      53A      0.382346    54A      0.460458    55A      0.471878
      56A      0.475887    57A      0.497258    58A      0.555349
      59A      0.589827    60A      0.597640    61A      0.601917
      62A      0.625050    63A      0.667242    64A      0.677096
      65A      0.685689    66A      0.695597    67A      0.707031
      68A      0.714401    69A      0.730792    70A      0.740747
      71A      0.743959    72A      0.746560    73A      0.765441
      74A      0.772902    75A      0.793514    76A      0.800325
      77A      0.835820    78A      0.851865    79A      0.862400
      80A      0.875385    81A      0.880846    82A      0.888193
      83A      0.892349    84A      0.895069    85A      0.901865
      86A      0.912883    87A      0.917698    88A      0.922126
      89A      0.928194    90A      0.940115    91A      0.947234
      92A      0.952072    93A      0.983655    94A      1.010156
      95A      1.028115    96A      1.054846    97A      1.111756
      98A      1.126142    99A      1.142796   100A      1.156722
     101A      1.162804   102A      1.190199   103A      1.208844
     104A      1.231895   105A      1.243597   106A      1.255486
     107A      1.267748   108A      1.283864   109A      1.308569
     110A      1.310999   111A      1.324787   112A      1.330245
     113A      1.419906   114A      1.469097   115A      1.482981
     116A      1.521064   117A      1.530557   118A      1.573986
     119A      1.588630   120A      1.625037   121A      1.662685
     122A      1.676642   123A      1.686636   124A      1.690564
     125A      1.741345   126A      1.747458   127A      1.760982
     128A      1.798504   129A      1.814603   130A      1.849735
     131A      1.863730   132A      1.879488   133A      1.886434
     134A      1.892111   135A      1.908018   136A      1.913739
     137A      1.917003   138A      1.923475   139A      1.934582
     140A      1.944192   141A      1.948871   142A      1.953923
     143A      1.957743   144A      1.962277   145A      1.978028
     146A      1.997808   147A      2.006654   148A      2.014431
     149A      2.037667   150A      2.066246   151A      2.082563
     152A      2.092473   153A      2.112732   154A      2.117534
     155A      2.140577   156A      2.158628   157A      2.190452
     158A      2.205564   159A      2.221279   160A      2.253797
     161A      2.270448   162A      2.282727   163A      2.297541
     164A      2.302146   165A      2.332449   166A      2.351196
     167A      2.382753   168A      2.453039   169A      2.463084
     170A      2.471469   171A      2.474280   172A      2.509553
     173A      2.537267   174A      2.565589   175A      2.573083
     176A      2.640696   177A      2.733916   178A      2.753532
     179A      2.763328   180A      2.775775   181A      2.786692
     182A      2.802129   183A      2.825468   184A      2.835012
     185A      2.839577   186A      2.851522   187A      2.868554
     188A      2.948280   189A      2.951294   190A      2.993351
     191A      3.021035   192A      3.044356   193A      3.170809
     194A      3.210779   195A      3.317930   196A      3.975824

    Final Occupation by Irrep:
              A
    DOCC [    34 ]

  @RHF Final Energy:  -348.99074584567825

   => Energetics <=

    Nuclear Repulsion Energy =            397.4041470369945728
    One-Electron Energy =               -1257.5008612584222192
    Two-Electron Energy =                 511.1059683757493985
    Total Energy =                       -348.9907458456782479

Computation Completed

Properties will be evaluated at   0.000000,   0.000000,   0.000000 [a0]

Properties computed using the SCF density matrix

  Nuclear Dipole Moment: [e a0]
     X:    -9.2317      Y:    -2.4508      Z:     6.0508

  Electronic Dipole Moment: [e a0]
     X:     9.2392      Y:     2.5484      Z:    -6.1228

  Dipole Moment: [e a0]
     X:     0.0075      Y:     0.0976      Z:    -0.0720     Total:     0.1215

  Dipole Moment: [D]
     X:     0.0191      Y:     0.2481      Z:    -0.1830     Total:     0.3089

*** tstop() called on ds3 at Mon Apr 27 11:30:46 2020
Module time:
	user time   =      56.39 seconds =       0.94 minutes
	system time =      24.32 seconds =       0.41 minutes
	total time  =        425 seconds =       7.08 minutes
Total time:
	user time   =      56.39 seconds =       0.94 minutes
	system time =      24.32 seconds =       0.41 minutes
	total time  =        425 seconds =       7.08 minutes
                                     G D M A

                                 by Anthony Stone

                           version 2.2.06, 22 June 2011

               Distributed Multipoles from Gaussian wavefunctions

Starting at 11:30:46 on 27 Apr 2020

Using SCF density matrix from file ./SSI/SSI-149PHE-169VAL-1-dimer.test.2946.fchk

                         Distributed Multipole Analysis

Standard DMA

Positions and radii in angstrom
Multipole moments in atomic units, ea_0^k for rank k

C          x =  1.929338  y =  2.354729  z = -2.220008 angstrom
           Maximum rank =  0   Radius =  0.650 angstrom
                   Q00  =  -0.204860

C          x = -0.197662  y =  0.416729  z =  0.236992 angstrom
           Maximum rank =  0   Radius =  0.650 angstrom
                   Q00  =  -0.015395

C          x =  0.384338  y = -0.848271  z =  0.234992 angstrom
           Maximum rank =  0   Radius =  0.650 angstrom
                   Q00  =  -0.096911

C          x =  0.308338  y =  1.436729  z = -0.548008 angstrom
           Maximum rank =  0   Radius =  0.650 angstrom
                   Q00  =  -0.080132

C          x =  1.412338  y =  1.221729  z = -1.354008 angstrom
           Maximum rank =  0   Radius =  0.650 angstrom
                   Q00  =  -0.099824

C          x =  1.495338  y = -1.081271  z = -0.575008 angstrom
           Maximum rank =  0   Radius =  0.650 angstrom
                   Q00  =  -0.073780

C          x =  1.999338  y = -0.045271  z = -1.357008 angstrom
           Maximum rank =  0   Radius =  0.650 angstrom
                   Q00  =  -0.029376

H          x = -1.055662  y =  0.606729  z =  0.858992 angstrom
           Maximum rank =  0   Radius =  0.325 angstrom
                   Q00  =   0.060509

H          x = -0.027662  y = -1.630271  z =  0.859992 angstrom
           Maximum rank =  0   Radius =  0.325 angstrom
                   Q00  =   0.064900

H          x = -0.159662  y =  2.407729  z = -0.531008 angstrom
           Maximum rank =  0   Radius =  0.325 angstrom
                   Q00  =   0.051895

H          x =  1.962338  y = -2.055271  z = -0.595008 angstrom
           Maximum rank =  0   Radius =  0.325 angstrom
                   Q00  =   0.064185

H          x =  1.976338  y =  3.242729  z = -1.594008 angstrom
           Maximum rank =  0   Radius =  0.325 angstrom
                   Q00  =   0.099425

H          x =  1.189338  y =  2.518729  z = -3.007008 angstrom
           Maximum rank =  0   Radius =  0.325 angstrom
                   Q00  =   0.102576

H          x =  2.859338  y = -0.230271  z = -1.974008 angstrom
           Maximum rank =  0   Radius =  0.325 angstrom
                   Q00  =   0.055058

H          x =  2.918388  y =  2.187499  z = -2.671468 angstrom
           Maximum rank =  0   Radius =  0.325 angstrom
                   Q00  =   0.102073

C          x = -2.529662  y = -1.457271  z =  2.295992 angstrom
           Maximum rank =  0   Radius =  0.650 angstrom
                   Q00  =  -0.255950

C          x = -3.974662  y = -1.778271  z =  2.743992 angstrom
           Maximum rank =  0   Radius =  0.650 angstrom
                   Q00  =  -0.231789

H          x = -2.024662  y = -2.372271  z =  1.987992 angstrom
           Maximum rank =  0   Radius =  0.325 angstrom
                   Q00  =   0.079733

H          x = -2.549662  y = -0.762271  z =  1.456992 angstrom
           Maximum rank =  0   Radius =  0.325 angstrom
                   Q00  =   0.080630

H          x = -1.980662  y = -1.006271  z =  3.123992 angstrom
           Maximum rank =  0   Radius =  0.325 angstrom
                   Q00  =   0.081672

H          x = -4.532662  y = -2.214271  z =  1.913992 angstrom
           Maximum rank =  0   Radius =  0.325 angstrom
                   Q00  =   0.083628

H          x = -3.974662  y = -2.478581  z =  3.592262 angstrom
           Maximum rank =  0   Radius =  0.325 angstrom
                   Q00  =   0.082950

H          x = -4.447912  y = -0.828171  z =  3.032682 angstrom
           Maximum rank =  0   Radius =  0.325 angstrom
                   Q00  =   0.078782

Total multipoles referred to origin at
           x =   0.000000,  y =    0.000000,  z =    0.000000 angstrom
                   Q00  =  -0.000000

Finished at 11:30:46 on 27 Apr 2020

  DMA results are available in the Python driver through the
	  variable('DMA DISTRIBUTED MULTIPOLES')
  and
	  variable('DMA TOTAL MULTIPOLES')
  commands.

    Psi4 stopped on: Monday, 27 April 2020 11:30AM
    Psi4 wall time for execution: 0:07:05.69

*** Psi4 exiting successfully. Buy a developer a beer!
