                               Psi4 1.3.2 release

  ==> Input File <==

--------------------------------------------------------------------------
import numpy as np
set {scf_type pk
basis cc-pvdz
d_convergence 10
gdma_switch   0
gdma_limit    0
gdma_origin   [ 0.0,  0.0,  0.0 ]
}
molecule test {
    units Angstrom
    0 1
    --
    0 1
    C                0.029422971328598    -3.032838691299416    -0.179009047393783
    C                0.153422971328598    -0.620838691299416     0.477990952606217
    C               -0.612577028671402    -1.770838691299416     0.305990952606217
    C               -0.429577028671402     0.565161308700584     0.912990952606217
    C               -1.778577028671402     0.622161308700584     1.143990952606218
    C               -1.974577028671402    -1.714838691299416     0.566990952606217
    C               -2.561577028671402    -0.524838691299416     1.001990952606217
    O               -2.308577028671402     1.814161308700584     1.550990952606218
    H                1.214422971328598    -0.675838691299416     0.298990952606217
    H                0.182422971328598     1.445161308700584     1.047990952606217
    H               -0.555577028671402    -3.881838691299416     0.174990952606217
    H                1.015422971328598    -3.110838691299416     0.283990952606217
    H               -2.585577028671402    -2.597838691299416     0.439990952606217
    H               -1.638577028671402     2.502161308700584     1.616990952606217
    H               -3.617577028671402    -0.477838691299416     1.220990952606217
    H                0.148542971328598    -3.112728691299416    -1.269618047393783
    C                2.947422971328598     1.447161308700584    -1.192009047393783
    C                1.969422971328598     2.013161308700584    -2.153009047393782
    C                3.862422971328598     0.544161308700584    -2.013009047393783
    H                2.421422971328598     0.880161308700584    -0.432009047393783
    H                3.518422971328598     2.243161308700584    -0.713009047393783
    H                1.005422971328598     2.206161308700584    -1.679009047393782
    H                2.370422971328598     2.937161308700584    -2.573009047393782
    H                4.834422971328599     1.024161308700584    -2.146009047393783
    H                1.881542971328598     1.263661308700584    -2.953343047393783
    H                3.352902971328598     0.439241308700584    -2.982226047393782
    H                3.977532971328598    -0.437878691299416    -1.530983047393782

}
e, wfn = energy('scf', return_wfn=True)
gdma(wfn)
dmavals = variable('DMA DISTRIBUTED MULTIPOLES')
charges = np.array(dmavals)
print(charges)
np.save('SSI-173TYR-211PRO-1-dimer.npy', np.array(charges))--------------------------------------------------------------------------

*** tstart() called on ds3
*** at Mon Apr 27 03:21:41 2020

   => Loading Basis Set <=

    Name: CC-PVDZ
    Role: ORBITAL
    Keyword: BASIS
    atoms 1-7, 17-19  entry C          line   138 file /theoryfs2/ds/metcalf/miniconda2/envs/tf2gpu/share/psi4/basis/cc-pvdz.gbs
    atoms 8           entry O          line   198 file /theoryfs2/ds/metcalf/miniconda2/envs/tf2gpu/share/psi4/basis/cc-pvdz.gbs
    atoms 9-16, 20-27 entry H          line    22 file /theoryfs2/ds/metcalf/miniconda2/envs/tf2gpu/share/psi4/basis/cc-pvdz.gbs

         ---------------------------------------------------------
                                   SCF
               by Justin Turney, Rob Parrish, Andy Simmonett
                          and Daniel G. A. Smith
                              RHF Reference
                        1 Threads,    500 MiB Core
         ---------------------------------------------------------

  ==> Geometry <==

    Molecular point group: c1
    Full point group: C1

    Geometry (in Angstrom), charge = 0, multiplicity = 1:

       Center              X                  Y                   Z               Mass
    ------------   -----------------  -----------------  -----------------  -----------------
         C            0.029422971329    -3.032838691299    -0.179009047394    12.000000000000
         C            0.153422971329    -0.620838691299     0.477990952606    12.000000000000
         C           -0.612577028671    -1.770838691299     0.305990952606    12.000000000000
         C           -0.429577028671     0.565161308701     0.912990952606    12.000000000000
         C           -1.778577028671     0.622161308701     1.143990952606    12.000000000000
         C           -1.974577028671    -1.714838691299     0.566990952606    12.000000000000
         C           -2.561577028671    -0.524838691299     1.001990952606    12.000000000000
         O           -2.308577028671     1.814161308701     1.550990952606    15.994914619570
         H            1.214422971329    -0.675838691299     0.298990952606     1.007825032230
         H            0.182422971329     1.445161308701     1.047990952606     1.007825032230
         H           -0.555577028671    -3.881838691299     0.174990952606     1.007825032230
         H            1.015422971329    -3.110838691299     0.283990952606     1.007825032230
         H           -2.585577028671    -2.597838691299     0.439990952606     1.007825032230
         H           -1.638577028671     2.502161308701     1.616990952606     1.007825032230
         H           -3.617577028671    -0.477838691299     1.220990952606     1.007825032230
         H            0.148542971329    -3.112728691299    -1.269618047394     1.007825032230
         C            2.947422971329     1.447161308701    -1.192009047394    12.000000000000
         C            1.969422971329     2.013161308701    -2.153009047394    12.000000000000
         C            3.862422971329     0.544161308701    -2.013009047394    12.000000000000
         H            2.421422971329     0.880161308701    -0.432009047394     1.007825032230
         H            3.518422971329     2.243161308701    -0.713009047394     1.007825032230
         H            1.005422971329     2.206161308701    -1.679009047394     1.007825032230
         H            2.370422971329     2.937161308701    -2.573009047394     1.007825032230
         H            4.834422971329     1.024161308701    -2.146009047394     1.007825032230
         H            1.881542971329     1.263661308701    -2.953343047394     1.007825032230
         H            3.352902971329     0.439241308701    -2.982226047394     1.007825032230
         H            3.977532971329    -0.437878691299    -1.530983047394     1.007825032230

  Running in c1 symmetry.

  Rotational constants: A =      0.04221  B =      0.01721  C =      0.01293 [cm^-1]
  Rotational constants: A =   1265.29023  B =    515.99616  C =    387.68905 [MHz]
  Nuclear repulsion =  575.910948271833149

  Charge       = 0
  Multiplicity = 1
  Electrons    = 84
  Nalpha       = 42
  Nbeta        = 42

  ==> Algorithm <==

  SCF Algorithm Type is PK.
  DIIS enabled.
  MOM disabled.
  Fractional occupation disabled.
  Guess Type is SAD.
  Energy threshold   = 1.00e-06
  Density threshold  = 1.00e-10
  Integral threshold = 0.00e+00

  ==> Primary Basis <==

  Basis Set: CC-PVDZ
    Blend: CC-PVDZ
    Number of shells: 114
    Number of basis function: 234
    Number of Cartesian functions: 245
    Spherical Harmonics?: true
    Max angular momentum: 2

  ==> Pre-Iterations <==

   -------------------------------------------------------
    Irrep   Nso     Nmo     Nalpha   Nbeta   Ndocc  Nsocc
   -------------------------------------------------------
     A        234     234       0       0       0       0
   -------------------------------------------------------
    Total     234     234      42      42      42       0
   -------------------------------------------------------

  ==> Integral Setup <==

  Using integral reordering PK algorithm.
  Sizing the integral batches needed.
  Building batch lookup table.
   Calculation information:
      Number of atoms:                  27
      Number of AO shells:             114
      Number of primitives:            322
      Number of atomic orbitals:       245
      Number of basis functions:       234

      Integral cutoff                 1.00e-12
      Number of threads:                 1

	Batch   1 pq = [       0,    9405] index = [             0,44231715] size =     44231715
	Batch   2 pq = [    9405,   13301] index = [      44231715,88464951] size =     44233236
	Batch   3 pq = [   13301,   16290] index = [      88464951,132690195] size =     44225244
	Batch   4 pq = [   16290,   18810] index = [     132690195,176917455] size =     44227260
	Batch   5 pq = [   18810,   21030] index = [     176917455,221140965] size =     44223510
	Batch   6 pq = [   21030,   23037] index = [     221140965,265363203] size =     44222238
	Batch   7 pq = [   23037,   24883] index = [     265363203,309594286] size =     44231083
	Batch   8 pq = [   24883,   26601] index = [     309594286,353819901] size =     44225615
	Batch   9 pq = [   26601,   27495] index = [     353819901,378001260] size =     24181359
  Task number: 35
  Buffer size: 11059200
  Buffer per thread: 2
  We computed 18683629 shell quartets total.
  Whereas there are 21487290 unique shell quartets.

  ==> DiskJK: Disk-Based J/K Matrices <==

    J tasked:                  Yes
    K tasked:                  Yes
    wK tasked:                  No
    Memory [MiB]:              375
    Schwarz Cutoff:          1E-12

    OpenMP threads:              1

  Minimum eigenvalue in the overlap matrix is 3.1582271841E-04.
  Using Symmetric Orthogonalization.

  SCF Guess: Superposition of Atomic Densities via on-the-fly atomic UHF.

  ==> Iterations <==

                        Total Energy        Delta E     RMS |[F,P]|

   @RHF iter SAD:  -461.94893293478373   -4.61949e+02   0.00000e+00
   @RHF iter   1:  -462.57539740946925   -6.26464e-01   2.87243e-03 DIIS
   @RHF iter   2:  -462.82322993066418   -2.47833e-01   1.24060e-03 DIIS
   @RHF iter   3:  -462.86563569946065   -4.24058e-02   2.72189e-04 DIIS
   @RHF iter   4:  -462.86894605746102   -3.31036e-03   1.04362e-04 DIIS
   @RHF iter   5:  -462.86929432004695   -3.48263e-04   2.08842e-05 DIIS
   @RHF iter   6:  -462.86931448479061   -2.01647e-05   6.50229e-06 DIIS
   @RHF iter   7:  -462.86931659580392   -2.11101e-06   1.87258e-06 DIIS
   @RHF iter   8:  -462.86931684926560   -2.53462e-07   7.05209e-07 DIIS
   @RHF iter   9:  -462.86931688929604   -4.00304e-08   3.06050e-07 DIIS
   @RHF iter  10:  -462.86931689726100   -7.96496e-09   1.30765e-07 DIIS
   @RHF iter  11:  -462.86931689990422   -2.64322e-09   5.49676e-08 DIIS
   @RHF iter  12:  -462.86931690040160   -4.97380e-10   2.37431e-08 DIIS
   @RHF iter  13:  -462.86931690046441   -6.28120e-11   7.94337e-09 DIIS
   @RHF iter  14:  -462.86931690046924   -4.83169e-12   1.97513e-09 DIIS
   @RHF iter  15:  -462.86931690046833    9.09495e-13   6.51196e-10 DIIS
   @RHF iter  16:  -462.86931690047129   -2.95586e-12   2.12421e-10 DIIS
   @RHF iter  17:  -462.86931690046754    3.75167e-12   9.21437e-11 DIIS
  Energy and wave function converged.

  ==> Post-Iterations <==

    Orbital Energies [Eh]
    ---------------------

    Doubly Occupied:

       1A    -20.580985     2A    -11.297863     3A    -11.238836
       4A    -11.237617     5A    -11.232687     6A    -11.231900
       7A    -11.230939     8A    -11.227559     9A    -11.216731
      10A    -11.214723    11A    -11.211728    12A     -1.397711
      13A     -1.154288    14A     -1.073159    15A     -1.041428
      16A     -1.018869    17A     -0.927526    18A     -0.918794
      19A     -0.847155    20A     -0.804514    21A     -0.800231
      22A     -0.732314    23A     -0.671512    24A     -0.643369
      25A     -0.638477    26A     -0.620242    27A     -0.608167
      28A     -0.587185    29A     -0.586164    30A     -0.570632
      31A     -0.566042    32A     -0.543120    33A     -0.526178
      34A     -0.521141    35A     -0.499063    36A     -0.488654
      37A     -0.485608    38A     -0.468098    39A     -0.464218
      40A     -0.461632    41A     -0.339291    42A     -0.303871

    Virtual:

      43A      0.128096    44A      0.154139    45A      0.166591
      46A      0.178362    47A      0.198275    48A      0.210209
      49A      0.214961    50A      0.226503    51A      0.231120
      52A      0.255163    53A      0.258754    54A      0.269164
      55A      0.276792    56A      0.288195    57A      0.305298
      58A      0.307338    59A      0.329280    60A      0.344982
      61A      0.374470    62A      0.386393    63A      0.413269
      64A      0.434139    65A      0.438704    66A      0.463914
      67A      0.495945    68A      0.507845    69A      0.527114
      70A      0.572474    71A      0.591897    72A      0.615101
      73A      0.626782    74A      0.633336    75A      0.639671
      76A      0.660958    77A      0.668378    78A      0.682630
      79A      0.691355    80A      0.697939    81A      0.707531
      82A      0.731438    83A      0.738892    84A      0.755181
      85A      0.762073    86A      0.770304    87A      0.775639
      88A      0.783006    89A      0.793522    90A      0.809104
      91A      0.830851    92A      0.845136    93A      0.852818
      94A      0.856164    95A      0.865560    96A      0.876533
      97A      0.879399    98A      0.884230    99A      0.897190
     100A      0.901030   101A      0.907914   102A      0.911966
     103A      0.915820   104A      0.925993   105A      0.940666
     106A      0.941866   107A      0.948684   108A      0.952020
     109A      0.976135   110A      0.982620   111A      1.012731
     112A      1.018286   113A      1.048235   114A      1.055993
     115A      1.081462   116A      1.088282   117A      1.124462
     118A      1.144136   119A      1.155192   120A      1.193623
     121A      1.198961   122A      1.224113   123A      1.254572
     124A      1.263448   125A      1.277751   126A      1.287365
     127A      1.310531   128A      1.320440   129A      1.329047
     130A      1.353112   131A      1.364555   132A      1.395129
     133A      1.412990   134A      1.481122   135A      1.483145
     136A      1.496528   137A      1.519967   138A      1.536740
     139A      1.560701   140A      1.603514   141A      1.619071
     142A      1.622828   143A      1.630794   144A      1.652080
     145A      1.685740   146A      1.703500   147A      1.718826
     148A      1.725411   149A      1.739041   150A      1.749640
     151A      1.782054   152A      1.797900   153A      1.805141
     154A      1.809950   155A      1.856502   156A      1.869371
     157A      1.879710   158A      1.893398   159A      1.895447
     160A      1.907754   161A      1.908660   162A      1.920566
     163A      1.925484   164A      1.927323   165A      1.946346
     166A      1.951988   167A      1.961828   168A      1.969394
     169A      1.982760   170A      1.989124   171A      1.998701
     172A      2.003847   173A      2.023381   174A      2.033573
     175A      2.046497   176A      2.053860   177A      2.056801
     178A      2.060193   179A      2.065797   180A      2.086645
     181A      2.142404   182A      2.149096   183A      2.165865
     184A      2.189545   185A      2.213814   186A      2.230379
     187A      2.253201   188A      2.265340   189A      2.290492
     190A      2.293130   191A      2.310133   192A      2.324655
     193A      2.331857   194A      2.351511   195A      2.368009
     196A      2.409005   197A      2.420223   198A      2.429832
     199A      2.461902   200A      2.482659   201A      2.499463
     202A      2.507295   203A      2.531762   204A      2.544846
     205A      2.574043   206A      2.602373   207A      2.659867
     208A      2.665539   209A      2.717786   210A      2.756034
     211A      2.761932   212A      2.775484   213A      2.785287
     214A      2.795295   215A      2.802664   216A      2.819586
     217A      2.824267   218A      2.841380   219A      2.851382
     220A      2.894750   221A      2.908631   222A      2.946868
     223A      2.963781   224A      3.005478   225A      3.075108
     226A      3.094514   227A      3.116940   228A      3.252716
     229A      3.293842   230A      3.346647   231A      3.579425
     232A      3.665096   233A      4.005121   234A      4.184907

    Final Occupation by Irrep:
              A
    DOCC [    42 ]

  @RHF Final Energy:  -462.86931690046754

   => Energetics <=

    Nuclear Repulsion Energy =            575.9109482718331492
    One-Electron Energy =               -1769.1000820563572233
    Two-Electron Energy =                 730.3198168840565359
    Total Energy =                       -462.8693169004675383

Computation Completed

Properties will be evaluated at   0.000000,   0.000000,   0.000000 [a0]

Properties computed using the SCF density matrix

  Nuclear Dipole Moment: [e a0]
     X:    16.4186      Y:     0.6145      Z:   -10.4878

  Electronic Dipole Moment: [e a0]
     X:   -15.8683      Y:    -0.5674      Z:    10.4236

  Dipole Moment: [e a0]
     X:     0.5504      Y:     0.0472      Z:    -0.0642     Total:     0.5561

  Dipole Moment: [D]
     X:     1.3989      Y:     0.1199      Z:    -0.1631     Total:     1.4134

*** tstop() called on ds3 at Mon Apr 27 03:24:39 2020
Module time:
	user time   =     128.08 seconds =       2.13 minutes
	system time =      56.93 seconds =       0.95 minutes
	total time  =        178 seconds =       2.97 minutes
Total time:
	user time   =     128.08 seconds =       2.13 minutes
	system time =      56.93 seconds =       0.95 minutes
	total time  =        178 seconds =       2.97 minutes
                                     G D M A

                                 by Anthony Stone

                           version 2.2.06, 22 June 2011

               Distributed Multipoles from Gaussian wavefunctions

Starting at 3:24:39 on 27 Apr 2020

Using SCF density matrix from file ./SSI/SSI-173TYR-211PRO-1-dimer.test.17867.fchk

                         Distributed Multipole Analysis

Standard DMA

Positions and radii in angstrom
Multipole moments in atomic units, ea_0^k for rank k

C          x =  0.029423  y = -3.032839  z = -0.179009 angstrom
           Maximum rank =  0   Radius =  0.650 angstrom
                   Q00  =  -0.198897

C          x =  0.153423  y = -0.620839  z =  0.477991 angstrom
           Maximum rank =  0   Radius =  0.650 angstrom
                   Q00  =   0.058455

C          x = -0.612577  y = -1.770839  z =  0.305991 angstrom
           Maximum rank =  0   Radius =  0.650 angstrom
                   Q00  =  -0.133943

C          x = -0.429577  y =  0.565161  z =  0.912991 angstrom
           Maximum rank =  0   Radius =  0.650 angstrom
                   Q00  =  -0.188618

C          x = -1.778577  y =  0.622161  z =  1.143991 angstrom
           Maximum rank =  0   Radius =  0.650 angstrom
                   Q00  =   0.290158

C          x = -1.974577  y = -1.714839  z =  0.566991 angstrom
           Maximum rank =  0   Radius =  0.650 angstrom
                   Q00  =  -0.049642

C          x = -2.561577  y = -0.524839  z =  1.001991 angstrom
           Maximum rank =  0   Radius =  0.650 angstrom
                   Q00  =  -0.102749

O          x = -2.308577  y =  1.814161  z =  1.550991 angstrom
           Maximum rank =  0   Radius =  0.650 angstrom
                   Q00  =  -0.652633

H          x =  1.214423  y = -0.675839  z =  0.298991 angstrom
           Maximum rank =  0   Radius =  0.325 angstrom
                   Q00  =   0.067282

H          x =  0.182423  y =  1.445161  z =  1.047991 angstrom
           Maximum rank =  0   Radius =  0.325 angstrom
                   Q00  =   0.068092

H          x = -0.555577  y = -3.881839  z =  0.174991 angstrom
           Maximum rank =  0   Radius =  0.325 angstrom
                   Q00  =   0.095370

H          x =  1.015423  y = -3.110839  z =  0.283991 angstrom
           Maximum rank =  0   Radius =  0.325 angstrom
                   Q00  =   0.092886

H          x = -2.585577  y = -2.597839  z =  0.439991 angstrom
           Maximum rank =  0   Radius =  0.325 angstrom
                   Q00  =   0.065143

H          x = -1.638577  y =  2.502161  z =  1.616991 angstrom
           Maximum rank =  0   Radius =  0.325 angstrom
                   Q00  =   0.407470

H          x = -3.617577  y = -0.477839  z =  1.220991 angstrom
           Maximum rank =  0   Radius =  0.325 angstrom
                   Q00  =   0.082653

H          x =  0.148543  y = -3.112729  z = -1.269618 angstrom
           Maximum rank =  0   Radius =  0.325 angstrom
                   Q00  =   0.100981

C          x =  2.947423  y =  1.447161  z = -1.192009 angstrom
           Maximum rank =  0   Radius =  0.650 angstrom
                   Q00  =  -0.124202

C          x =  1.969423  y =  2.013161  z = -2.153009 angstrom
           Maximum rank =  0   Radius =  0.650 angstrom
                   Q00  =  -0.205966

C          x =  3.862423  y =  0.544161  z = -2.013009 angstrom
           Maximum rank =  0   Radius =  0.650 angstrom
                   Q00  =  -0.240262

H          x =  2.421423  y =  0.880161  z = -0.432009 angstrom
           Maximum rank =  0   Radius =  0.325 angstrom
                   Q00  =   0.050482

H          x =  3.518423  y =  2.243161  z = -0.713009 angstrom
           Maximum rank =  0   Radius =  0.325 angstrom
                   Q00  =   0.059681

H          x =  1.005423  y =  2.206161  z = -1.679009 angstrom
           Maximum rank =  0   Radius =  0.325 angstrom
                   Q00  =   0.084514

H          x =  2.370423  y =  2.937161  z = -2.573009 angstrom
           Maximum rank =  0   Radius =  0.325 angstrom
                   Q00  =   0.080096

H          x =  4.834423  y =  1.024161  z = -2.146009 angstrom
           Maximum rank =  0   Radius =  0.325 angstrom
                   Q00  =   0.088522

H          x =  1.881543  y =  1.263661  z = -2.953343 angstrom
           Maximum rank =  0   Radius =  0.325 angstrom
                   Q00  =   0.050287

H          x =  3.352903  y =  0.439241  z = -2.982226 angstrom
           Maximum rank =  0   Radius =  0.325 angstrom
                   Q00  =   0.068988

H          x =  3.977533  y = -0.437879  z = -1.530983 angstrom
           Maximum rank =  0   Radius =  0.325 angstrom
                   Q00  =   0.085851

Total multipoles referred to origin at
           x =   0.000000,  y =    0.000000,  z =    0.000000 angstrom
                   Q00  =  -0.000000

Finished at 3:24:40 on 27 Apr 2020

  DMA results are available in the Python driver through the
	  variable('DMA DISTRIBUTED MULTIPOLES')
  and
	  variable('DMA TOTAL MULTIPOLES')
  commands.

    Psi4 stopped on: Monday, 27 April 2020 03:24AM
    Psi4 wall time for execution: 0:02:58.12

*** Psi4 exiting successfully. Buy a developer a beer!
