                               Psi4 1.3.2 release

  ==> Input File <==

--------------------------------------------------------------------------
import numpy as np
set {scf_type pk
basis cc-pvdz
d_convergence 10
gdma_switch   0
gdma_limit    0
gdma_origin   [ 0.0,  0.0,  0.0 ]
}
molecule test {
    units Angstrom
    0 1
    --
    0 1
    C                2.341070847779510    -0.196065547365029     0.500275085107969
    C                2.378070847779509    -0.231065547365029     2.023275085107969
    H                1.899070847779510    -1.111065547365029     0.105275085107969
    H                1.742070847779510     0.654934452634971     0.177275085107969
    H                3.350070847779509    -0.081065547365029     0.104275085107969
    H                1.363070847779510    -0.379065547365029     2.389275085107970
    H                2.739070847779510     0.738934452634971     2.362275085107970
    H                3.020820847779510    -1.044315547365029     2.391375085107970
    C               -1.022929152220490     0.159934452634971    -1.032724914892031
    C               -2.264929152220490     0.519934452634971    -1.845724914892031
    O               -1.378929152220490    -0.197065547365029     0.293275085107969
    H               -0.519929152220490    -0.683065547365029    -1.510724914892031
    H               -0.337929152220490     1.007934452634971    -1.007724914892031
    H               -2.935929152220490    -0.341065547365029    -1.845724914892031
    H               -0.694929152220490    -0.778065547365029     0.654275085107969
    H               -2.000419152220490     0.770954452634971    -2.883524914892031
    H               -2.782479152220490     1.363218452634971    -1.365084914892031

}
e, wfn = energy('scf', return_wfn=True)
gdma(wfn)
dmavals = variable('DMA DISTRIBUTED MULTIPOLES')
charges = np.array(dmavals)
print(charges)
np.save('SSI-090ILE-107SER-1-dimer.npy', np.array(charges))--------------------------------------------------------------------------

*** tstart() called on ds3
*** at Tue Apr 28 10:50:19 2020

   => Loading Basis Set <=

    Name: CC-PVDZ
    Role: ORBITAL
    Keyword: BASIS
    atoms 1-2, 9-10  entry C          line   138 file /theoryfs2/ds/metcalf/miniconda2/envs/tf2gpu/share/psi4/basis/cc-pvdz.gbs
    atoms 3-8, 12-17 entry H          line    22 file /theoryfs2/ds/metcalf/miniconda2/envs/tf2gpu/share/psi4/basis/cc-pvdz.gbs
    atoms 11         entry O          line   198 file /theoryfs2/ds/metcalf/miniconda2/envs/tf2gpu/share/psi4/basis/cc-pvdz.gbs

         ---------------------------------------------------------
                                   SCF
               by Justin Turney, Rob Parrish, Andy Simmonett
                          and Daniel G. A. Smith
                              RHF Reference
                        1 Threads,    500 MiB Core
         ---------------------------------------------------------

  ==> Geometry <==

    Molecular point group: c1
    Full point group: C1

    Geometry (in Angstrom), charge = 0, multiplicity = 1:

       Center              X                  Y                   Z               Mass
    ------------   -----------------  -----------------  -----------------  -----------------
         C            2.341070847780    -0.196065547365     0.500275085108    12.000000000000
         C            2.378070847780    -0.231065547365     2.023275085108    12.000000000000
         H            1.899070847780    -1.111065547365     0.105275085108     1.007825032230
         H            1.742070847780     0.654934452635     0.177275085108     1.007825032230
         H            3.350070847780    -0.081065547365     0.104275085108     1.007825032230
         H            1.363070847780    -0.379065547365     2.389275085108     1.007825032230
         H            2.739070847780     0.738934452635     2.362275085108     1.007825032230
         H            3.020820847780    -1.044315547365     2.391375085108     1.007825032230
         C           -1.022929152220     0.159934452635    -1.032724914892    12.000000000000
         C           -2.264929152220     0.519934452635    -1.845724914892    12.000000000000
         O           -1.378929152220    -0.197065547365     0.293275085108    15.994914619570
         H           -0.519929152220    -0.683065547365    -1.510724914892     1.007825032230
         H           -0.337929152220     1.007934452635    -1.007724914892     1.007825032230
         H           -2.935929152220    -0.341065547365    -1.845724914892     1.007825032230
         H           -0.694929152220    -0.778065547365     0.654275085108     1.007825032230
         H           -2.000419152220     0.770954452635    -2.883524914892     1.007825032230
         H           -2.782479152220     1.363218452635    -1.365084914892     1.007825032230

  Running in c1 symmetry.

  Rotational constants: A =      0.34441  B =      0.04106  C =      0.03801 [cm^-1]
  Rotational constants: A =  10325.06969  B =   1231.06963  C =   1139.65808 [MHz]
  Nuclear repulsion =  179.988973402610810

  Charge       = 0
  Multiplicity = 1
  Electrons    = 44
  Nalpha       = 22
  Nbeta        = 22

  ==> Algorithm <==

  SCF Algorithm Type is PK.
  DIIS enabled.
  MOM disabled.
  Fractional occupation disabled.
  Guess Type is SAD.
  Energy threshold   = 1.00e-06
  Density threshold  = 1.00e-10
  Integral threshold = 0.00e+00

  ==> Primary Basis <==

  Basis Set: CC-PVDZ
    Blend: CC-PVDZ
    Number of shells: 66
    Number of basis function: 130
    Number of Cartesian functions: 135
    Spherical Harmonics?: true
    Max angular momentum: 2

  ==> Pre-Iterations <==

   -------------------------------------------------------
    Irrep   Nso     Nmo     Nalpha   Nbeta   Ndocc  Nsocc
   -------------------------------------------------------
     A        130     130       0       0       0       0
   -------------------------------------------------------
    Total     130     130      22      22      22       0
   -------------------------------------------------------

  ==> Integral Setup <==

  Using integral reordering PK algorithm.
  Sizing the integral batches needed.
  Building batch lookup table.
   Calculation information:
      Number of atoms:                  17
      Number of AO shells:              66
      Number of primitives:            170
      Number of atomic orbitals:       135
      Number of basis functions:       130

      Integral cutoff                 1.00e-12
      Number of threads:                 1

	Batch   1 pq = [       0,    8515] index = [             0,36256870] size =     36256870
  Task number: 4
  Buffer size: 11059200
  Buffer per thread: 2
  We computed 1987745 shell quartets total.
  Whereas there are 2445366 unique shell quartets.

  ==> DiskJK: Disk-Based J/K Matrices <==

    J tasked:                  Yes
    K tasked:                  Yes
    wK tasked:                  No
    Memory [MiB]:              375
    Schwarz Cutoff:          1E-12

    OpenMP threads:              1

  Minimum eigenvalue in the overlap matrix is 5.7320461988E-03.
  Using Symmetric Orthogonalization.

  SCF Guess: Superposition of Atomic Densities via on-the-fly atomic UHF.

  ==> Iterations <==

                        Total Energy        Delta E     RMS |[F,P]|

   @RHF iter SAD:  -232.08683397868242   -2.32087e+02   0.00000e+00
   @RHF iter   1:  -233.14220398511151   -1.05537e+00   4.23058e-03 DIIS
   @RHF iter   2:  -233.29161234321776   -1.49408e-01   1.99128e-03 DIIS
   @RHF iter   3:  -233.32132704378000   -2.97147e-02   3.83972e-04 DIIS
   @RHF iter   4:  -233.32341944705354   -2.09240e-03   1.24579e-04 DIIS
   @RHF iter   5:  -233.32356155449554   -1.42107e-04   2.36139e-05 DIIS
   @RHF iter   6:  -233.32356942050225   -7.86601e-06   3.92049e-06 DIIS
   @RHF iter   7:  -233.32356971146334   -2.90961e-07   9.62269e-07 DIIS
   @RHF iter   8:  -233.32356972619243   -1.47291e-08   3.14601e-07 DIIS
   @RHF iter   9:  -233.32356972791177   -1.71934e-09   7.60702e-08 DIIS
   @RHF iter  10:  -233.32356972805013   -1.38357e-10   1.39257e-08 DIIS
   @RHF iter  11:  -233.32356972805519   -5.05906e-12   3.57881e-09 DIIS
   @RHF iter  12:  -233.32356972805545   -2.55795e-13   1.22061e-09 DIIS
   @RHF iter  13:  -233.32356972805599   -5.40012e-13   3.04540e-10 DIIS
   @RHF iter  14:  -233.32356972805559    3.97904e-13   8.15072e-11 DIIS
  Energy and wave function converged.

  ==> Post-Iterations <==

    Orbital Energies [Eh]
    ---------------------

    Doubly Occupied:

       1A    -20.547382     2A    -11.274160     3A    -11.224244
       4A    -11.223641     5A    -11.220419     6A     -1.349501
       7A     -1.028045     8A     -1.006274     9A     -0.843642
      10A     -0.830304    11A     -0.691088    12A     -0.639768
      13A     -0.609130    14A     -0.605534    15A     -0.562533
      16A     -0.538997    17A     -0.520436    18A     -0.506060
      19A     -0.494532    20A     -0.492578    21A     -0.473414
      22A     -0.433267

    Virtual:

      23A      0.156672    24A      0.198222    25A      0.211684
      26A      0.221039    27A      0.233505    28A      0.257485
      29A      0.263385    30A      0.266294    31A      0.279751
      32A      0.296255    33A      0.320972    34A      0.349324
      35A      0.382286    36A      0.388414    37A      0.406473
      38A      0.568988    39A      0.593355    40A      0.608643
      41A      0.617419    42A      0.621058    43A      0.663620
      44A      0.676141    45A      0.731294    46A      0.752980
      47A      0.770151    48A      0.830519    49A      0.841676
      50A      0.874441    51A      0.879681    52A      0.884487
      53A      0.891485    54A      0.893411    55A      0.895877
      56A      0.907891    57A      0.922161    58A      0.938913
      59A      0.941701    60A      0.951166    61A      0.987548
      62A      1.118578    63A      1.131886    64A      1.137702
      65A      1.154918    66A      1.174316    67A      1.243904
      68A      1.297685    69A      1.343274    70A      1.438779
      71A      1.466467    72A      1.483142    73A      1.490700
      74A      1.521361    75A      1.538889    76A      1.584479
      77A      1.641630    78A      1.673984    79A      1.682661
      80A      1.691559    81A      1.767640    82A      1.845213
      83A      1.859301    84A      1.867470    85A      1.882434
      86A      1.896895    87A      1.908459    88A      1.927310
      89A      1.938628    90A      1.944749    91A      1.952227
      92A      1.954834    93A      1.967937    94A      1.977480
      95A      1.980682    96A      1.990911    97A      2.055604
      98A      2.102852    99A      2.113595   100A      2.118396
     101A      2.191078   102A      2.253444   103A      2.278735
     104A      2.287536   105A      2.302451   106A      2.329469
     107A      2.456905   108A      2.470165   109A      2.483299
     110A      2.524868   111A      2.528023   112A      2.563013
     113A      2.567545   114A      2.578589   115A      2.755511
     116A      2.765368   117A      2.774481   118A      2.790400
     119A      2.807799   120A      2.842168   121A      2.850193
     122A      2.874442   123A      2.936229   124A      2.963507
     125A      2.967129   126A      3.324178   127A      3.418175
     128A      3.462448   129A      3.620171   130A      4.125654

    Final Occupation by Irrep:
              A
    DOCC [    22 ]

  @RHF Final Energy:  -233.32356972805559

   => Energetics <=

    Nuclear Repulsion Energy =            179.9889734026108101
    One-Electron Energy =                -672.3951913088080801
    Two-Electron Energy =                 259.0826481781417101
    Total Energy =                       -233.3235697280555883

Computation Completed

Properties will be evaluated at   0.000000,   0.000000,   0.000000 [a0]

Properties computed using the SCF density matrix

  Nuclear Dipole Moment: [e a0]
     X:     4.5331      Y:     0.1099      Z:    -0.4005

  Electronic Dipole Moment: [e a0]
     X:    -3.9534      Y:    -0.3038      Z:     0.0927

  Dipole Moment: [e a0]
     X:     0.5797      Y:    -0.1939      Z:    -0.3078     Total:     0.6844

  Dipole Moment: [D]
     X:     1.4736      Y:    -0.4927      Z:    -0.7824     Total:     1.7396

*** tstop() called on ds3 at Tue Apr 28 10:50:46 2020
Module time:
	user time   =      11.04 seconds =       0.18 minutes
	system time =       4.25 seconds =       0.07 minutes
	total time  =         27 seconds =       0.45 minutes
Total time:
	user time   =      11.04 seconds =       0.18 minutes
	system time =       4.25 seconds =       0.07 minutes
	total time  =         27 seconds =       0.45 minutes
                                     G D M A

                                 by Anthony Stone

                           version 2.2.06, 22 June 2011

               Distributed Multipoles from Gaussian wavefunctions

Starting at 10:50:46 on 28 Apr 2020

Using SCF density matrix from file ./SSI/SSI-090ILE-107SER-1-dimer.test.18545.fchk

                         Distributed Multipole Analysis

Standard DMA

Positions and radii in angstrom
Multipole moments in atomic units, ea_0^k for rank k

C          x =  2.341071  y = -0.196066  z =  0.500275 angstrom
           Maximum rank =  0   Radius =  0.650 angstrom
                   Q00  =  -0.240549

C          x =  2.378071  y = -0.231066  z =  2.023275 angstrom
           Maximum rank =  0   Radius =  0.650 angstrom
                   Q00  =  -0.229679

H          x =  1.899071  y = -1.111066  z =  0.105275 angstrom
           Maximum rank =  0   Radius =  0.325 angstrom
                   Q00  =   0.066954

H          x =  1.742071  y =  0.654934  z =  0.177275 angstrom
           Maximum rank =  0   Radius =  0.325 angstrom
                   Q00  =   0.081689

H          x =  3.350071  y = -0.081066  z =  0.104275 angstrom
           Maximum rank =  0   Radius =  0.325 angstrom
                   Q00  =   0.083982

H          x =  1.363071  y = -0.379066  z =  2.389275 angstrom
           Maximum rank =  0   Radius =  0.325 angstrom
                   Q00  =   0.071262

H          x =  2.739071  y =  0.738934  z =  2.362275 angstrom
           Maximum rank =  0   Radius =  0.325 angstrom
                   Q00  =   0.083652

H          x =  3.020821  y = -1.044316  z =  2.391375 angstrom
           Maximum rank =  0   Radius =  0.325 angstrom
                   Q00  =   0.081265

C          x = -1.022929  y =  0.159934  z = -1.032725 angstrom
           Maximum rank =  0   Radius =  0.650 angstrom
                   Q00  =   0.110524

C          x = -2.264929  y =  0.519934  z = -1.845725 angstrom
           Maximum rank =  0   Radius =  0.650 angstrom
                   Q00  =  -0.248266

O          x = -1.378929  y = -0.197066  z =  0.293275 angstrom
           Maximum rank =  0   Radius =  0.650 angstrom
                   Q00  =  -0.601955

H          x = -0.519929  y = -0.683066  z = -1.510725 angstrom
           Maximum rank =  0   Radius =  0.325 angstrom
                   Q00  =   0.037228

H          x = -0.337929  y =  1.007934  z = -1.007725 angstrom
           Maximum rank =  0   Radius =  0.325 angstrom
                   Q00  =   0.039753

H          x = -2.935929  y = -0.341066  z = -1.845725 angstrom
           Maximum rank =  0   Radius =  0.325 angstrom
                   Q00  =   0.088594

H          x = -0.694929  y = -0.778066  z =  0.654275 angstrom
           Maximum rank =  0   Radius =  0.325 angstrom
                   Q00  =   0.398606

H          x = -2.000419  y =  0.770954  z = -2.883525 angstrom
           Maximum rank =  0   Radius =  0.325 angstrom
                   Q00  =   0.085349

H          x = -2.782479  y =  1.363218  z = -1.365085 angstrom
           Maximum rank =  0   Radius =  0.325 angstrom
                   Q00  =   0.091589

Total multipoles referred to origin at
           x =   0.000000,  y =    0.000000,  z =    0.000000 angstrom
                   Q00  =  -0.000000

Finished at 10:50:46 on 28 Apr 2020

  DMA results are available in the Python driver through the
	  variable('DMA DISTRIBUTED MULTIPOLES')
  and
	  variable('DMA TOTAL MULTIPOLES')
  commands.

    Psi4 stopped on: Tuesday, 28 April 2020 10:50AM
    Psi4 wall time for execution: 0:00:26.66

*** Psi4 exiting successfully. Buy a developer a beer!
