                               Psi4 1.3.2 release

  ==> Input File <==

--------------------------------------------------------------------------
import numpy as np
set {scf_type pk
basis cc-pvdz
d_convergence 10
gdma_switch   0
gdma_limit    0
gdma_origin   [ 0.0,  0.0,  0.0 ]
}
molecule test {
    units Angstrom
    0 1
    --
    0 1
    C               -1.173024003996865    -2.850435468601926     1.278142098740181
    C               -1.789024003996865    -1.623435468601926     0.611142098740181
    O               -1.042024003996865    -0.726435468601926     0.159142098740181
    O               -3.035024003996865    -1.568435468601926     0.528142098740181
    H               -1.335024003996865    -3.710435468601926     0.625142098740181
    H               -1.689024003996865    -3.053435468601926     2.217142098740181
    H               -0.091114003996865    -2.768805468601926     1.459292098740181
    C                2.734975996003135    -0.133435468601926    -0.448857901259819
    C                1.072975996003135     1.710564531398074    -0.521857901259819
    N                1.391975996003135     0.442564531398074    -0.311857901259819
    N                1.991975996003135     2.583564531398074    -0.884857901259819
    N               -0.177024003996865     2.100564531398074    -0.377857901259819
    H                0.603975996003135    -0.177435468601926    -0.105857901259819
    H                2.955975996003135     2.315564531398074    -1.000857901259819
    H                1.722975996003135     3.533564531398074    -1.092857901259819
    H               -0.861024003996865     1.383564531398074    -0.138857901259819
    H               -0.461024003996865     3.056564531398074    -0.524857901259819
    H                2.723975996003135    -1.127435468601926     0.004142098740181
    H                3.469975996003135     0.465564531398074     0.092142098740181
    H                3.035825996003135    -0.237075468601926    -1.501827901259819

}
e, wfn = energy('scf', return_wfn=True)
gdma(wfn)
dmavals = variable('DMA DISTRIBUTED MULTIPOLES')
charges = np.array(dmavals)
print(charges)
np.save('SSI-024GLU-054ARG-1-dimer.npy', np.array(charges))--------------------------------------------------------------------------

*** tstart() called on ds3
*** at Mon Apr 27 22:29:19 2020

   => Loading Basis Set <=

    Name: CC-PVDZ
    Role: ORBITAL
    Keyword: BASIS
    atoms 1-2, 8-9   entry C          line   138 file /theoryfs2/ds/metcalf/miniconda2/envs/tf2gpu/share/psi4/basis/cc-pvdz.gbs
    atoms 3-4        entry O          line   198 file /theoryfs2/ds/metcalf/miniconda2/envs/tf2gpu/share/psi4/basis/cc-pvdz.gbs
    atoms 5-7, 13-20 entry H          line    22 file /theoryfs2/ds/metcalf/miniconda2/envs/tf2gpu/share/psi4/basis/cc-pvdz.gbs
    atoms 10-12      entry N          line   168 file /theoryfs2/ds/metcalf/miniconda2/envs/tf2gpu/share/psi4/basis/cc-pvdz.gbs

         ---------------------------------------------------------
                                   SCF
               by Justin Turney, Rob Parrish, Andy Simmonett
                          and Daniel G. A. Smith
                              RHF Reference
                        1 Threads,    500 MiB Core
         ---------------------------------------------------------

  ==> Geometry <==

    Molecular point group: c1
    Full point group: C1

    Geometry (in Angstrom), charge = 0, multiplicity = 1:

       Center              X                  Y                   Z               Mass
    ------------   -----------------  -----------------  -----------------  -----------------
         C           -1.173024003997    -2.850435468602     1.278142098740    12.000000000000
         C           -1.789024003997    -1.623435468602     0.611142098740    12.000000000000
         O           -1.042024003997    -0.726435468602     0.159142098740    15.994914619570
         O           -3.035024003997    -1.568435468602     0.528142098740    15.994914619570
         H           -1.335024003997    -3.710435468602     0.625142098740     1.007825032230
         H           -1.689024003997    -3.053435468602     2.217142098740     1.007825032230
         H           -0.091114003997    -2.768805468602     1.459292098740     1.007825032230
         C            2.734975996003    -0.133435468602    -0.448857901260    12.000000000000
         C            1.072975996003     1.710564531398    -0.521857901260    12.000000000000
         N            1.391975996003     0.442564531398    -0.311857901260    14.003074004430
         N            1.991975996003     2.583564531398    -0.884857901260    14.003074004430
         N           -0.177024003997     2.100564531398    -0.377857901260    14.003074004430
         H            0.603975996003    -0.177435468602    -0.105857901260     1.007825032230
         H            2.955975996003     2.315564531398    -1.000857901260     1.007825032230
         H            1.722975996003     3.533564531398    -1.092857901260     1.007825032230
         H           -0.861024003997     1.383564531398    -0.138857901260     1.007825032230
         H           -0.461024003997     3.056564531398    -0.524857901260     1.007825032230
         H            2.723975996003    -1.127435468602     0.004142098740     1.007825032230
         H            3.469975996003     0.465564531398     0.092142098740     1.007825032230
         H            3.035825996003    -0.237075468602    -1.501827901260     1.007825032230

  Running in c1 symmetry.

  Rotational constants: A =      0.09520  B =      0.02170  C =      0.01795 [cm^-1]
  Rotational constants: A =   2854.14109  B =    650.58378  C =    538.18785 [MHz]
  Nuclear repulsion =  454.726210422434974

  Charge       = 0
  Multiplicity = 1
  Electrons    = 72
  Nalpha       = 36
  Nbeta        = 36

  ==> Algorithm <==

  SCF Algorithm Type is PK.
  DIIS enabled.
  MOM disabled.
  Fractional occupation disabled.
  Guess Type is SAD.
  Energy threshold   = 1.00e-06
  Density threshold  = 1.00e-10
  Integral threshold = 0.00e+00

  ==> Primary Basis <==

  Basis Set: CC-PVDZ
    Blend: CC-PVDZ
    Number of shells: 87
    Number of basis function: 181
    Number of Cartesian functions: 190
    Spherical Harmonics?: true
    Max angular momentum: 2

  ==> Pre-Iterations <==

   -------------------------------------------------------
    Irrep   Nso     Nmo     Nalpha   Nbeta   Ndocc  Nsocc
   -------------------------------------------------------
     A        181     181       0       0       0       0
   -------------------------------------------------------
    Total     181     181      36      36      36       0
   -------------------------------------------------------

  ==> Integral Setup <==

  Using integral reordering PK algorithm.
  Sizing the integral batches needed.
  Building batch lookup table.
   Calculation information:
      Number of atoms:                  20
      Number of AO shells:              87
      Number of primitives:            253
      Number of atomic orbitals:       190
      Number of basis functions:       181

      Integral cutoff                 1.00e-12
      Number of threads:                 1

	Batch   1 pq = [       0,    9405] index = [             0,44231715] size =     44231715
	Batch   2 pq = [    9405,   13301] index = [      44231715,88464951] size =     44233236
	Batch   3 pq = [   13301,   16471] index = [      88464951,135655156] size =     47190205
  Task number: 13
  Buffer size: 11059200
  Buffer per thread: 2
  We computed 5806616 shell quartets total.
  Whereas there are 7328706 unique shell quartets.

  ==> DiskJK: Disk-Based J/K Matrices <==

    J tasked:                  Yes
    K tasked:                  Yes
    wK tasked:                  No
    Memory [MiB]:              375
    Schwarz Cutoff:          1E-12

    OpenMP threads:              1

  Minimum eigenvalue in the overlap matrix is 3.8427811874E-03.
  Using Symmetric Orthogonalization.

  SCF Guess: Superposition of Atomic Densities via on-the-fly atomic UHF.

  ==> Iterations <==

                        Total Energy        Delta E     RMS |[F,P]|

   @RHF iter SAD:  -469.69337207462121   -4.69693e+02   0.00000e+00
   @RHF iter   1:  -470.70471449160806   -1.01134e+00   4.21258e-03 DIIS
   @RHF iter   2:  -470.92764278197728   -2.22928e-01   2.22433e-03 DIIS
   @RHF iter   3:  -470.98628559277120   -5.86428e-02   4.03944e-04 DIIS
   @RHF iter   4:  -470.98961314695742   -3.32755e-03   1.51697e-04 DIIS
   @RHF iter   5:  -470.99005739686180   -4.44250e-04   3.11468e-05 DIIS
   @RHF iter   6:  -470.99008321168560   -2.58148e-05   1.61592e-05 DIIS
   @RHF iter   7:  -470.99008876281567   -5.55113e-06   4.15483e-06 DIIS
   @RHF iter   8:  -470.99008959418160   -8.31366e-07   1.90673e-06 DIIS
   @RHF iter   9:  -470.99008973726200   -1.43080e-07   6.77875e-07 DIIS
   @RHF iter  10:  -470.99008976143188   -2.41699e-08   2.20037e-07 DIIS
   @RHF iter  11:  -470.99008976357362   -2.14175e-09   5.69510e-08 DIIS
   @RHF iter  12:  -470.99008976368140   -1.07775e-10   2.06650e-08 DIIS
   @RHF iter  13:  -470.99008976369100   -9.60654e-12   5.24819e-09 DIIS
   @RHF iter  14:  -470.99008976369453   -3.52429e-12   1.31554e-09 DIIS
   @RHF iter  15:  -470.99008976369566   -1.13687e-12   5.02930e-10 DIIS
   @RHF iter  16:  -470.99008976369305    2.61480e-12   1.72089e-10 DIIS
   @RHF iter  17:  -470.99008976369333   -2.84217e-13   8.21539e-11 DIIS
  Energy and wave function converged.

  ==> Post-Iterations <==

    Orbital Energies [Eh]
    ---------------------

    Doubly Occupied:

       1A    -20.428978     2A    -20.394634     3A    -15.660540
       4A    -15.630952     5A    -15.618870     6A    -11.440888
       7A    -11.315530     8A    -11.261764     9A    -11.170590
      10A     -1.399781    11A     -1.302233    12A     -1.255202
      13A     -1.243572    14A     -1.184889    15A     -1.004659
      16A     -0.918801    17A     -0.896058    18A     -0.830639
      19A     -0.798349    20A     -0.719033    21A     -0.708997
      22A     -0.683308    23A     -0.659244    24A     -0.635197
      25A     -0.613597    26A     -0.592713    27A     -0.546490
      28A     -0.536852    29A     -0.534033    30A     -0.481666
      31A     -0.477576    32A     -0.447221    33A     -0.431511
      34A     -0.340987    35A     -0.312088    36A     -0.311686

    Virtual:

      37A      0.113317    38A      0.144554    39A      0.166829
      40A      0.188745    41A      0.194710    42A      0.219776
      43A      0.236547    44A      0.258025    45A      0.278841
      46A      0.284347    47A      0.301545    48A      0.324172
      49A      0.358019    50A      0.385565    51A      0.426824
      52A      0.454164    53A      0.475434    54A      0.479130
      55A      0.568758    56A      0.582958    57A      0.588258
      58A      0.619094    59A      0.650327    60A      0.659827
      61A      0.664837    62A      0.673658    63A      0.692605
      64A      0.699640    65A      0.712418    66A      0.771640
      67A      0.805938    68A      0.807767    69A      0.816817
      70A      0.818842    71A      0.833006    72A      0.854997
      73A      0.870316    74A      0.884129    75A      0.900150
      76A      0.923371    77A      0.928520    78A      0.938307
      79A      0.946708    80A      0.967606    81A      0.973757
      82A      1.007874    83A      1.039543    84A      1.059126
      85A      1.068672    86A      1.094160    87A      1.112484
      88A      1.147444    89A      1.196478    90A      1.221956
      91A      1.229567    92A      1.245776    93A      1.261700
      94A      1.277408    95A      1.323470    96A      1.333480
      97A      1.356462    98A      1.390979    99A      1.411919
     100A      1.436315   101A      1.462237   102A      1.480096
     103A      1.515465   104A      1.542330   105A      1.565938
     106A      1.592272   107A      1.596800   108A      1.608955
     109A      1.623989   110A      1.660900   111A      1.680511
     112A      1.708987   113A      1.725025   114A      1.732415
     115A      1.787056   116A      1.813826   117A      1.852446
     118A      1.858561   119A      1.879325   120A      1.882859
     121A      1.908651   122A      1.922388   123A      1.949008
     124A      1.956226   125A      1.967880   126A      1.975524
     127A      1.984442   128A      1.990657   129A      2.027884
     130A      2.031754   131A      2.086774   132A      2.129531
     133A      2.167603   134A      2.174016   135A      2.192777
     136A      2.224898   137A      2.260346   138A      2.263857
     139A      2.293036   140A      2.309562   141A      2.357707
     142A      2.396142   143A      2.397361   144A      2.442605
     145A      2.450350   146A      2.463010   147A      2.472761
     148A      2.530859   149A      2.572549   150A      2.593135
     151A      2.599748   152A      2.611439   153A      2.650444
     154A      2.705706   155A      2.712552   156A      2.728359
     157A      2.781730   158A      2.814212   159A      2.848677
     160A      2.868841   161A      2.881347   162A      2.910603
     163A      2.941877   164A      2.968899   165A      2.976048
     166A      3.043014   167A      3.087700   168A      3.131529
     169A      3.146950   170A      3.206039   171A      3.218987
     172A      3.263815   173A      3.304058   174A      3.481233
     175A      3.632794   176A      3.675684   177A      3.753034
     178A      3.791896   179A      3.937006   180A      3.990875
     181A      4.064772

    Final Occupation by Irrep:
              A
    DOCC [    36 ]

  @RHF Final Energy:  -470.99008976369333

   => Energetics <=

    Nuclear Repulsion Energy =            454.7262104224349741
    One-Electron Energy =               -1545.8543475201213369
    Two-Electron Energy =                 620.1380473339929722
    Total Energy =                       -470.9900897636932768

Computation Completed

Properties will be evaluated at   0.000000,   0.000000,   0.000000 [a0]

Properties computed using the SCF density matrix

  Nuclear Dipole Moment: [e a0]
     X:     9.4166      Y:    -0.3257      Z:     0.0386

  Electronic Dipole Moment: [e a0]
     X:    -4.4895      Y:     4.0939      Z:    -1.2118

  Dipole Moment: [e a0]
     X:     4.9271      Y:     3.7682      Z:    -1.1732     Total:     6.3128

  Dipole Moment: [D]
     X:    12.5234      Y:     9.5777      Z:    -2.9820     Total:    16.0456

*** tstop() called on ds3 at Mon Apr 27 22:30:28 2020
Module time:
	user time   =      49.51 seconds =       0.83 minutes
	system time =      23.49 seconds =       0.39 minutes
	total time  =         69 seconds =       1.15 minutes
Total time:
	user time   =      49.51 seconds =       0.83 minutes
	system time =      23.49 seconds =       0.39 minutes
	total time  =         69 seconds =       1.15 minutes
                                     G D M A

                                 by Anthony Stone

                           version 2.2.06, 22 June 2011

               Distributed Multipoles from Gaussian wavefunctions

Starting at 22:30:28 on 27 Apr 2020

Using SCF density matrix from file ./SSI/SSI-024GLU-054ARG-1-dimer.test.30970.fchk

                         Distributed Multipole Analysis

Standard DMA

Positions and radii in angstrom
Multipole moments in atomic units, ea_0^k for rank k

C          x = -1.173024  y = -2.850435  z =  1.278142 angstrom
           Maximum rank =  0   Radius =  0.650 angstrom
                   Q00  =  -0.289267

C          x = -1.789024  y = -1.623435  z =  0.611142 angstrom
           Maximum rank =  0   Radius =  0.650 angstrom
                   Q00  =   0.909995

O          x = -1.042024  y = -0.726435  z =  0.159142 angstrom
           Maximum rank =  0   Radius =  0.650 angstrom
                   Q00  =  -0.973540

O          x = -3.035024  y = -1.568435  z =  0.528142 angstrom
           Maximum rank =  0   Radius =  0.650 angstrom
                   Q00  =  -0.860982

H          x = -1.335024  y = -3.710435  z =  0.625142 angstrom
           Maximum rank =  0   Radius =  0.325 angstrom
                   Q00  =   0.104877

H          x = -1.689024  y = -3.053435  z =  2.217142 angstrom
           Maximum rank =  0   Radius =  0.325 angstrom
                   Q00  =   0.101524

H          x = -0.091114  y = -2.768805  z =  1.459292 angstrom
           Maximum rank =  0   Radius =  0.325 angstrom
                   Q00  =   0.048466

C          x =  2.734976  y = -0.133435  z = -0.448858 angstrom
           Maximum rank =  0   Radius =  0.650 angstrom
                   Q00  =  -0.112673

C          x =  1.072976  y =  1.710565  z = -0.521858 angstrom
           Maximum rank =  0   Radius =  0.650 angstrom
                   Q00  =   1.073111

N          x =  1.391976  y =  0.442565  z = -0.311858 angstrom
           Maximum rank =  0   Radius =  0.650 angstrom
                   Q00  =  -0.526932

N          x =  1.991976  y =  2.583565  z = -0.884858 angstrom
           Maximum rank =  0   Radius =  0.650 angstrom
                   Q00  =  -0.582691

N          x = -0.177024  y =  2.100565  z = -0.377858 angstrom
           Maximum rank =  0   Radius =  0.650 angstrom
                   Q00  =  -0.574651

H          x =  0.603976  y = -0.177435  z = -0.105858 angstrom
           Maximum rank =  0   Radius =  0.325 angstrom
                   Q00  =   0.325543

H          x =  2.955976  y =  2.315565  z = -1.000858 angstrom
           Maximum rank =  0   Radius =  0.325 angstrom
                   Q00  =   0.249809

H          x =  1.722976  y =  3.533565  z = -1.092858 angstrom
           Maximum rank =  0   Radius =  0.325 angstrom
                   Q00  =   0.237212

H          x = -0.861024  y =  1.383565  z = -0.138858 angstrom
           Maximum rank =  0   Radius =  0.325 angstrom
                   Q00  =   0.294181

H          x = -0.461024  y =  3.056565  z = -0.524858 angstrom
           Maximum rank =  0   Radius =  0.325 angstrom
                   Q00  =   0.235672

H          x =  2.723976  y = -1.127435  z =  0.004142 angstrom
           Maximum rank =  0   Radius =  0.325 angstrom
                   Q00  =   0.158259

H          x =  3.469976  y =  0.465565  z =  0.092142 angstrom
           Maximum rank =  0   Radius =  0.325 angstrom
                   Q00  =   0.085486

H          x =  3.035826  y = -0.237075  z = -1.501828 angstrom
           Maximum rank =  0   Radius =  0.325 angstrom
                   Q00  =   0.096601

Total multipoles referred to origin at
           x =   0.000000,  y =    0.000000,  z =    0.000000 angstrom
                   Q00  =  -0.000000

Finished at 22:30:29 on 27 Apr 2020

  DMA results are available in the Python driver through the
	  variable('DMA DISTRIBUTED MULTIPOLES')
  and
	  variable('DMA TOTAL MULTIPOLES')
  commands.

    Psi4 stopped on: Monday, 27 April 2020 10:30PM
    Psi4 wall time for execution: 0:01:09.62

*** Psi4 exiting successfully. Buy a developer a beer!
