                               Psi4 1.3.2 release

  ==> Input File <==

--------------------------------------------------------------------------
import numpy as np
set {scf_type pk
basis cc-pvdz
d_convergence 10
gdma_switch   0
gdma_limit    0
gdma_origin   [ 0.0,  0.0,  0.0 ]
}
molecule test {
    units Angstrom
    0 1
    --
    0 1
    C               -1.494557393146799     0.552528906709322    -0.408183055627271
    C               -2.711557393146799     1.440528906709322    -0.532183055627271
    H               -1.709557393146799    -0.291471093290678     0.245816944372729
    H               -1.218557393146799     0.171528906709322    -1.392183055627271
    H               -0.654557393146799     1.118528906709322    -0.012183055627271
    H               -2.508557393146799     2.190528906709322    -1.296183055627271
    H               -2.946317393146799     1.943178906709322     0.417676944372729
    H               -3.577917393146799     0.839368906709322    -0.845273055627271
    C                1.465442606853201    -0.687471093290678     0.193816944372729
    C                2.733442606853201    -1.313471093290678     0.756816944372729
    H                1.457442606853201     0.373528906709322     0.436816944372729
    H                1.451442606853201    -0.792471093290678    -0.891183055627271
    H                0.579442606853201    -1.159471093290678     0.607816944372729
    H                3.561442606853201    -0.737471093290678     0.345816944372729
    H                2.785032606853201    -1.213151093290678     1.851016944372729
    H                2.866742606853201    -2.348750093290678     0.409786944372729

}
e, wfn = energy('scf', return_wfn=True)
gdma(wfn)
dmavals = variable('DMA DISTRIBUTED MULTIPOLES')
charges = np.array(dmavals)
print(charges)
np.save('SSI-158VAL-169VAL-1-dimer.npy', np.array(charges))--------------------------------------------------------------------------

*** tstart() called on ds3
*** at Mon Apr 27 07:29:09 2020

   => Loading Basis Set <=

    Name: CC-PVDZ
    Role: ORBITAL
    Keyword: BASIS
    atoms 1-2, 9-10  entry C          line   138 file /theoryfs2/ds/metcalf/miniconda2/envs/tf2gpu/share/psi4/basis/cc-pvdz.gbs
    atoms 3-8, 11-16 entry H          line    22 file /theoryfs2/ds/metcalf/miniconda2/envs/tf2gpu/share/psi4/basis/cc-pvdz.gbs

         ---------------------------------------------------------
                                   SCF
               by Justin Turney, Rob Parrish, Andy Simmonett
                          and Daniel G. A. Smith
                              RHF Reference
                        1 Threads,    500 MiB Core
         ---------------------------------------------------------

  ==> Geometry <==

    Molecular point group: c1
    Full point group: C1

    Geometry (in Angstrom), charge = 0, multiplicity = 1:

       Center              X                  Y                   Z               Mass
    ------------   -----------------  -----------------  -----------------  -----------------
         C           -1.494557393147     0.552528906709    -0.408183055627    12.000000000000
         C           -2.711557393147     1.440528906709    -0.532183055627    12.000000000000
         H           -1.709557393147    -0.291471093291     0.245816944373     1.007825032230
         H           -1.218557393147     0.171528906709    -1.392183055627     1.007825032230
         H           -0.654557393147     1.118528906709    -0.012183055627     1.007825032230
         H           -2.508557393147     2.190528906709    -1.296183055627     1.007825032230
         H           -2.946317393147     1.943178906709     0.417676944373     1.007825032230
         H           -3.577917393147     0.839368906709    -0.845273055627     1.007825032230
         C            1.465442606853    -0.687471093291     0.193816944373    12.000000000000
         C            2.733442606853    -1.313471093291     0.756816944373    12.000000000000
         H            1.457442606853     0.373528906709     0.436816944373     1.007825032230
         H            1.451442606853    -0.792471093291    -0.891183055627     1.007825032230
         H            0.579442606853    -1.159471093291     0.607816944373     1.007825032230
         H            3.561442606853    -0.737471093291     0.345816944373     1.007825032230
         H            2.785032606853    -1.213151093291     1.851016944373     1.007825032230
         H            2.866742606853    -2.348750093291     0.409786944373     1.007825032230

  Running in c1 symmetry.

  Rotational constants: A =      1.19017  B =      0.04355  C =      0.04345 [cm^-1]
  Rotational constants: A =  35680.52783  B =   1305.58848  C =   1302.45598 [MHz]
  Nuclear repulsion =  122.983543604969583

  Charge       = 0
  Multiplicity = 1
  Electrons    = 36
  Nalpha       = 18
  Nbeta        = 18

  ==> Algorithm <==

  SCF Algorithm Type is PK.
  DIIS enabled.
  MOM disabled.
  Fractional occupation disabled.
  Guess Type is SAD.
  Energy threshold   = 1.00e-06
  Density threshold  = 1.00e-10
  Integral threshold = 0.00e+00

  ==> Primary Basis <==

  Basis Set: CC-PVDZ
    Blend: CC-PVDZ
    Number of shells: 60
    Number of basis function: 116
    Number of Cartesian functions: 120
    Spherical Harmonics?: true
    Max angular momentum: 2

  ==> Pre-Iterations <==

   -------------------------------------------------------
    Irrep   Nso     Nmo     Nalpha   Nbeta   Ndocc  Nsocc
   -------------------------------------------------------
     A        116     116       0       0       0       0
   -------------------------------------------------------
    Total     116     116      18      18      18       0
   -------------------------------------------------------

  ==> Integral Setup <==

  Using integral reordering PK algorithm.
  Sizing the integral batches needed.
  Building batch lookup table.
   Calculation information:
      Number of atoms:                  16
      Number of AO shells:              60
      Number of primitives:            148
      Number of atomic orbitals:       120
      Number of basis functions:       116

      Integral cutoff                 1.00e-12
      Number of threads:                 1

	Batch   1 pq = [       0,    6786] index = [             0,23028291] size =     23028291
  Task number: 3
  Buffer size: 11059200
  Buffer per thread: 2
  We computed 1414113 shell quartets total.
  Whereas there are 1675365 unique shell quartets.

  ==> DiskJK: Disk-Based J/K Matrices <==

    J tasked:                  Yes
    K tasked:                  Yes
    wK tasked:                  No
    Memory [MiB]:              375
    Schwarz Cutoff:          1E-12

    OpenMP threads:              1

  Minimum eigenvalue in the overlap matrix is 4.7593473390E-03.
  Using Symmetric Orthogonalization.

  SCF Guess: Superposition of Atomic Densities via on-the-fly atomic UHF.

  ==> Iterations <==

                        Total Energy        Delta E     RMS |[F,P]|

   @RHF iter SAD:  -157.42405161958817   -1.57424e+02   0.00000e+00
   @RHF iter   1:  -158.30099899750471   -8.76947e-01   4.25661e-03 DIIS
   @RHF iter   2:  -158.43747508420736   -1.36476e-01   1.80609e-03 DIIS
   @RHF iter   3:  -158.46113114709348   -2.36561e-02   3.54070e-04 DIIS
   @RHF iter   4:  -158.46299721277381   -1.86607e-03   3.95261e-05 DIIS
   @RHF iter   5:  -158.46302117259364   -2.39598e-05   7.38980e-06 DIIS
   @RHF iter   6:  -158.46302191607785   -7.43484e-07   1.51060e-06 DIIS
   @RHF iter   7:  -158.46302193649723   -2.04194e-08   3.27096e-07 DIIS
   @RHF iter   8:  -158.46302193766167   -1.16444e-09   4.57407e-08 DIIS
   @RHF iter   9:  -158.46302193769935   -3.76872e-11   9.22057e-09 DIIS
   @RHF iter  10:  -158.46302193770038   -1.02318e-12   2.93263e-09 DIIS
   @RHF iter  11:  -158.46302193770106   -6.82121e-13   7.58647e-10 DIIS
   @RHF iter  12:  -158.46302193770128   -2.27374e-13   1.35098e-10 DIIS
   @RHF iter  13:  -158.46302193770111    1.70530e-13   2.82667e-11 DIIS
  Energy and wave function converged.

  ==> Post-Iterations <==

    Orbital Energies [Eh]
    ---------------------

    Doubly Occupied:

       1A    -11.217091     2A    -11.216272     3A    -11.213982
       4A    -11.212909     5A     -1.022576     6A     -1.017868
       7A     -0.841869     8A     -0.827516     9A     -0.603061
      10A     -0.601327    11A     -0.595157    12A     -0.594081
      13A     -0.512381    14A     -0.493135    15A     -0.490998
      16A     -0.485956    17A     -0.476509    18A     -0.475314

    Virtual:

      19A      0.177003    20A      0.195169    21A      0.224708
      22A      0.234629    23A      0.236489    24A      0.266061
      25A      0.267943    26A      0.279189    27A      0.280834
      28A      0.300140    29A      0.320623    30A      0.343930
      31A      0.376434    32A      0.435592    33A      0.565858
      34A      0.594599    35A      0.597611    36A      0.601132
      37A      0.608365    38A      0.649599    39A      0.664498
      40A      0.711874    41A      0.726407    42A      0.769005
      43A      0.862408    44A      0.883065    45A      0.887724
      46A      0.894056    47A      0.894985    48A      0.900000
      49A      0.905501    50A      0.915898    51A      0.920708
      52A      0.931660    53A      0.953360    54A      0.956095
      55A      0.980585    56A      1.034580    57A      1.125748
      58A      1.129154    59A      1.134273    60A      1.152825
      61A      1.199485    62A      1.347535    63A      1.471426
      64A      1.481918    65A      1.486656    66A      1.499373
      67A      1.580423    68A      1.605365    69A      1.679541
      70A      1.682036    71A      1.693913    72A      1.697765
      73A      1.832689    74A      1.842840    75A      1.885959
      76A      1.892376    77A      1.905923    78A      1.919539
      79A      1.934004    80A      1.942247    81A      1.949778
      82A      1.952667    83A      1.965109    84A      1.967877
      85A      1.977297    86A      1.981516    87A      2.056394
      88A      2.075280    89A      2.102525    90A      2.115001
      91A      2.129149    92A      2.133527    93A      2.297627
      94A      2.315378    95A      2.332420    96A      2.425320
      97A      2.453200    98A      2.464042    99A      2.465993
     100A      2.490710   101A      2.558621   102A      2.567440
     103A      2.579598   104A      2.587457   105A      2.761329
     106A      2.770100   107A      2.794697   108A      2.799218
     109A      2.843835   110A      2.855420   111A      2.865776
     112A      2.877501   113A      2.936867   114A      2.953249
     115A      2.969333   116A      2.985565

    Final Occupation by Irrep:
              A
    DOCC [    18 ]

  @RHF Final Energy:  -158.46302193770111

   => Energetics <=

    Nuclear Repulsion Energy =            122.9835436049695829
    One-Electron Energy =                -455.0971292346796417
    Two-Electron Energy =                 173.6505636920089728
    Total Energy =                       -158.4630219377011144

Computation Completed

Properties will be evaluated at   0.000000,   0.000000,   0.000000 [a0]

Properties computed using the SCF density matrix

  Nuclear Dipole Moment: [e a0]
     X:     0.0807      Y:     0.0880      Z:    -0.1146

  Electronic Dipole Moment: [e a0]
     X:    -0.0660      Y:    -0.0755      Z:     0.0993

  Dipole Moment: [e a0]
     X:     0.0147      Y:     0.0125      Z:    -0.0153     Total:     0.0246

  Dipole Moment: [D]
     X:     0.0372      Y:     0.0319      Z:    -0.0388     Total:     0.0625

*** tstop() called on ds3 at Mon Apr 27 07:29:22 2020
Module time:
	user time   =       9.21 seconds =       0.15 minutes
	system time =       3.53 seconds =       0.06 minutes
	total time  =         13 seconds =       0.22 minutes
Total time:
	user time   =       9.21 seconds =       0.15 minutes
	system time =       3.53 seconds =       0.06 minutes
	total time  =         13 seconds =       0.22 minutes
                                     G D M A

                                 by Anthony Stone

                           version 2.2.06, 22 June 2011

               Distributed Multipoles from Gaussian wavefunctions

Starting at 7:29:22 on 27 Apr 2020

Using SCF density matrix from file ./SSI/SSI-158VAL-169VAL-1-dimer.test.14663.fchk

                         Distributed Multipole Analysis

Standard DMA

Positions and radii in angstrom
Multipole moments in atomic units, ea_0^k for rank k

C          x = -1.494557  y =  0.552529  z = -0.408183 angstrom
           Maximum rank =  0   Radius =  0.650 angstrom
                   Q00  =  -0.239891

C          x = -2.711557  y =  1.440529  z = -0.532183 angstrom
           Maximum rank =  0   Radius =  0.650 angstrom
                   Q00  =  -0.222074

H          x = -1.709557  y = -0.291471  z =  0.245817 angstrom
           Maximum rank =  0   Radius =  0.325 angstrom
                   Q00  =   0.075595

H          x = -1.218557  y =  0.171529  z = -1.392183 angstrom
           Maximum rank =  0   Radius =  0.325 angstrom
                   Q00  =   0.076286

H          x = -0.654557  y =  1.118529  z = -0.012183 angstrom
           Maximum rank =  0   Radius =  0.325 angstrom
                   Q00  =   0.076903

H          x = -2.508557  y =  2.190529  z = -1.296183 angstrom
           Maximum rank =  0   Radius =  0.325 angstrom
                   Q00  =   0.077102

H          x = -2.946317  y =  1.943179  z =  0.417677 angstrom
           Maximum rank =  0   Radius =  0.325 angstrom
                   Q00  =   0.078262

H          x = -3.577917  y =  0.839369  z = -0.845273 angstrom
           Maximum rank =  0   Radius =  0.325 angstrom
                   Q00  =   0.076722

C          x =  1.465443  y = -0.687471  z =  0.193817 angstrom
           Maximum rank =  0   Radius =  0.650 angstrom
                   Q00  =  -0.236747

C          x =  2.733443  y = -1.313471  z =  0.756817 angstrom
           Maximum rank =  0   Radius =  0.650 angstrom
                   Q00  =  -0.229614

H          x =  1.457443  y =  0.373529  z =  0.436817 angstrom
           Maximum rank =  0   Radius =  0.325 angstrom
                   Q00  =   0.074755

H          x =  1.451443  y = -0.792471  z = -0.891183 angstrom
           Maximum rank =  0   Radius =  0.325 angstrom
                   Q00  =   0.078739

H          x =  0.579443  y = -1.159471  z =  0.607817 angstrom
           Maximum rank =  0   Radius =  0.325 angstrom
                   Q00  =   0.078403

H          x =  3.561443  y = -0.737471  z =  0.345817 angstrom
           Maximum rank =  0   Radius =  0.325 angstrom
                   Q00  =   0.073541

H          x =  2.785033  y = -1.213151  z =  1.851017 angstrom
           Maximum rank =  0   Radius =  0.325 angstrom
                   Q00  =   0.081060

H          x =  2.866743  y = -2.348750  z =  0.409787 angstrom
           Maximum rank =  0   Radius =  0.325 angstrom
                   Q00  =   0.080957

Total multipoles referred to origin at
           x =   0.000000,  y =    0.000000,  z =    0.000000 angstrom
                   Q00  =  -0.000000

Finished at 7:29:22 on 27 Apr 2020

  DMA results are available in the Python driver through the
	  variable('DMA DISTRIBUTED MULTIPOLES')
  and
	  variable('DMA TOTAL MULTIPOLES')
  commands.

    Psi4 stopped on: Monday, 27 April 2020 07:29AM
    Psi4 wall time for execution: 0:00:12.51

*** Psi4 exiting successfully. Buy a developer a beer!
