                               Psi4 1.3.2 release

  ==> Input File <==

--------------------------------------------------------------------------
import numpy as np
set {scf_type pk
basis cc-pvdz
d_convergence 10
gdma_switch   0
gdma_limit    0
gdma_origin   [ 0.0,  0.0,  0.0 ]
}
molecule test {
    units Angstrom
    0 1
    --
    0 1
    C                1.527980843386247    -3.291223817566229    -0.763263157890364
    C               -0.170019156613753     0.089776182433772    -1.255263157890364
    C                0.028980843386247    -1.270223817566228    -1.018263157890364
    C                0.927980843386247     0.917776182433772    -1.476263157890364
    C                1.313980843386247    -1.811223817566228    -0.986263157890364
    C                2.209980843386247     0.385776182433772    -1.459263157890364
    C                2.396980843386248    -0.972223817566228    -1.227263157890364
    O                0.754980843386247     2.250776182433771    -1.708263157890364
    H               -1.170019156613753     0.498776182433772    -1.256263157890364
    H               -0.805019156613753    -1.904223817566228    -0.788263157890364
    H               -0.170019156613753     2.505776182433772    -1.643263157890364
    H                3.049980843386248     1.042776182433772    -1.602263157890364
    H                2.552980843386247    -3.557223817566229    -1.003263157890364
    H                0.881980843386247    -3.794223817566229    -1.465263157890364
    H                3.394980843386247    -1.377223817566228    -1.218263157890364
    H                1.276770843386247    -3.696913817566228     0.227853842109636
    C               -1.785019156613753     0.676776182433772     2.116736842109636
    C               -2.930019156613752    -0.339223817566228     1.945736842109636
    C               -2.189019156613753     2.049776182433772     1.589736842109636
    C               -1.332019156613752     0.754776182433772     3.581736842109636
    H               -0.942019156613753     0.324776182433772     1.519736842109636
    H               -3.126019156613753    -0.422223817566228     0.875736842109636
    H               -2.928019156613753     2.514776182433771     2.243736842109636
    H               -1.316019156613752     2.699776182433772     1.524736842109636
    H               -2.611019156613752     1.953776182433772     0.589736842109636
    H               -2.113019156613753     1.207776182433772     4.193736842109637
    H               -1.127019156613753    -0.238223817566228     3.975736842109636
    H               -3.855949156613752    -0.019573817566228     2.446218842109636
    H               -2.576529156613753    -1.322643817566228     2.289142842109636
    H               -0.395609156613753     1.314596182433772     3.722234842109637

}
e, wfn = energy('scf', return_wfn=True)
gdma(wfn)
dmavals = variable('DMA DISTRIBUTED MULTIPOLES')
charges = np.array(dmavals)
print(charges)
np.save('SSI-163TYR-174ILE-1-dimer.npy', np.array(charges))--------------------------------------------------------------------------

*** tstart() called on ds3
*** at Sun Apr 26 18:29:55 2020

   => Loading Basis Set <=

    Name: CC-PVDZ
    Role: ORBITAL
    Keyword: BASIS
    atoms 1-7, 17-20  entry C          line   138 file /theoryfs2/ds/metcalf/miniconda2/envs/tf2gpu/share/psi4/basis/cc-pvdz.gbs
    atoms 8           entry O          line   198 file /theoryfs2/ds/metcalf/miniconda2/envs/tf2gpu/share/psi4/basis/cc-pvdz.gbs
    atoms 9-16, 21-30 entry H          line    22 file /theoryfs2/ds/metcalf/miniconda2/envs/tf2gpu/share/psi4/basis/cc-pvdz.gbs

         ---------------------------------------------------------
                                   SCF
               by Justin Turney, Rob Parrish, Andy Simmonett
                          and Daniel G. A. Smith
                              RHF Reference
                        1 Threads,    500 MiB Core
         ---------------------------------------------------------

  ==> Geometry <==

    Molecular point group: c1
    Full point group: C1

    Geometry (in Angstrom), charge = 0, multiplicity = 1:

       Center              X                  Y                   Z               Mass
    ------------   -----------------  -----------------  -----------------  -----------------
         C            1.527980843386    -3.291223817566    -0.763263157890    12.000000000000
         C           -0.170019156614     0.089776182434    -1.255263157890    12.000000000000
         C            0.028980843386    -1.270223817566    -1.018263157890    12.000000000000
         C            0.927980843386     0.917776182434    -1.476263157890    12.000000000000
         C            1.313980843386    -1.811223817566    -0.986263157890    12.000000000000
         C            2.209980843386     0.385776182434    -1.459263157890    12.000000000000
         C            2.396980843386    -0.972223817566    -1.227263157890    12.000000000000
         O            0.754980843386     2.250776182434    -1.708263157890    15.994914619570
         H           -1.170019156614     0.498776182434    -1.256263157890     1.007825032230
         H           -0.805019156614    -1.904223817566    -0.788263157890     1.007825032230
         H           -0.170019156614     2.505776182434    -1.643263157890     1.007825032230
         H            3.049980843386     1.042776182434    -1.602263157890     1.007825032230
         H            2.552980843386    -3.557223817566    -1.003263157890     1.007825032230
         H            0.881980843386    -3.794223817566    -1.465263157890     1.007825032230
         H            3.394980843386    -1.377223817566    -1.218263157890     1.007825032230
         H            1.276770843386    -3.696913817566     0.227853842110     1.007825032230
         C           -1.785019156614     0.676776182434     2.116736842110    12.000000000000
         C           -2.930019156614    -0.339223817566     1.945736842110    12.000000000000
         C           -2.189019156614     2.049776182434     1.589736842110    12.000000000000
         C           -1.332019156614     0.754776182434     3.581736842110    12.000000000000
         H           -0.942019156614     0.324776182434     1.519736842110     1.007825032230
         H           -3.126019156614    -0.422223817566     0.875736842110     1.007825032230
         H           -2.928019156614     2.514776182434     2.243736842110     1.007825032230
         H           -1.316019156614     2.699776182434     1.524736842110     1.007825032230
         H           -2.611019156614     1.953776182434     0.589736842110     1.007825032230
         H           -2.113019156614     1.207776182434     4.193736842110     1.007825032230
         H           -1.127019156614    -0.238223817566     3.975736842110     1.007825032230
         H           -3.855949156614    -0.019573817566     2.446218842110     1.007825032230
         H           -2.576529156614    -1.322643817566     2.289142842110     1.007825032230
         H           -0.395609156614     1.314596182434     3.722234842110     1.007825032230

  Running in c1 symmetry.

  Rotational constants: A =      0.03508  B =      0.01546  C =      0.01231 [cm^-1]
  Rotational constants: A =   1051.62746  B =    463.33376  C =    369.15293 [MHz]
  Nuclear repulsion =  674.935110211881465

  Charge       = 0
  Multiplicity = 1
  Electrons    = 92
  Nalpha       = 46
  Nbeta        = 46

  ==> Algorithm <==

  SCF Algorithm Type is PK.
  DIIS enabled.
  MOM disabled.
  Fractional occupation disabled.
  Guess Type is SAD.
  Energy threshold   = 1.00e-06
  Density threshold  = 1.00e-10
  Integral threshold = 0.00e+00

  ==> Primary Basis <==

  Basis Set: CC-PVDZ
    Blend: CC-PVDZ
    Number of shells: 126
    Number of basis function: 258
    Number of Cartesian functions: 270
    Spherical Harmonics?: true
    Max angular momentum: 2

  ==> Pre-Iterations <==

   -------------------------------------------------------
    Irrep   Nso     Nmo     Nalpha   Nbeta   Ndocc  Nsocc
   -------------------------------------------------------
     A        258     258       0       0       0       0
   -------------------------------------------------------
    Total     258     258      46      46      46       0
   -------------------------------------------------------

  ==> Integral Setup <==

  Using integral reordering PK algorithm.
  Sizing the integral batches needed.
  Building batch lookup table.
   Calculation information:
      Number of atoms:                  30
      Number of AO shells:             126
      Number of primitives:            354
      Number of atomic orbitals:       270
      Number of basis functions:       258

      Integral cutoff                 1.00e-12
      Number of threads:                 1

	Batch   1 pq = [       0,    9405] index = [             0,44231715] size =     44231715
	Batch   2 pq = [    9405,   13301] index = [      44231715,88464951] size =     44233236
	Batch   3 pq = [   13301,   16290] index = [      88464951,132690195] size =     44225244
	Batch   4 pq = [   16290,   18810] index = [     132690195,176917455] size =     44227260
	Batch   5 pq = [   18810,   21030] index = [     176917455,221140965] size =     44223510
	Batch   6 pq = [   21030,   23037] index = [     221140965,265363203] size =     44222238
	Batch   7 pq = [   23037,   24883] index = [     265363203,309594286] size =     44231083
	Batch   8 pq = [   24883,   26601] index = [     309594286,353819901] size =     44225615
	Batch   9 pq = [   26601,   28214] index = [     353819901,398029005] size =     44209104
	Batch  10 pq = [   28214,   29740] index = [     398029005,442248670] size =     44219665
	Batch  11 pq = [   29740,   31191] index = [     442248670,486454836] size =     44206166
	Batch  12 pq = [   31191,   32578] index = [     486454836,530679331] size =     44224495
	Batch  13 pq = [   32578,   33411] index = [     530679331,558164166] size =     27484835
  Task number: 51
  Buffer size: 11059200
  Buffer per thread: 2
  We computed 30448713 shell quartets total.
  Whereas there are 32012001 unique shell quartets.

  ==> DiskJK: Disk-Based J/K Matrices <==

    J tasked:                  Yes
    K tasked:                  Yes
    wK tasked:                  No
    Memory [MiB]:              375
    Schwarz Cutoff:          1E-12

    OpenMP threads:              1

  Minimum eigenvalue in the overlap matrix is 3.2437245078E-04.
  Using Symmetric Orthogonalization.

  SCF Guess: Superposition of Atomic Densities via on-the-fly atomic UHF.

  ==> Iterations <==

                        Total Energy        Delta E     RMS |[F,P]|

   @RHF iter SAD:  -500.72950950658515   -5.00730e+02   0.00000e+00
   @RHF iter   1:  -501.60713653469787   -8.77627e-01   2.70785e-03 DIIS
   @RHF iter   2:  -501.88003838956058   -2.72902e-01   1.16175e-03 DIIS
   @RHF iter   3:  -501.92557265614232   -4.55343e-02   2.60948e-04 DIIS
   @RHF iter   4:  -501.92926036979895   -3.68771e-03   9.91936e-05 DIIS
   @RHF iter   5:  -501.92964266596817   -3.82296e-04   1.94475e-05 DIIS
   @RHF iter   6:  -501.92966273491908   -2.00690e-05   6.75016e-06 DIIS
   @RHF iter   7:  -501.92966521107223   -2.47615e-06   1.72916e-06 DIIS
   @RHF iter   8:  -501.92966547155220   -2.60480e-07   6.04495e-07 DIIS
   @RHF iter   9:  -501.92966550470493   -3.31527e-08   2.48432e-07 DIIS
   @RHF iter  10:  -501.92966550999211   -5.28718e-09   1.02426e-07 DIIS
   @RHF iter  11:  -501.92966551165540   -1.66330e-09   4.75648e-08 DIIS
   @RHF iter  12:  -501.92966551209207   -4.36671e-10   2.16439e-08 DIIS
   @RHF iter  13:  -501.92966551217006   -7.79892e-11   7.64140e-09 DIIS
   @RHF iter  14:  -501.92966551217654   -6.48015e-12   2.11699e-09 DIIS
   @RHF iter  15:  -501.92966551217677   -2.27374e-13   6.43646e-10 DIIS
   @RHF iter  16:  -501.92966551217546    1.30740e-12   1.91709e-10 DIIS
   @RHF iter  17:  -501.92966551217717   -1.70530e-12   6.94221e-11 DIIS
  Energy and wave function converged.

  ==> Post-Iterations <==

    Orbital Energies [Eh]
    ---------------------

    Doubly Occupied:

       1A    -20.583480     2A    -11.299428     3A    -11.239150
       4A    -11.237404     5A    -11.235233     6A    -11.234266
       7A    -11.229076     8A    -11.227197     9A    -11.223818
      10A    -11.218941    11A    -11.216915    12A    -11.213355
      13A     -1.399972    14A     -1.152296    15A     -1.079872
      16A     -1.038405    17A     -1.019122    18A     -0.929108
      19A     -0.928543    20A     -0.925650    21A     -0.846743
      22A     -0.803473    23A     -0.763996    24A     -0.732990
      25A     -0.669173    26A     -0.644159    27A     -0.631419
      28A     -0.610213    29A     -0.591986    30A     -0.586909
      31A     -0.586581    32A     -0.583713    33A     -0.569810
      34A     -0.565340    35A     -0.541404    36A     -0.534209
      37A     -0.530449    38A     -0.506840    39A     -0.500013
      40A     -0.485836    41A     -0.470131    42A     -0.461374
      43A     -0.456604    44A     -0.453867    45A     -0.339044
      46A     -0.302667

    Virtual:

      47A      0.128001    48A      0.151367    49A      0.158880
      50A      0.178208    51A      0.198677    52A      0.203785
      53A      0.214997    54A      0.226908    55A      0.239485
      56A      0.247233    57A      0.253467    58A      0.260613
      59A      0.269108    60A      0.274731    61A      0.287341
      62A      0.293757    63A      0.307027    64A      0.308940
      65A      0.317249    66A      0.325711    67A      0.363135
      68A      0.372710    69A      0.375520    70A      0.406718
      71A      0.412651    72A      0.430851    73A      0.454867
      74A      0.486369    75A      0.496404    76A      0.512028
      77A      0.567814    78A      0.569403    79A      0.604748
      80A      0.611511    81A      0.622872    82A      0.624111
      83A      0.626264    84A      0.656407    85A      0.657743
      86A      0.693189    87A      0.704328    88A      0.717524
      89A      0.727734    90A      0.736075    91A      0.750410
      92A      0.763467    93A      0.775163    94A      0.779718
      95A      0.784482    96A      0.790745    97A      0.796591
      98A      0.812057    99A      0.817384   100A      0.829220
     101A      0.846828   102A      0.849783   103A      0.854994
     104A      0.872494   105A      0.883706   106A      0.891859
     107A      0.893746   108A      0.896954   109A      0.899710
     110A      0.902662   111A      0.910368   112A      0.914101
     113A      0.918303   114A      0.926952   115A      0.934295
     116A      0.939554   117A      0.942038   118A      0.952169
     119A      0.960394   120A      0.971726   121A      0.985567
     122A      0.997602   123A      1.013948   124A      1.028655
     125A      1.055169   126A      1.060493   127A      1.121051
     128A      1.131209   129A      1.131684   130A      1.144268
     131A      1.147834   132A      1.163396   133A      1.202343
     134A      1.214247   135A      1.237613   136A      1.255422
     137A      1.273004   138A      1.288865   139A      1.292713
     140A      1.311601   141A      1.317557   142A      1.362753
     143A      1.364066   144A      1.376416   145A      1.382963
     146A      1.402666   147A      1.421844   148A      1.489633
     149A      1.498343   150A      1.511981   151A      1.534079
     152A      1.548648   153A      1.556300   154A      1.618307
     155A      1.626584   156A      1.634549   157A      1.671942
     158A      1.676586   159A      1.688936   160A      1.696463
     161A      1.701347   162A      1.709495   163A      1.718539
     164A      1.725777   165A      1.736655   166A      1.751070
     167A      1.783420   168A      1.802337   169A      1.812785
     170A      1.842677   171A      1.846850   172A      1.854995
     173A      1.870392   174A      1.889683   175A      1.898036
     176A      1.909346   177A      1.917342   178A      1.922825
     179A      1.931628   180A      1.937258   181A      1.951578
     182A      1.953735   183A      1.962516   184A      1.965165
     185A      1.969929   186A      1.976819   187A      1.986676
     188A      2.005440   189A      2.013998   190A      2.018401
     191A      2.023145   192A      2.040045   193A      2.050612
     194A      2.062069   195A      2.069667   196A      2.077537
     197A      2.083470   198A      2.108052   199A      2.122252
     200A      2.132080   201A      2.135705   202A      2.148648
     203A      2.185847   204A      2.194566   205A      2.222719
     206A      2.243256   207A      2.253129   208A      2.260833
     209A      2.275334   210A      2.299046   211A      2.316237
     212A      2.323830   213A      2.347804   214A      2.355134
     215A      2.361763   216A      2.372836   217A      2.380889
     218A      2.406126   219A      2.462962   220A      2.474342
     221A      2.485074   222A      2.507768   223A      2.537265
     224A      2.545132   225A      2.571494   226A      2.588861
     227A      2.604359   228A      2.625495   229A      2.646300
     230A      2.698814   231A      2.719406   232A      2.747347
     233A      2.759848   234A      2.773927   235A      2.782722
     236A      2.785950   237A      2.797454   238A      2.804310
     239A      2.821850   240A      2.834385   241A      2.840718
     242A      2.863448   243A      2.872906   244A      2.896145
     245A      2.959886   246A      3.011384   247A      3.025251
     248A      3.026954   249A      3.091478   250A      3.115470
     251A      3.137108   252A      3.251660   253A      3.295290
     254A      3.347367   255A      3.575914   256A      3.677903
     257A      3.970245   258A      4.198101

    Final Occupation by Irrep:
              A
    DOCC [    46 ]

  @RHF Final Energy:  -501.92966551217717

   => Energetics <=

    Nuclear Repulsion Energy =            674.9351102118814651
    One-Electron Energy =               -2018.9292031889235659
    Two-Electron Energy =                 842.0644274648649343
    Total Energy =                       -501.9296655121771664

Computation Completed

Properties will be evaluated at   0.000000,   0.000000,   0.000000 [a0]

Properties computed using the SCF density matrix

  Nuclear Dipole Moment: [e a0]
     X:   -11.2269      Y:    -2.1169      Z:    13.7086

  Electronic Dipole Moment: [e a0]
     X:    10.8212      Y:     1.8313      Z:   -13.6141

  Dipole Moment: [e a0]
     X:    -0.4056      Y:    -0.2856      Z:     0.0946     Total:     0.5050

  Dipole Moment: [D]
     X:    -1.0310      Y:    -0.7260      Z:     0.2404     Total:     1.2837

*** tstop() called on ds3 at Sun Apr 26 18:36:16 2020
Module time:
	user time   =     211.33 seconds =       3.52 minutes
	system time =      79.34 seconds =       1.32 minutes
	total time  =        381 seconds =       6.35 minutes
Total time:
	user time   =     211.33 seconds =       3.52 minutes
	system time =      79.34 seconds =       1.32 minutes
	total time  =        381 seconds =       6.35 minutes
                                     G D M A

                                 by Anthony Stone

                           version 2.2.06, 22 June 2011

               Distributed Multipoles from Gaussian wavefunctions

Starting at 18:36:16 on 26 Apr 2020

Using SCF density matrix from file ./SSI/SSI-163TYR-174ILE-1-dimer.test.20704.fchk

                         Distributed Multipole Analysis

Standard DMA

Positions and radii in angstrom
Multipole moments in atomic units, ea_0^k for rank k

C          x =  1.527981  y = -3.291224  z = -0.763263 angstrom
           Maximum rank =  0   Radius =  0.650 angstrom
                   Q00  =  -0.197576

C          x = -0.170019  y =  0.089776  z = -1.255263 angstrom
           Maximum rank =  0   Radius =  0.650 angstrom
                   Q00  =  -0.197699

C          x =  0.028981  y = -1.270224  z = -1.018263 angstrom
           Maximum rank =  0   Radius =  0.650 angstrom
                   Q00  =  -0.027634

C          x =  0.927981  y =  0.917776  z = -1.476263 angstrom
           Maximum rank =  0   Radius =  0.650 angstrom
                   Q00  =   0.328136

C          x =  1.313981  y = -1.811224  z = -0.986263 angstrom
           Maximum rank =  0   Radius =  0.650 angstrom
                   Q00  =  -0.142943

C          x =  2.209981  y =  0.385776  z = -1.459263 angstrom
           Maximum rank =  0   Radius =  0.650 angstrom
                   Q00  =  -0.112715

C          x =  2.396981  y = -0.972224  z = -1.227263 angstrom
           Maximum rank =  0   Radius =  0.650 angstrom
                   Q00  =   0.043712

O          x =  0.754981  y =  2.250776  z = -1.708263 angstrom
           Maximum rank =  0   Radius =  0.650 angstrom
                   Q00  =  -0.679475

H          x = -1.170019  y =  0.498776  z = -1.256263 angstrom
           Maximum rank =  0   Radius =  0.325 angstrom
                   Q00  =   0.073088

H          x = -0.805019  y = -1.904224  z = -0.788263 angstrom
           Maximum rank =  0   Radius =  0.325 angstrom
                   Q00  =   0.068561

H          x = -0.170019  y =  2.505776  z = -1.643263 angstrom
           Maximum rank =  0   Radius =  0.325 angstrom
                   Q00  =   0.407074

H          x =  3.049981  y =  1.042776  z = -1.602263 angstrom
           Maximum rank =  0   Radius =  0.325 angstrom
                   Q00  =   0.080733

H          x =  2.552981  y = -3.557224  z = -1.003263 angstrom
           Maximum rank =  0   Radius =  0.325 angstrom
                   Q00  =   0.098782

H          x =  0.881981  y = -3.794224  z = -1.465263 angstrom
           Maximum rank =  0   Radius =  0.325 angstrom
                   Q00  =   0.096219

H          x =  3.394981  y = -1.377224  z = -1.218263 angstrom
           Maximum rank =  0   Radius =  0.325 angstrom
                   Q00  =   0.064488

H          x =  1.276771  y = -3.696914  z =  0.227854 angstrom
           Maximum rank =  0   Radius =  0.325 angstrom
                   Q00  =   0.098448

C          x = -1.785019  y =  0.676776  z =  2.116737 angstrom
           Maximum rank =  0   Radius =  0.650 angstrom
                   Q00  =   0.016019

C          x = -2.930019  y = -0.339224  z =  1.945737 angstrom
           Maximum rank =  0   Radius =  0.650 angstrom
                   Q00  =  -0.256265

C          x = -2.189019  y =  2.049776  z =  1.589737 angstrom
           Maximum rank =  0   Radius =  0.650 angstrom
                   Q00  =  -0.241491

C          x = -1.332019  y =  0.754776  z =  3.581737 angstrom
           Maximum rank =  0   Radius =  0.650 angstrom
                   Q00  =  -0.252928

H          x = -0.942019  y =  0.324776  z =  1.519737 angstrom
           Maximum rank =  0   Radius =  0.325 angstrom
                   Q00  =   0.031445

H          x = -3.126019  y = -0.422224  z =  0.875737 angstrom
           Maximum rank =  0   Radius =  0.325 angstrom
                   Q00  =   0.072900

H          x = -2.928019  y =  2.514776  z =  2.243737 angstrom
           Maximum rank =  0   Radius =  0.325 angstrom
                   Q00  =   0.079392

H          x = -1.316019  y =  2.699776  z =  1.524737 angstrom
           Maximum rank =  0   Radius =  0.325 angstrom
                   Q00  =   0.082319

H          x = -2.611019  y =  1.953776  z =  0.589737 angstrom
           Maximum rank =  0   Radius =  0.325 angstrom
                   Q00  =   0.067046

H          x = -2.113019  y =  1.207776  z =  4.193737 angstrom
           Maximum rank =  0   Radius =  0.325 angstrom
                   Q00  =   0.073098

H          x = -1.127019  y = -0.238224  z =  3.975737 angstrom
           Maximum rank =  0   Radius =  0.325 angstrom
                   Q00  =   0.080603

H          x = -3.855949  y = -0.019574  z =  2.446219 angstrom
           Maximum rank =  0   Radius =  0.325 angstrom
                   Q00  =   0.079735

H          x = -2.576529  y = -1.322644  z =  2.289143 angstrom
           Maximum rank =  0   Radius =  0.325 angstrom
                   Q00  =   0.082635

H          x = -0.395609  y =  1.314596  z =  3.722235 angstrom
           Maximum rank =  0   Radius =  0.325 angstrom
                   Q00  =   0.084295

Total multipoles referred to origin at
           x =   0.000000,  y =    0.000000,  z =    0.000000 angstrom
                   Q00  =  -0.000000

Finished at 18:36:16 on 26 Apr 2020

  DMA results are available in the Python driver through the
	  variable('DMA DISTRIBUTED MULTIPOLES')
  and
	  variable('DMA TOTAL MULTIPOLES')
  commands.

    Psi4 stopped on: Sunday, 26 April 2020 06:36PM
    Psi4 wall time for execution: 0:06:20.97

*** Psi4 exiting successfully. Buy a developer a beer!
