                               Psi4 1.3.2 release

  ==> Input File <==

--------------------------------------------------------------------------
import numpy as np
set {scf_type pk
basis cc-pvdz
d_convergence 10
gdma_switch   0
gdma_limit    0
gdma_origin   [ 0.0,  0.0,  0.0 ]
}
molecule test {
    units Angstrom
    0 1
    --
    0 1
    C                0.142440919551597    -2.122654837625096     3.250195096995879
    C                0.741440919551596    -1.295654837625096     4.353195096995879
    C               -0.621559080448404    -3.210654837625096     3.946195096995879
    H                0.939440919551597    -2.560654837625096     2.647195096995879
    H               -0.510559080448403    -1.518654837625096     2.619195096995879
    H                1.704440919551597    -0.885654837625096     4.045195096995879
    H                0.056440919551596    -0.493654837625096     4.632195096995878
    H               -0.753559080448404    -4.087654837625096     3.310195096995879
    H               -1.595559080448403    -2.825654837625096     4.255195096995879
    H                0.849520919551596    -2.000424837625096     5.190815096995879
    H               -0.017439080448404    -3.423574837625096     4.840455096995879
    C               -1.286559080448404     0.168345162374904    -3.947804903004121
    C               -0.099559080448404     0.394345162374904    -1.602804903004121
    C               -0.860559080448403     0.902345162374904    -2.719804903004121
    C                0.082440919551596     1.468345162374904    -0.694804903004121
    C               -1.094559080448404     2.205345162374904    -2.451804903004121
    C                1.166440919551597    -0.983654837625096    -0.060804903004121
    C                1.326440919551596     0.103345162374904     0.807195096995879
    C                0.459440919551597    -0.851654837625096    -1.268804903004121
    C                0.777440919551597     1.334345162374904     0.500195096995879
    N               -0.549559080448403     2.549345162374904    -1.243804903004121
    H                1.598440919551597    -1.941654837625096     0.199195096995879
    H                1.888440919551597    -0.021654837625096     1.723195096995879
    H                0.336440919551596    -1.703654837625096    -1.915804903004121
    H                0.901440919551596     2.183345162374904     1.154195096995879
    H               -1.721559080448404     0.888345162374904    -4.642804903004121
    H               -2.070559080448404    -0.537654837625096    -3.670804903004121
    H               -1.638559080448403     2.882345162374904    -3.103804903004121
    H               -0.577559080448403     3.482345162374904    -0.850804903004121
    H               -0.484659080448403    -0.378924837625096    -4.464953903004122

}
e, wfn = energy('scf', return_wfn=True)
gdma(wfn)
dmavals = variable('DMA DISTRIBUTED MULTIPOLES')
charges = np.array(dmavals)
print(charges)
np.save('SSI-155PRO-170TRP-1-dimer.npy', np.array(charges))--------------------------------------------------------------------------

*** tstart() called on ds3
*** at Tue Apr 28 12:42:04 2020

   => Loading Basis Set <=

    Name: CC-PVDZ
    Role: ORBITAL
    Keyword: BASIS
    atoms 1-3, 12-20  entry C          line   138 file /theoryfs2/ds/metcalf/miniconda2/envs/tf2gpu/share/psi4/basis/cc-pvdz.gbs
    atoms 4-11, 22-30 entry H          line    22 file /theoryfs2/ds/metcalf/miniconda2/envs/tf2gpu/share/psi4/basis/cc-pvdz.gbs
    atoms 21          entry N          line   168 file /theoryfs2/ds/metcalf/miniconda2/envs/tf2gpu/share/psi4/basis/cc-pvdz.gbs

         ---------------------------------------------------------
                                   SCF
               by Justin Turney, Rob Parrish, Andy Simmonett
                          and Daniel G. A. Smith
                              RHF Reference
                        1 Threads,    500 MiB Core
         ---------------------------------------------------------

  ==> Geometry <==

    Molecular point group: c1
    Full point group: C1

    Geometry (in Angstrom), charge = 0, multiplicity = 1:

       Center              X                  Y                   Z               Mass
    ------------   -----------------  -----------------  -----------------  -----------------
         C            0.142440919552    -2.122654837625     3.250195096996    12.000000000000
         C            0.741440919552    -1.295654837625     4.353195096996    12.000000000000
         C           -0.621559080448    -3.210654837625     3.946195096996    12.000000000000
         H            0.939440919552    -2.560654837625     2.647195096996     1.007825032230
         H           -0.510559080448    -1.518654837625     2.619195096996     1.007825032230
         H            1.704440919552    -0.885654837625     4.045195096996     1.007825032230
         H            0.056440919552    -0.493654837625     4.632195096996     1.007825032230
         H           -0.753559080448    -4.087654837625     3.310195096996     1.007825032230
         H           -1.595559080448    -2.825654837625     4.255195096996     1.007825032230
         H            0.849520919552    -2.000424837625     5.190815096996     1.007825032230
         H           -0.017439080448    -3.423574837625     4.840455096996     1.007825032230
         C           -1.286559080448     0.168345162375    -3.947804903004    12.000000000000
         C           -0.099559080448     0.394345162375    -1.602804903004    12.000000000000
         C           -0.860559080448     0.902345162375    -2.719804903004    12.000000000000
         C            0.082440919552     1.468345162375    -0.694804903004    12.000000000000
         C           -1.094559080448     2.205345162375    -2.451804903004    12.000000000000
         C            1.166440919552    -0.983654837625    -0.060804903004    12.000000000000
         C            1.326440919552     0.103345162375     0.807195096996    12.000000000000
         C            0.459440919552    -0.851654837625    -1.268804903004    12.000000000000
         C            0.777440919552     1.334345162375     0.500195096996    12.000000000000
         N           -0.549559080448     2.549345162375    -1.243804903004    14.003074004430
         H            1.598440919552    -1.941654837625     0.199195096996     1.007825032230
         H            1.888440919552    -0.021654837625     1.723195096996     1.007825032230
         H            0.336440919552    -1.703654837625    -1.915804903004     1.007825032230
         H            0.901440919552     2.183345162375     1.154195096996     1.007825032230
         H           -1.721559080448     0.888345162375    -4.642804903004     1.007825032230
         H           -2.070559080448    -0.537654837625    -3.670804903004     1.007825032230
         H           -1.638559080448     2.882345162375    -3.103804903004     1.007825032230
         H           -0.577559080448     3.482345162375    -0.850804903004     1.007825032230
         H           -0.484659080448    -0.378924837625    -4.464953903004     1.007825032230

  Running in c1 symmetry.

  Rotational constants: A =      0.05112  B =      0.01059  C =      0.00973 [cm^-1]
  Rotational constants: A =   1532.58082  B =    317.61251  C =    291.81633 [MHz]
  Nuclear repulsion =  733.936601201308690

  Charge       = 0
  Multiplicity = 1
  Electrons    = 96
  Nalpha       = 48
  Nbeta        = 48

  ==> Algorithm <==

  SCF Algorithm Type is PK.
  DIIS enabled.
  MOM disabled.
  Fractional occupation disabled.
  Guess Type is SAD.
  Energy threshold   = 1.00e-06
  Density threshold  = 1.00e-10
  Integral threshold = 0.00e+00

  ==> Primary Basis <==

  Basis Set: CC-PVDZ
    Blend: CC-PVDZ
    Number of shells: 129
    Number of basis function: 267
    Number of Cartesian functions: 280
    Spherical Harmonics?: true
    Max angular momentum: 2

  ==> Pre-Iterations <==

   -------------------------------------------------------
    Irrep   Nso     Nmo     Nalpha   Nbeta   Ndocc  Nsocc
   -------------------------------------------------------
     A        267     267       0       0       0       0
   -------------------------------------------------------
    Total     267     267      48      48      48       0
   -------------------------------------------------------

  ==> Integral Setup <==

  Using integral reordering PK algorithm.
  Sizing the integral batches needed.
  Building batch lookup table.
   Calculation information:
      Number of atoms:                  30
      Number of AO shells:             129
      Number of primitives:            371
      Number of atomic orbitals:       280
      Number of basis functions:       267

      Integral cutoff                 1.00e-12
      Number of threads:                 1

	Batch   1 pq = [       0,    9405] index = [             0,44231715] size =     44231715
	Batch   2 pq = [    9405,   13301] index = [      44231715,88464951] size =     44233236
	Batch   3 pq = [   13301,   16290] index = [      88464951,132690195] size =     44225244
	Batch   4 pq = [   16290,   18810] index = [     132690195,176917455] size =     44227260
	Batch   5 pq = [   18810,   21030] index = [     176917455,221140965] size =     44223510
	Batch   6 pq = [   21030,   23037] index = [     221140965,265363203] size =     44222238
	Batch   7 pq = [   23037,   24883] index = [     265363203,309594286] size =     44231083
	Batch   8 pq = [   24883,   26601] index = [     309594286,353819901] size =     44225615
	Batch   9 pq = [   26601,   28214] index = [     353819901,398029005] size =     44209104
	Batch  10 pq = [   28214,   29740] index = [     398029005,442248670] size =     44219665
	Batch  11 pq = [   29740,   31191] index = [     442248670,486454836] size =     44206166
	Batch  12 pq = [   31191,   32578] index = [     486454836,530679331] size =     44224495
	Batch  13 pq = [   32578,   33908] index = [     530679331,574893186] size =     44213855
	Batch  14 pq = [   33908,   35188] index = [     574893186,619115266] size =     44222080
	Batch  15 pq = [   35188,   35778] index = [     619115266,640050531] size =     20935265
  Task number: 58
  Buffer size: 11059200
  Buffer per thread: 2
  We computed 31641234 shell quartets total.
  Whereas there are 35158305 unique shell quartets.

  ==> DiskJK: Disk-Based J/K Matrices <==

    J tasked:                  Yes
    K tasked:                  Yes
    wK tasked:                  No
    Memory [MiB]:              375
    Schwarz Cutoff:          1E-12

    OpenMP threads:              1

  Minimum eigenvalue in the overlap matrix is 2.3680368917E-04.
  Using Symmetric Orthogonalization.

  SCF Guess: Superposition of Atomic Densities via on-the-fly atomic UHF.

  ==> Iterations <==

                        Total Energy        Delta E     RMS |[F,P]|

   @RHF iter SAD:  -518.25527068004817   -5.18255e+02   0.00000e+00
   @RHF iter   1:  -518.46960561724802   -2.14335e-01   2.53771e-03 DIIS
   @RHF iter   2:  -518.73374170088641   -2.64136e-01   1.13120e-03 DIIS
   @RHF iter   3:  -518.78200562872303   -4.82639e-02   2.79419e-04 DIIS
   @RHF iter   4:  -518.78606309875943   -4.05747e-03   1.24621e-04 DIIS
   @RHF iter   5:  -518.78667501458494   -6.11916e-04   1.96919e-05 DIIS
   @RHF iter   6:  -518.78670568024586   -3.06657e-05   8.50042e-06 DIIS
   @RHF iter   7:  -518.78671180511265   -6.12487e-06   3.36317e-06 DIIS
   @RHF iter   8:  -518.78671333818704   -1.53307e-06   1.42930e-06 DIIS
   @RHF iter   9:  -518.78671367853121   -3.40344e-07   6.19045e-07 DIIS
   @RHF iter  10:  -518.78671374901330   -7.04821e-08   2.77349e-07 DIIS
   @RHF iter  11:  -518.78671376555405   -1.65408e-08   1.07684e-07 DIIS
   @RHF iter  12:  -518.78671376800150   -2.44745e-09   4.06710e-08 DIIS
   @RHF iter  13:  -518.78671376820137   -1.99861e-10   1.20237e-08 DIIS
   @RHF iter  14:  -518.78671376821501   -1.36424e-11   4.49655e-09 DIIS
   @RHF iter  15:  -518.78671376822047   -5.45697e-12   2.17051e-09 DIIS
   @RHF iter  16:  -518.78671376822047    0.00000e+00   9.67873e-10 DIIS
   @RHF iter  17:  -518.78671376821740    3.06954e-12   4.64115e-10 DIIS
   @RHF iter  18:  -518.78671376821831   -9.09495e-13   1.75923e-10 DIIS
   @RHF iter  19:  -518.78671376822069   -2.38742e-12   6.65565e-11 DIIS
  Energy and wave function converged.

  ==> Post-Iterations <==

    Orbital Energies [Eh]
    ---------------------

    Doubly Occupied:

       1A    -15.599710     2A    -11.263107     3A    -11.262482
       4A    -11.232252     5A    -11.229480     6A    -11.228234
       7A    -11.226650     8A    -11.221642     9A    -11.221382
      10A    -11.216761    11A    -11.207663    12A    -11.206860
      13A    -11.204746    14A     -1.297744    15A     -1.126427
      16A     -1.074329    17A     -1.066277    18A     -0.995103
      19A     -0.989486    20A     -0.931307    21A     -0.912130
      22A     -0.840354    23A     -0.802440    24A     -0.790839
      25A     -0.753002    26A     -0.720034    27A     -0.664479
      28A     -0.642439    29A     -0.632516    30A     -0.610841
      31A     -0.600928    32A     -0.592596    33A     -0.588308
      34A     -0.566577    35A     -0.552767    36A     -0.540264
      37A     -0.538439    38A     -0.527769    39A     -0.509525
      40A     -0.495604    41A     -0.477935    42A     -0.469872
      43A     -0.459929    44A     -0.458235    45A     -0.457633
      46A     -0.371671    47A     -0.293985    48A     -0.276390

    Virtual:

      49A      0.126484    50A      0.168074    51A      0.176390
      52A      0.183242    53A      0.190614    54A      0.207571
      55A      0.217706    56A      0.223227    57A      0.231516
      58A      0.235708    59A      0.247043    60A      0.251969
      61A      0.267778    62A      0.282126    63A      0.284844
      64A      0.287854    65A      0.295262    66A      0.324679
      67A      0.332125    68A      0.350124    69A      0.376712
      70A      0.382603    71A      0.389476    72A      0.409128
      73A      0.422279    74A      0.444932    75A      0.451307
      76A      0.475984    77A      0.484009    78A      0.499732
      79A      0.511695    80A      0.572330    81A      0.594027
      82A      0.603497    83A      0.609998    84A      0.625608
      85A      0.632291    86A      0.635327    87A      0.647996
      88A      0.668016    89A      0.669737    90A      0.706297
      91A      0.712342    92A      0.720229    93A      0.730275
      94A      0.736524    95A      0.739427    96A      0.748153
      97A      0.760664    98A      0.763302    99A      0.775302
     100A      0.786764   101A      0.793520   102A      0.804428
     103A      0.815137   104A      0.824200   105A      0.830818
     106A      0.850059   107A      0.866506   108A      0.873410
     109A      0.877749   110A      0.880642   111A      0.892384
     112A      0.896810   113A      0.908647   114A      0.909109
     115A      0.913377   116A      0.920791   117A      0.927549
     118A      0.928292   119A      0.945965   120A      0.950189
     121A      0.956169   122A      0.959016   123A      0.970611
     124A      0.978583   125A      0.991263   126A      1.002938
     127A      1.021875   128A      1.024586   129A      1.065353
     130A      1.071282   131A      1.087223   132A      1.107991
     133A      1.120883   134A      1.126614   135A      1.138067
     136A      1.152420   137A      1.165607   138A      1.171813
     139A      1.201567   140A      1.211568   141A      1.230258
     142A      1.233945   143A      1.251922   144A      1.257393
     145A      1.276428   146A      1.293749   147A      1.308013
     148A      1.329373   149A      1.345659   150A      1.362835
     151A      1.369107   152A      1.398411   153A      1.430897
     154A      1.443734   155A      1.484387   156A      1.504955
     157A      1.527208   158A      1.560594   159A      1.582454
     160A      1.587670   161A      1.625221   162A      1.629126
     163A      1.631832   164A      1.636496   165A      1.645163
     166A      1.656342   167A      1.683269   168A      1.694488
     169A      1.725848   170A      1.739801   171A      1.747041
     172A      1.763382   173A      1.783804   174A      1.787426
     175A      1.815083   176A      1.820342   177A      1.827739
     178A      1.834889   179A      1.872516   180A      1.882093
     181A      1.888271   182A      1.897430   183A      1.908375
     184A      1.921802   185A      1.923735   186A      1.926613
     187A      1.928897   188A      1.935383   189A      1.952854
     190A      1.957788   191A      1.970677   192A      1.972920
     193A      1.983094   194A      2.003659   195A      2.005924
     196A      2.014394   197A      2.017631   198A      2.032344
     199A      2.036755   200A      2.045125   201A      2.061456
     202A      2.083566   203A      2.092512   204A      2.095798
     205A      2.104562   206A      2.107627   207A      2.122775
     208A      2.126929   209A      2.138996   210A      2.147874
     211A      2.153197   212A      2.179162   213A      2.188553
     214A      2.225035   215A      2.228329   216A      2.237492
     217A      2.255282   218A      2.297648   219A      2.301209
     220A      2.317901   221A      2.326723   222A      2.346828
     223A      2.354698   224A      2.375056   225A      2.391775
     226A      2.429392   227A      2.453153   228A      2.454240
     229A      2.466743   230A      2.471864   231A      2.515345
     232A      2.532115   233A      2.566367   234A      2.587733
     235A      2.603264   236A      2.645171   237A      2.647890
     238A      2.652087   239A      2.678599   240A      2.701701
     241A      2.709783   242A      2.765533   243A      2.771396
     244A      2.778491   245A      2.786045   246A      2.792924
     247A      2.802374   248A      2.805755   249A      2.823413
     250A      2.855750   251A      2.868138   252A      2.871584
     253A      2.886181   254A      2.916797   255A      2.934150
     256A      2.948881   257A      2.974340   258A      3.040134
     259A      3.054946   260A      3.074275   261A      3.080182
     262A      3.121859   263A      3.206982   264A      3.302390
     265A      3.388429   266A      3.747715   267A      3.944089

    Final Occupation by Irrep:
              A
    DOCC [    48 ]

  @RHF Final Energy:  -518.78671376822069

   => Energetics <=

    Nuclear Repulsion Energy =            733.9366012013086902
    One-Electron Energy =               -2157.5483391807433691
    Two-Electron Energy =                 904.8250242112138721
    Total Energy =                       -518.7867137682206931

Computation Completed

Properties will be evaluated at   0.000000,   0.000000,   0.000000 [a0]

Properties computed using the SCF density matrix

  Nuclear Dipole Moment: [e a0]
     X:    -1.0253      Y:   -12.1412      Z:    14.9732

  Electronic Dipole Moment: [e a0]
     X:     0.7489      Y:    12.9402      Z:   -15.1447

  Dipole Moment: [e a0]
     X:    -0.2764      Y:     0.7990      Z:    -0.1715     Total:     0.8627

  Dipole Moment: [D]
     X:    -0.7025      Y:     2.0308      Z:    -0.4360     Total:     2.1927

*** tstop() called on ds3 at Tue Apr 28 12:55:55 2020
Module time:
	user time   =     257.68 seconds =       4.29 minutes
	system time =     103.52 seconds =       1.73 minutes
	total time  =        831 seconds =      13.85 minutes
Total time:
	user time   =     257.68 seconds =       4.29 minutes
	system time =     103.52 seconds =       1.73 minutes
	total time  =        831 seconds =      13.85 minutes
                                     G D M A

                                 by Anthony Stone

                           version 2.2.06, 22 June 2011

               Distributed Multipoles from Gaussian wavefunctions

Starting at 12:55:55 on 28 Apr 2020

Using SCF density matrix from file ./SSI/SSI-155PRO-170TRP-1-dimer.test.15306.fchk

                         Distributed Multipole Analysis

Standard DMA

Positions and radii in angstrom
Multipole moments in atomic units, ea_0^k for rank k

C          x =  0.142441  y = -2.122655  z =  3.250195 angstrom
           Maximum rank =  0   Radius =  0.650 angstrom
                   Q00  =  -0.095824

C          x =  0.741441  y = -1.295655  z =  4.353195 angstrom
           Maximum rank =  0   Radius =  0.650 angstrom
                   Q00  =  -0.237095

C          x = -0.621559  y = -3.210655  z =  3.946195 angstrom
           Maximum rank =  0   Radius =  0.650 angstrom
                   Q00  =  -0.196997

H          x =  0.939441  y = -2.560655  z =  2.647195 angstrom
           Maximum rank =  0   Radius =  0.325 angstrom
                   Q00  =   0.043877

H          x = -0.510559  y = -1.518655  z =  2.619195 angstrom
           Maximum rank =  0   Radius =  0.325 angstrom
                   Q00  =   0.062322

H          x =  1.704441  y = -0.885655  z =  4.045195 angstrom
           Maximum rank =  0   Radius =  0.325 angstrom
                   Q00  =   0.080873

H          x =  0.056441  y = -0.493655  z =  4.632195 angstrom
           Maximum rank =  0   Radius =  0.325 angstrom
                   Q00  =   0.083315

H          x = -0.753559  y = -4.087655  z =  3.310195 angstrom
           Maximum rank =  0   Radius =  0.325 angstrom
                   Q00  =   0.080729

H          x = -1.595559  y = -2.825655  z =  4.255195 angstrom
           Maximum rank =  0   Radius =  0.325 angstrom
                   Q00  =   0.074133

H          x =  0.849521  y = -2.000425  z =  5.190815 angstrom
           Maximum rank =  0   Radius =  0.325 angstrom
                   Q00  =   0.058112

H          x = -0.017439  y = -3.423575  z =  4.840455 angstrom
           Maximum rank =  0   Radius =  0.325 angstrom
                   Q00  =   0.046918

C          x = -1.286559  y =  0.168345  z = -3.947805 angstrom
           Maximum rank =  0   Radius =  0.650 angstrom
                   Q00  =  -0.205143

C          x = -0.099559  y =  0.394345  z = -1.602805 angstrom
           Maximum rank =  0   Radius =  0.650 angstrom
                   Q00  =  -0.059064

C          x = -0.860559  y =  0.902345  z = -2.719805 angstrom
           Maximum rank =  0   Radius =  0.650 angstrom
                   Q00  =  -0.118279

C          x =  0.082441  y =  1.468345  z = -0.694805 angstrom
           Maximum rank =  0   Radius =  0.650 angstrom
                   Q00  =   0.298037

C          x = -1.094559  y =  2.205345  z = -2.451805 angstrom
           Maximum rank =  0   Radius =  0.650 angstrom
                   Q00  =   0.072974

C          x =  1.166441  y = -0.983655  z = -0.060805 angstrom
           Maximum rank =  0   Radius =  0.650 angstrom
                   Q00  =  -0.092766

C          x =  1.326441  y =  0.103345  z =  0.807195 angstrom
           Maximum rank =  0   Radius =  0.650 angstrom
                   Q00  =  -0.064620

C          x =  0.459441  y = -0.851655  z = -1.268805 angstrom
           Maximum rank =  0   Radius =  0.650 angstrom
                   Q00  =  -0.093989

C          x =  0.777441  y =  1.334345  z =  0.500195 angstrom
           Maximum rank =  0   Radius =  0.650 angstrom
                   Q00  =  -0.122591

N          x = -0.549559  y =  2.549345  z = -1.243805 angstrom
           Maximum rank =  0   Radius =  0.650 angstrom
                   Q00  =  -0.495648

H          x =  1.598441  y = -1.941655  z =  0.199195 angstrom
           Maximum rank =  0   Radius =  0.325 angstrom
                   Q00  =   0.060539

H          x =  1.888441  y = -0.021655  z =  1.723195 angstrom
           Maximum rank =  0   Radius =  0.325 angstrom
                   Q00  =   0.065764

H          x =  0.336441  y = -1.703655  z = -1.915805 angstrom
           Maximum rank =  0   Radius =  0.325 angstrom
                   Q00  =   0.070413

H          x =  0.901441  y =  2.183345  z =  1.154195 angstrom
           Maximum rank =  0   Radius =  0.325 angstrom
                   Q00  =   0.071619

H          x = -1.721559  y =  0.888345  z = -4.642805 angstrom
           Maximum rank =  0   Radius =  0.325 angstrom
                   Q00  =   0.101450

H          x = -2.070559  y = -0.537655  z = -3.670805 angstrom
           Maximum rank =  0   Radius =  0.325 angstrom
                   Q00  =   0.097194

H          x = -1.638559  y =  2.882345  z = -3.103805 angstrom
           Maximum rank =  0   Radius =  0.325 angstrom
                   Q00  =   0.100054

H          x = -0.577559  y =  3.482345  z = -0.850805 angstrom
           Maximum rank =  0   Radius =  0.325 angstrom
                   Q00  =   0.214200

H          x = -0.484659  y = -0.378925  z = -4.464954 angstrom
           Maximum rank =  0   Radius =  0.325 angstrom
                   Q00  =   0.099493

Total multipoles referred to origin at
           x =   0.000000,  y =    0.000000,  z =    0.000000 angstrom
                   Q00  =  -0.000000

Finished at 12:55:55 on 28 Apr 2020

  DMA results are available in the Python driver through the
	  variable('DMA DISTRIBUTED MULTIPOLES')
  and
	  variable('DMA TOTAL MULTIPOLES')
  commands.

    Psi4 stopped on: Tuesday, 28 April 2020 12:55PM
    Psi4 wall time for execution: 0:13:51.18

*** Psi4 exiting successfully. Buy a developer a beer!
