                               Psi4 1.3.2 release

  ==> Input File <==

--------------------------------------------------------------------------
import numpy as np
set {scf_type pk
basis cc-pvdz
d_convergence 10
gdma_switch   0
gdma_limit    0
gdma_origin   [ 0.0,  0.0,  0.0 ]
}
molecule test {
    units Angstrom
    0 1
    --
    0 1
    C               -1.954078734749030    -3.375464536149016    -0.486538214684029
    C               -0.973078734749030    -4.512464536149016    -0.725538214684029
    H               -2.797078734749030    -3.748464536149017     0.088461785315971
    H               -1.464078734749030    -2.598464536149016     0.094461785315971
    H               -2.301078734749030    -2.957464536149016    -1.428538214684029
    H               -0.643078734749029    -4.873464536149016     0.240461785315971
    H               -1.437290734749030    -5.368805536149017    -1.236608214684029
    H               -0.085288734749030    -4.141064536149017    -1.258358214684029
    C                2.535921265250971     2.558535463850984     0.290461785315971
    C               -1.077078734749030     0.342535463850983     0.105461785315971
    C               -1.024078734749030     1.476535463850983     0.901461785315971
    C                0.014921265250970    -0.104464536149017    -0.616538214684029
    C                0.157921265250970     2.193535463850984     0.981461785315971
    C                1.202921265250971     0.618535463850983    -0.536538214684029
    C                1.269921265250970     1.756535463850984     0.251461785315971
    H               -2.004078734749029    -0.211464536149017     0.051461785315971
    H               -1.895078734749030     1.797535463850984     1.453461785315971
    H               -0.054078734749030    -0.987464536149017    -1.235538214684029
    H                0.210921265250971     3.085535463850984     1.589461785315971
    H                2.064921265250971     0.293535463850984    -1.101538214684029
    H                2.271921265250970     3.615535463850984     0.251461785315971
    H                3.097921265250970     2.340535463850984    -0.619538214684029
    H                3.210231265250970     2.397018463850983     1.144401785315971

}
e, wfn = energy('scf', return_wfn=True)
gdma(wfn)
dmavals = variable('DMA DISTRIBUTED MULTIPOLES')
charges = np.array(dmavals)
print(charges)
np.save('SSI-046LEU-103PHE-1-dimer.npy', np.array(charges))--------------------------------------------------------------------------

*** tstart() called on ds3
*** at Mon Apr 27 21:44:02 2020

   => Loading Basis Set <=

    Name: CC-PVDZ
    Role: ORBITAL
    Keyword: BASIS
    atoms 1-2, 9-15  entry C          line   138 file /theoryfs2/ds/metcalf/miniconda2/envs/tf2gpu/share/psi4/basis/cc-pvdz.gbs
    atoms 3-8, 16-23 entry H          line    22 file /theoryfs2/ds/metcalf/miniconda2/envs/tf2gpu/share/psi4/basis/cc-pvdz.gbs

         ---------------------------------------------------------
                                   SCF
               by Justin Turney, Rob Parrish, Andy Simmonett
                          and Daniel G. A. Smith
                              RHF Reference
                        1 Threads,    500 MiB Core
         ---------------------------------------------------------

  ==> Geometry <==

    Molecular point group: c1
    Full point group: C1

    Geometry (in Angstrom), charge = 0, multiplicity = 1:

       Center              X                  Y                   Z               Mass
    ------------   -----------------  -----------------  -----------------  -----------------
         C           -1.954078734749    -3.375464536149    -0.486538214684    12.000000000000
         C           -0.973078734749    -4.512464536149    -0.725538214684    12.000000000000
         H           -2.797078734749    -3.748464536149     0.088461785316     1.007825032230
         H           -1.464078734749    -2.598464536149     0.094461785316     1.007825032230
         H           -2.301078734749    -2.957464536149    -1.428538214684     1.007825032230
         H           -0.643078734749    -4.873464536149     0.240461785316     1.007825032230
         H           -1.437290734749    -5.368805536149    -1.236608214684     1.007825032230
         H           -0.085288734749    -4.141064536149    -1.258358214684     1.007825032230
         C            2.535921265251     2.558535463851     0.290461785316    12.000000000000
         C           -1.077078734749     0.342535463851     0.105461785316    12.000000000000
         C           -1.024078734749     1.476535463851     0.901461785316    12.000000000000
         C            0.014921265251    -0.104464536149    -0.616538214684    12.000000000000
         C            0.157921265251     2.193535463851     0.981461785316    12.000000000000
         C            1.202921265251     0.618535463851    -0.536538214684    12.000000000000
         C            1.269921265251     1.756535463851     0.251461785316    12.000000000000
         H           -2.004078734749    -0.211464536149     0.051461785316     1.007825032230
         H           -1.895078734749     1.797535463851     1.453461785316     1.007825032230
         H           -0.054078734749    -0.987464536149    -1.235538214684     1.007825032230
         H            0.210921265251     3.085535463851     1.589461785316     1.007825032230
         H            2.064921265251     0.293535463851    -1.101538214684     1.007825032230
         H            2.271921265251     3.615535463851     0.251461785316     1.007825032230
         H            3.097921265251     2.340535463851    -0.619538214684     1.007825032230
         H            3.210231265251     2.397018463851     1.144401785316     1.007825032230

  Running in c1 symmetry.

  Rotational constants: A =      0.10821  B =      0.01886  C =      0.01658 [cm^-1]
  Rotational constants: A =   3244.14119  B =    565.36870  C =    497.17216 [MHz]
  Nuclear repulsion =  399.508082340856902

  Charge       = 0
  Multiplicity = 1
  Electrons    = 68
  Nalpha       = 34
  Nbeta        = 34

  ==> Algorithm <==

  SCF Algorithm Type is PK.
  DIIS enabled.
  MOM disabled.
  Fractional occupation disabled.
  Guess Type is SAD.
  Energy threshold   = 1.00e-06
  Density threshold  = 1.00e-10
  Integral threshold = 0.00e+00

  ==> Primary Basis <==

  Basis Set: CC-PVDZ
    Blend: CC-PVDZ
    Number of shells: 96
    Number of basis function: 196
    Number of Cartesian functions: 205
    Spherical Harmonics?: true
    Max angular momentum: 2

  ==> Pre-Iterations <==

   -------------------------------------------------------
    Irrep   Nso     Nmo     Nalpha   Nbeta   Ndocc  Nsocc
   -------------------------------------------------------
     A        196     196       0       0       0       0
   -------------------------------------------------------
    Total     196     196      34      34      34       0
   -------------------------------------------------------

  ==> Integral Setup <==

  Using integral reordering PK algorithm.
  Sizing the integral batches needed.
  Building batch lookup table.
   Calculation information:
      Number of atoms:                  23
      Number of AO shells:              96
      Number of primitives:            268
      Number of atomic orbitals:       205
      Number of basis functions:       196

      Integral cutoff                 1.00e-12
      Number of threads:                 1

	Batch   1 pq = [       0,    9405] index = [             0,44231715] size =     44231715
	Batch   2 pq = [    9405,   13301] index = [      44231715,88464951] size =     44233236
	Batch   3 pq = [   13301,   16290] index = [      88464951,132690195] size =     44225244
	Batch   4 pq = [   16290,   18810] index = [     132690195,176917455] size =     44227260
	Batch   5 pq = [   18810,   19306] index = [     176917455,186370471] size =      9453016
  Task number: 17
  Buffer size: 11059200
  Buffer per thread: 2
  We computed 8391188 shell quartets total.
  Whereas there are 10841496 unique shell quartets.

  ==> DiskJK: Disk-Based J/K Matrices <==

    J tasked:                  Yes
    K tasked:                  Yes
    wK tasked:                  No
    Memory [MiB]:              375
    Schwarz Cutoff:          1E-12

    OpenMP threads:              1

  Minimum eigenvalue in the overlap matrix is 3.0675954509E-04.
  Using Symmetric Orthogonalization.

  SCF Guess: Superposition of Atomic Densities via on-the-fly atomic UHF.

  ==> Iterations <==

                        Total Energy        Delta E     RMS |[F,P]|

   @RHF iter SAD:  -347.95296754219800   -3.47953e+02   0.00000e+00
   @RHF iter   1:  -348.76250775427462   -8.09540e-01   2.91653e-03 DIIS
   @RHF iter   2:  -348.95710487721198   -1.94597e-01   1.21365e-03 DIIS
   @RHF iter   3:  -348.98787127612167   -3.07664e-02   2.61324e-04 DIIS
   @RHF iter   4:  -348.99037564295315   -2.50437e-03   5.68280e-05 DIIS
   @RHF iter   5:  -348.99045844606133   -8.28031e-05   1.86340e-05 DIIS
   @RHF iter   6:  -348.99046707682322   -8.63076e-06   4.96056e-06 DIIS
   @RHF iter   7:  -348.99046782509117   -7.48268e-07   1.38514e-06 DIIS
   @RHF iter   8:  -348.99046790887672   -8.37856e-08   4.56954e-07 DIIS
   @RHF iter   9:  -348.99046792897809   -2.01014e-08   2.27213e-07 DIIS
   @RHF iter  10:  -348.99046793480323   -5.82514e-09   9.95348e-08 DIIS
   @RHF iter  11:  -348.99046793619777   -1.39454e-09   2.73840e-08 DIIS
   @RHF iter  12:  -348.99046793626229   -6.45173e-11   1.11873e-08 DIIS
   @RHF iter  13:  -348.99046793626832   -6.02540e-12   4.23401e-09 DIIS
   @RHF iter  14:  -348.99046793626883   -5.11591e-13   1.38180e-09 DIIS
   @RHF iter  15:  -348.99046793626826    5.68434e-13   6.82956e-10 DIIS
   @RHF iter  16:  -348.99046793626860   -3.41061e-13   2.90398e-10 DIIS
   @RHF iter  17:  -348.99046793627059   -1.98952e-12   9.63386e-11 DIIS
  Energy and wave function converged.

  ==> Post-Iterations <==

    Orbital Energies [Eh]
    ---------------------

    Doubly Occupied:

       1A    -11.239072     2A    -11.234490     3A    -11.233903
       4A    -11.230792     5A    -11.229845     6A    -11.228201
       7A    -11.226598     8A    -11.217998     9A    -11.215321
      10A     -1.155161    11A     -1.044760    12A     -1.021619
      13A     -1.015166    14A     -0.928959    15A     -0.838026
      16A     -0.826759    17A     -0.795057    18A     -0.691836
      19A     -0.632577    20A     -0.631873    21A     -0.602316
      22A     -0.598311    23A     -0.587579    24A     -0.575228
      25A     -0.557443    26A     -0.531613    27A     -0.502799
      28A     -0.490031    29A     -0.488855    30A     -0.486010
      31A     -0.482644    32A     -0.478160    33A     -0.334404
      34A     -0.321100

    Virtual:

      35A      0.134088    36A      0.142024    37A      0.172560
      38A      0.191261    39A      0.207091    40A      0.220159
      41A      0.225752    42A      0.244458    43A      0.255469
      44A      0.261138    45A      0.269964    46A      0.276803
      47A      0.286867    48A      0.292100    49A      0.306809
      50A      0.328221    51A      0.368377    52A      0.376556
      53A      0.403850    54A      0.454819    55A      0.461934
      56A      0.476026    57A      0.493274    58A      0.565355
      59A      0.592973    60A      0.598238    61A      0.620391
      62A      0.625739    63A      0.637234    64A      0.672369
      65A      0.678017    66A      0.692001    67A      0.697159
      68A      0.713739    69A      0.725156    70A      0.740862
      71A      0.744965    72A      0.752030    73A      0.764903
      74A      0.771232    75A      0.781929    76A      0.812831
      77A      0.843340    78A      0.850220    79A      0.855605
      80A      0.868592    81A      0.879001    82A      0.884531
      83A      0.893338    84A      0.895696    85A      0.900545
      86A      0.905298    87A      0.913959    88A      0.919575
      89A      0.932468    90A      0.937223    91A      0.942880
      92A      0.962464    93A      0.990353    94A      0.997360
      95A      1.032630    96A      1.055456    97A      1.118055
      98A      1.125730    99A      1.142411   100A      1.143631
     101A      1.160208   102A      1.179267   103A      1.199303
     104A      1.234545   105A      1.241996   106A      1.249619
     107A      1.263552   108A      1.283299   109A      1.309714
     110A      1.310477   111A      1.318866   112A      1.332787
     113A      1.408398   114A      1.468172   115A      1.486075
     116A      1.504078   117A      1.514422   118A      1.555721
     119A      1.587374   120A      1.610077   121A      1.683800
     122A      1.692634   123A      1.697595   124A      1.703645
     125A      1.744855   126A      1.753531   127A      1.755857
     128A      1.784936   129A      1.818103   130A      1.861281
     131A      1.862818   132A      1.875424   133A      1.892231
     134A      1.901208   135A      1.902902   136A      1.912357
     137A      1.915287   138A      1.932125   139A      1.940252
     140A      1.944051   141A      1.958878   142A      1.962741
     143A      1.967070   144A      1.969906   145A      1.981727
     146A      1.989734   147A      1.997001   148A      2.005762
     149A      2.046264   150A      2.053789   151A      2.070194
     152A      2.094137   153A      2.118569   154A      2.124837
     155A      2.151397   156A      2.170295   157A      2.176898
     158A      2.188035   159A      2.201459   160A      2.240949
     161A      2.277530   162A      2.296627   163A      2.302838
     164A      2.310764   165A      2.320950   166A      2.325283
     167A      2.341530   168A      2.451822   169A      2.466972
     170A      2.479176   171A      2.481779   172A      2.514229
     173A      2.552110   174A      2.567247   175A      2.584347
     176A      2.617159   177A      2.746268   178A      2.761807
     179A      2.763842   180A      2.769324   181A      2.795049
     182A      2.805072   183A      2.814736   184A      2.860312
     185A      2.867097   186A      2.868139   187A      2.879300
     188A      2.958336   189A      2.971396   190A      2.986652
     191A      3.019954   192A      3.038715   193A      3.159197
     194A      3.210987   195A      3.314832   196A      3.985018

    Final Occupation by Irrep:
              A
    DOCC [    34 ]

  @RHF Final Energy:  -348.99046793627059

   => Energetics <=

    Nuclear Repulsion Energy =            399.5080823408569017
    One-Electron Energy =               -1261.6480890094262577
    Two-Electron Energy =                 513.1495387322987654
    Total Energy =                       -348.9904679362706474

Computation Completed

Properties will be evaluated at   0.000000,   0.000000,   0.000000 [a0]

Properties computed using the SCF density matrix

  Nuclear Dipole Moment: [e a0]
     X:    -1.7111      Y:   -10.6468      Z:    -1.8435

  Electronic Dipole Moment: [e a0]
     X:     1.7978      Y:    10.7340      Z:     1.8771

  Dipole Moment: [e a0]
     X:     0.0867      Y:     0.0872      Z:     0.0336     Total:     0.1275

  Dipole Moment: [D]
     X:     0.2204      Y:     0.2217      Z:     0.0854     Total:     0.3240

*** tstop() called on ds3 at Mon Apr 27 21:45:26 2020
Module time:
	user time   =      59.03 seconds =       0.98 minutes
	system time =      27.44 seconds =       0.46 minutes
	total time  =         84 seconds =       1.40 minutes
Total time:
	user time   =      59.03 seconds =       0.98 minutes
	system time =      27.44 seconds =       0.46 minutes
	total time  =         84 seconds =       1.40 minutes
                                     G D M A

                                 by Anthony Stone

                           version 2.2.06, 22 June 2011

               Distributed Multipoles from Gaussian wavefunctions

Starting at 21:45:26 on 27 Apr 2020

Using SCF density matrix from file ./SSI/SSI-046LEU-103PHE-1-dimer.test.13626.fchk

                         Distributed Multipole Analysis

Standard DMA

Positions and radii in angstrom
Multipole moments in atomic units, ea_0^k for rank k

C          x = -1.954079  y = -3.375465  z = -0.486538 angstrom
           Maximum rank =  0   Radius =  0.650 angstrom
                   Q00  =  -0.232254

C          x = -0.973079  y = -4.512465  z = -0.725538 angstrom
           Maximum rank =  0   Radius =  0.650 angstrom
                   Q00  =  -0.241404

H          x = -2.797079  y = -3.748465  z =  0.088462 angstrom
           Maximum rank =  0   Radius =  0.325 angstrom
                   Q00  =   0.080029

H          x = -1.464079  y = -2.598465  z =  0.094462 angstrom
           Maximum rank =  0   Radius =  0.325 angstrom
                   Q00  =   0.082752

H          x = -2.301079  y = -2.957465  z = -1.428538 angstrom
           Maximum rank =  0   Radius =  0.325 angstrom
                   Q00  =   0.076020

H          x = -0.643079  y = -4.873465  z =  0.240462 angstrom
           Maximum rank =  0   Radius =  0.325 angstrom
                   Q00  =   0.078344

H          x = -1.437291  y = -5.368806  z = -1.236608 angstrom
           Maximum rank =  0   Radius =  0.325 angstrom
                   Q00  =   0.079850

H          x = -0.085289  y = -4.141065  z = -1.258358 angstrom
           Maximum rank =  0   Radius =  0.325 angstrom
                   Q00  =   0.075681

C          x =  2.535921  y =  2.558535  z =  0.290462 angstrom
           Maximum rank =  0   Radius =  0.650 angstrom
                   Q00  =  -0.198754

C          x = -1.077079  y =  0.342535  z =  0.105462 angstrom
           Maximum rank =  0   Radius =  0.650 angstrom
                   Q00  =   0.004326

C          x = -1.024079  y =  1.476535  z =  0.901462 angstrom
           Maximum rank =  0   Radius =  0.650 angstrom
                   Q00  =  -0.070846

C          x =  0.014921  y = -0.104465  z = -0.616538 angstrom
           Maximum rank =  0   Radius =  0.650 angstrom
                   Q00  =  -0.075707

C          x =  0.157921  y =  2.193535  z =  0.981462 angstrom
           Maximum rank =  0   Radius =  0.650 angstrom
                   Q00  =  -0.099278

C          x =  1.202921  y =  0.618535  z = -0.536538 angstrom
           Maximum rank =  0   Radius =  0.650 angstrom
                   Q00  =  -0.085950

C          x =  1.269921  y =  1.756535  z =  0.251462 angstrom
           Maximum rank =  0   Radius =  0.650 angstrom
                   Q00  =  -0.070870

H          x = -2.004079  y = -0.211465  z =  0.051462 angstrom
           Maximum rank =  0   Radius =  0.325 angstrom
                   Q00  =   0.057828

H          x = -1.895079  y =  1.797535  z =  1.453462 angstrom
           Maximum rank =  0   Radius =  0.325 angstrom
                   Q00  =   0.064512

H          x = -0.054079  y = -0.987465  z = -1.235538 angstrom
           Maximum rank =  0   Radius =  0.325 angstrom
                   Q00  =   0.067585

H          x =  0.210921  y =  3.085535  z =  1.589462 angstrom
           Maximum rank =  0   Radius =  0.325 angstrom
                   Q00  =   0.058966

H          x =  2.064921  y =  0.293535  z = -1.101538 angstrom
           Maximum rank =  0   Radius =  0.325 angstrom
                   Q00  =   0.057965

H          x =  2.271921  y =  3.615535  z =  0.251462 angstrom
           Maximum rank =  0   Radius =  0.325 angstrom
                   Q00  =   0.095499

H          x =  3.097921  y =  2.340535  z = -0.619538 angstrom
           Maximum rank =  0   Radius =  0.325 angstrom
                   Q00  =   0.092449

H          x =  3.210231  y =  2.397018  z =  1.144402 angstrom
           Maximum rank =  0   Radius =  0.325 angstrom
                   Q00  =   0.103258

Total multipoles referred to origin at
           x =   0.000000,  y =    0.000000,  z =    0.000000 angstrom
                   Q00  =  -0.000000

Finished at 21:45:26 on 27 Apr 2020

  DMA results are available in the Python driver through the
	  variable('DMA DISTRIBUTED MULTIPOLES')
  and
	  variable('DMA TOTAL MULTIPOLES')
  commands.

    Psi4 stopped on: Monday, 27 April 2020 09:45PM
    Psi4 wall time for execution: 0:01:23.74

*** Psi4 exiting successfully. Buy a developer a beer!
