                               Psi4 1.3.2 release

  ==> Input File <==

--------------------------------------------------------------------------
import numpy as np
set {scf_type pk
basis cc-pvdz
d_convergence 10
gdma_switch   0
gdma_limit    0
gdma_origin   [ 0.0,  0.0,  0.0 ]
}
molecule test {
    units Angstrom
    0 1
    --
    0 1
    C               -1.418407797151482     0.986395362858586    -1.188134483792887
    C               -2.209407797151482     0.015395362858586    -2.064134483792887
    C               -1.179407797151482     0.534395362858586     0.220865516207113
    C               -1.610407797151482    -0.569604637141414     0.886865516207113
    C               -0.374407797151482     0.621395362858586     2.265865516207113
    N               -0.408407797151482     1.260395362858586     1.103865516207113
    N               -1.102407797151482    -0.486604637141414     2.164865516207113
    H               -0.450407797151482     1.190395362858586    -1.645134483792887
    H               -1.970407797151482     1.922395362858586    -1.140134483792887
    H               -3.200407797151482    -0.103604637141414    -1.620134483792887
    H               -2.302407797151482    -1.316604637141414     0.513865516207113
    H                0.102592202848518     0.988395362858586     3.166865516207114
    H               -1.510407797151482    -0.957604637141414     2.972865516207114
    H               -1.717504797151482    -0.966154637141414    -2.131934483792887
    H               -2.325274797151482     0.485385362858586    -3.051904483792887
    C                2.576592202848518    -0.416604637141414     0.565865516207113
    C                1.958592202848518    -0.482604637141414    -0.814134483792887
    O                2.186592202848518     0.378395362858586    -1.657134483792887
    N                1.179592202848518    -1.525604637141414    -1.076134483792887
    H                1.795592202848518    -0.443604637141414     1.315865516207113
    H                3.099592202848517     0.535395362858586     0.647865516207113
    H                1.054592202848518    -1.697604637141414    -2.066134483792887
    H                0.897592202848518    -2.170604637141414    -0.363134483792887
    H                3.298167202848518    -1.226664637141414     0.747875516207113

}
e, wfn = energy('scf', return_wfn=True)
gdma(wfn)
dmavals = variable('DMA DISTRIBUTED MULTIPOLES')
charges = np.array(dmavals)
print(charges)
np.save('SSI-011HIE-306ASN-1-dimer.npy', np.array(charges))--------------------------------------------------------------------------

*** tstart() called on ds3
*** at Mon Apr 27 22:26:55 2020

   => Loading Basis Set <=

    Name: CC-PVDZ
    Role: ORBITAL
    Keyword: BASIS
    atoms 1-5, 16-17  entry C          line   138 file /theoryfs2/ds/metcalf/miniconda2/envs/tf2gpu/share/psi4/basis/cc-pvdz.gbs
    atoms 6-7, 19     entry N          line   168 file /theoryfs2/ds/metcalf/miniconda2/envs/tf2gpu/share/psi4/basis/cc-pvdz.gbs
    atoms 8-15, 20-24 entry H          line    22 file /theoryfs2/ds/metcalf/miniconda2/envs/tf2gpu/share/psi4/basis/cc-pvdz.gbs
    atoms 18          entry O          line   198 file /theoryfs2/ds/metcalf/miniconda2/envs/tf2gpu/share/psi4/basis/cc-pvdz.gbs

         ---------------------------------------------------------
                                   SCF
               by Justin Turney, Rob Parrish, Andy Simmonett
                          and Daniel G. A. Smith
                              RHF Reference
                        1 Threads,    500 MiB Core
         ---------------------------------------------------------

  ==> Geometry <==

    Molecular point group: c1
    Full point group: C1

    Geometry (in Angstrom), charge = 0, multiplicity = 1:

       Center              X                  Y                   Z               Mass
    ------------   -----------------  -----------------  -----------------  -----------------
         C           -1.418407797151     0.986395362859    -1.188134483793    12.000000000000
         C           -2.209407797151     0.015395362859    -2.064134483793    12.000000000000
         C           -1.179407797151     0.534395362859     0.220865516207    12.000000000000
         C           -1.610407797151    -0.569604637141     0.886865516207    12.000000000000
         C           -0.374407797151     0.621395362859     2.265865516207    12.000000000000
         N           -0.408407797151     1.260395362859     1.103865516207    14.003074004430
         N           -1.102407797151    -0.486604637141     2.164865516207    14.003074004430
         H           -0.450407797151     1.190395362859    -1.645134483793     1.007825032230
         H           -1.970407797151     1.922395362859    -1.140134483793     1.007825032230
         H           -3.200407797151    -0.103604637141    -1.620134483793     1.007825032230
         H           -2.302407797151    -1.316604637141     0.513865516207     1.007825032230
         H            0.102592202849     0.988395362859     3.166865516207     1.007825032230
         H           -1.510407797151    -0.957604637141     2.972865516207     1.007825032230
         H           -1.717504797151    -0.966154637141    -2.131934483793     1.007825032230
         H           -2.325274797151     0.485385362859    -3.051904483793     1.007825032230
         C            2.576592202849    -0.416604637141     0.565865516207    12.000000000000
         C            1.958592202849    -0.482604637141    -0.814134483793    12.000000000000
         O            2.186592202849     0.378395362859    -1.657134483793    15.994914619570
         N            1.179592202849    -1.525604637141    -1.076134483793    14.003074004430
         H            1.795592202849    -0.443604637141     1.315865516207     1.007825032230
         H            3.099592202849     0.535395362859     0.647865516207     1.007825032230
         H            1.054592202849    -1.697604637141    -2.066134483793     1.007825032230
         H            0.897592202849    -2.170604637141    -0.363134483793     1.007825032230
         H            3.298167202849    -1.226664637141     0.747875516207     1.007825032230

  Running in c1 symmetry.

  Rotational constants: A =      0.04072  B =      0.02990  C =      0.02157 [cm^-1]
  Rotational constants: A =   1220.87581  B =    896.38537  C =    646.71010 [MHz]
  Nuclear repulsion =  629.101961916107825

  Charge       = 0
  Multiplicity = 1
  Electrons    = 84
  Nalpha       = 42
  Nbeta        = 42

  ==> Algorithm <==

  SCF Algorithm Type is PK.
  DIIS enabled.
  MOM disabled.
  Fractional occupation disabled.
  Guess Type is SAD.
  Energy threshold   = 1.00e-06
  Density threshold  = 1.00e-10
  Integral threshold = 0.00e+00

  ==> Primary Basis <==

  Basis Set: CC-PVDZ
    Blend: CC-PVDZ
    Number of shells: 105
    Number of basis function: 219
    Number of Cartesian functions: 230
    Spherical Harmonics?: true
    Max angular momentum: 2

  ==> Pre-Iterations <==

   -------------------------------------------------------
    Irrep   Nso     Nmo     Nalpha   Nbeta   Ndocc  Nsocc
   -------------------------------------------------------
     A        219     219       0       0       0       0
   -------------------------------------------------------
    Total     219     219      42      42      42       0
   -------------------------------------------------------

  ==> Integral Setup <==

  Using integral reordering PK algorithm.
  Sizing the integral batches needed.
  Building batch lookup table.
   Calculation information:
      Number of atoms:                  24
      Number of AO shells:             105
      Number of primitives:            307
      Number of atomic orbitals:       230
      Number of basis functions:       219

      Integral cutoff                 1.00e-12
      Number of threads:                 1

	Batch   1 pq = [       0,    9405] index = [             0,44231715] size =     44231715
	Batch   2 pq = [    9405,   13301] index = [      44231715,88464951] size =     44233236
	Batch   3 pq = [   13301,   16290] index = [      88464951,132690195] size =     44225244
	Batch   4 pq = [   16290,   18810] index = [     132690195,176917455] size =     44227260
	Batch   5 pq = [   18810,   21030] index = [     176917455,221140965] size =     44223510
	Batch   6 pq = [   21030,   23037] index = [     221140965,265363203] size =     44222238
	Batch   7 pq = [   23037,   24090] index = [     265363203,290176095] size =     24812892
  Task number: 27
  Buffer size: 11059200
  Buffer per thread: 2
  We computed 16987135 shell quartets total.
  Whereas there are 15487395 unique shell quartets.
     9.68 percent of shell quartets recomputed by reordering.

  ==> DiskJK: Disk-Based J/K Matrices <==

    J tasked:                  Yes
    K tasked:                  Yes
    wK tasked:                  No
    Memory [MiB]:              375
    Schwarz Cutoff:          1E-12

    OpenMP threads:              1

  Minimum eigenvalue in the overlap matrix is 1.1157474101E-03.
  Using Symmetric Orthogonalization.

  SCF Guess: Superposition of Atomic Densities via on-the-fly atomic UHF.

  ==> Iterations <==

                        Total Energy        Delta E     RMS |[F,P]|

   @RHF iter SAD:  -509.85882891052580   -5.09859e+02   0.00000e+00
   @RHF iter   1:  -510.57660265533445   -7.17774e-01   3.38625e-03 DIIS
   @RHF iter   2:  -510.81512100814086   -2.38518e-01   1.93960e-03 DIIS
   @RHF iter   3:  -510.88824068416562   -7.31197e-02   4.25733e-04 DIIS
   @RHF iter   4:  -510.89346855693009   -5.22787e-03   1.66138e-04 DIIS
   @RHF iter   5:  -510.89429968311077   -8.31126e-04   2.92025e-05 DIIS
   @RHF iter   6:  -510.89434901719051   -4.93341e-05   1.45396e-05 DIIS
   @RHF iter   7:  -510.89435901400816   -9.99682e-06   5.74189e-06 DIIS
   @RHF iter   8:  -510.89436110396525   -2.08996e-06   2.18908e-06 DIIS
   @RHF iter   9:  -510.89436144469209   -3.40727e-07   9.68355e-07 DIIS
   @RHF iter  10:  -510.89436149276969   -4.80776e-08   2.43641e-07 DIIS
   @RHF iter  11:  -510.89436149687214   -4.10245e-09   9.79957e-08 DIIS
   @RHF iter  12:  -510.89436149742335   -5.51211e-10   4.11509e-08 DIIS
   @RHF iter  13:  -510.89436149753772   -1.14369e-10   1.44886e-08 DIIS
   @RHF iter  14:  -510.89436149755221   -1.44951e-11   6.18938e-09 DIIS
   @RHF iter  15:  -510.89436149755994   -7.73070e-12   2.33796e-09 DIIS
   @RHF iter  16:  -510.89436149756489   -4.94538e-12   7.69823e-10 DIIS
   @RHF iter  17:  -510.89436149756045    4.43379e-12   2.95329e-10 DIIS
   @RHF iter  18:  -510.89436149756557   -5.11591e-12   7.15567e-11 DIIS
  Energy and wave function converged.

  ==> Post-Iterations <==

    Orbital Energies [Eh]
    ---------------------

    Doubly Occupied:

       1A    -20.496581     2A    -15.624391     3A    -15.574893
       4A    -15.532750     5A    -11.335854     6A    -11.297784
       7A    -11.252762     8A    -11.243026     9A    -11.224644
      10A    -11.220025    11A    -11.216366    12A     -1.360677
      13A     -1.347111    14A     -1.205832    15A     -1.158452
      16A     -1.053731    17A     -0.986508    18A     -0.984838
      19A     -0.865395    20A     -0.814296    21A     -0.784559
      22A     -0.760399    23A     -0.739002    24A     -0.721595
      25A     -0.644507    26A     -0.628471    27A     -0.606490
      28A     -0.599001    29A     -0.596683    30A     -0.587865
      31A     -0.577075    32A     -0.562950    33A     -0.539987
      34A     -0.507641    35A     -0.495414    36A     -0.492565
      37A     -0.484615    38A     -0.413461    39A     -0.401602
      40A     -0.395564    41A     -0.381793    42A     -0.313462

    Virtual:

      43A      0.156173    44A      0.175839    45A      0.176664
      46A      0.196954    47A      0.215475    48A      0.216936
      49A      0.227813    50A      0.229110    51A      0.237932
      52A      0.252383    53A      0.267752    54A      0.275928
      55A      0.282564    56A      0.301168    57A      0.313466
      58A      0.334812    59A      0.370611    60A      0.391261
      61A      0.396416    62A      0.421248    63A      0.421952
      64A      0.489559    65A      0.499214    66A      0.504614
      67A      0.558396    68A      0.605355    69A      0.613171
      70A      0.627724    71A      0.637322    72A      0.652253
      73A      0.664476    74A      0.679842    75A      0.684575
      76A      0.710146    77A      0.717943    78A      0.732134
      79A      0.761310    80A      0.774909    81A      0.793773
      82A      0.808349    83A      0.810297    84A      0.834503
      85A      0.849727    86A      0.865791    87A      0.872683
      88A      0.876656    89A      0.887216    90A      0.893796
      91A      0.901709    92A      0.906206    93A      0.914999
      94A      0.925415    95A      0.939508    96A      0.948254
      97A      0.949993    98A      0.973272    99A      0.984597
     100A      0.995069   101A      1.020186   102A      1.039860
     103A      1.053217   104A      1.055461   105A      1.081349
     106A      1.085781   107A      1.115417   108A      1.129985
     109A      1.141696   110A      1.160945   111A      1.167556
     112A      1.200188   113A      1.209440   114A      1.238388
     115A      1.260687   116A      1.299341   117A      1.306525
     118A      1.332197   119A      1.340070   120A      1.363289
     121A      1.378249   122A      1.395489   123A      1.430552
     124A      1.444224   125A      1.458720   126A      1.464139
     127A      1.480605   128A      1.489393   129A      1.503209
     130A      1.531116   131A      1.565617   132A      1.593457
     133A      1.628229   134A      1.655079   135A      1.666152
     136A      1.677343   137A      1.692243   138A      1.736850
     139A      1.757680   140A      1.775258   141A      1.777575
     142A      1.800628   143A      1.839948   144A      1.849032
     145A      1.875395   146A      1.889736   147A      1.891701
     148A      1.899966   149A      1.919097   150A      1.929104
     151A      1.937819   152A      1.953662   153A      1.957480
     154A      1.966351   155A      1.982862   156A      1.987895
     157A      2.001726   158A      2.012226   159A      2.027523
     160A      2.039102   161A      2.052676   162A      2.072582
     163A      2.088451   164A      2.121128   165A      2.128226
     166A      2.142013   167A      2.164285   168A      2.170683
     169A      2.198580   170A      2.206584   171A      2.230312
     172A      2.249011   173A      2.271519   174A      2.304541
     175A      2.341848   176A      2.353328   177A      2.374567
     178A      2.438561   179A      2.451752   180A      2.480294
     181A      2.485892   182A      2.498562   183A      2.523737
     184A      2.543189   185A      2.552465   186A      2.555726
     187A      2.606374   188A      2.613881   189A      2.621839
     190A      2.653637   191A      2.682015   192A      2.719811
     193A      2.737607   194A      2.766897   195A      2.776029
     196A      2.783874   197A      2.792924   198A      2.828742
     199A      2.833039   200A      2.885589   201A      2.891668
     202A      2.911316   203A      2.935159   204A      2.975598
     205A      3.007071   206A      3.012588   207A      3.035364
     208A      3.068621   209A      3.098556   210A      3.158878
     211A      3.171068   212A      3.256429   213A      3.330219
     214A      3.457273   215A      3.503392   216A      3.546137
     217A      3.745787   218A      3.875890   219A      3.915219

    Final Occupation by Irrep:
              A
    DOCC [    42 ]

  @RHF Final Energy:  -510.89436149756557

   => Energetics <=

    Nuclear Repulsion Energy =            629.1019619161078253
    One-Electron Energy =               -1943.9314128812877698
    Two-Electron Energy =                 803.9350894676144890
    Total Energy =                       -510.8943614975655692

Computation Completed

Properties will be evaluated at   0.000000,   0.000000,   0.000000 [a0]

Properties computed using the SCF density matrix

  Nuclear Dipole Moment: [e a0]
     X:    -3.0153      Y:    -3.5213      Z:    -2.5017

  Electronic Dipole Moment: [e a0]
     X:     2.0425      Y:     1.4541      Z:     4.0712

  Dipole Moment: [e a0]
     X:    -0.9729      Y:    -2.0672      Z:     1.5695     Total:     2.7718

  Dipole Moment: [D]
     X:    -2.4728      Y:    -5.2543      Z:     3.9892     Total:     7.0453

*** tstop() called on ds3 at Mon Apr 27 22:29:59 2020
Module time:
	user time   =     139.83 seconds =       2.33 minutes
	system time =      52.21 seconds =       0.87 minutes
	total time  =        184 seconds =       3.07 minutes
Total time:
	user time   =     139.83 seconds =       2.33 minutes
	system time =      52.21 seconds =       0.87 minutes
	total time  =        184 seconds =       3.07 minutes
                                     G D M A

                                 by Anthony Stone

                           version 2.2.06, 22 June 2011

               Distributed Multipoles from Gaussian wavefunctions

Starting at 22:29:59 on 27 Apr 2020

Using SCF density matrix from file ./SSI/SSI-011HIE-306ASN-1-dimer.test.16518.fchk

                         Distributed Multipole Analysis

Standard DMA

Positions and radii in angstrom
Multipole moments in atomic units, ea_0^k for rank k

C          x = -1.418408  y =  0.986395  z = -1.188134 angstrom
           Maximum rank =  0   Radius =  0.650 angstrom
                   Q00  =  -0.031173

C          x = -2.209408  y =  0.015395  z = -2.064134 angstrom
           Maximum rank =  0   Radius =  0.650 angstrom
                   Q00  =  -0.252522

C          x = -1.179408  y =  0.534395  z =  0.220866 angstrom
           Maximum rank =  0   Radius =  0.650 angstrom
                   Q00  =   0.222522

C          x = -1.610408  y = -0.569605  z =  0.886866 angstrom
           Maximum rank =  0   Radius =  0.650 angstrom
                   Q00  =  -0.033763

C          x = -0.374408  y =  0.621395  z =  2.265866 angstrom
           Maximum rank =  0   Radius =  0.650 angstrom
                   Q00  =   0.457490

N          x = -0.408408  y =  1.260395  z =  1.103866 angstrom
           Maximum rank =  0   Radius =  0.650 angstrom
                   Q00  =  -0.766041

N          x = -1.102408  y = -0.486605  z =  2.164866 angstrom
           Maximum rank =  0   Radius =  0.650 angstrom
                   Q00  =  -0.475413

H          x = -0.450408  y =  1.190395  z = -1.645134 angstrom
           Maximum rank =  0   Radius =  0.325 angstrom
                   Q00  =   0.110721

H          x = -1.970408  y =  1.922395  z = -1.140134 angstrom
           Maximum rank =  0   Radius =  0.325 angstrom
                   Q00  =   0.080774

H          x = -3.200408  y = -0.103605  z = -1.620134 angstrom
           Maximum rank =  0   Radius =  0.325 angstrom
                   Q00  =   0.070681

H          x = -2.302408  y = -1.316605  z =  0.513866 angstrom
           Maximum rank =  0   Radius =  0.325 angstrom
                   Q00  =   0.102938

H          x =  0.102592  y =  0.988395  z =  3.166866 angstrom
           Maximum rank =  0   Radius =  0.325 angstrom
                   Q00  =   0.124221

H          x = -1.510408  y = -0.957605  z =  2.972866 angstrom
           Maximum rank =  0   Radius =  0.325 angstrom
                   Q00  =   0.215346

H          x = -1.717505  y = -0.966155  z = -2.131934 angstrom
           Maximum rank =  0   Radius =  0.325 angstrom
                   Q00  =   0.074265

H          x = -2.325275  y =  0.485385  z = -3.051904 angstrom
           Maximum rank =  0   Radius =  0.325 angstrom
                   Q00  =   0.097274

C          x =  2.576592  y = -0.416605  z =  0.565866 angstrom
           Maximum rank =  0   Radius =  0.650 angstrom
                   Q00  =  -0.262711

C          x =  1.958592  y = -0.482605  z = -0.814134 angstrom
           Maximum rank =  0   Radius =  0.650 angstrom
                   Q00  =   0.824128

O          x =  2.186592  y =  0.378395  z = -1.657134 angstrom
           Maximum rank =  0   Radius =  0.650 angstrom
                   Q00  =  -0.787907

N          x =  1.179592  y = -1.525605  z = -1.076134 angstrom
           Maximum rank =  0   Radius =  0.650 angstrom
                   Q00  =  -0.534850

H          x =  1.795592  y = -0.443605  z =  1.315866 angstrom
           Maximum rank =  0   Radius =  0.325 angstrom
                   Q00  =   0.110009

H          x =  3.099592  y =  0.535395  z =  0.647866 angstrom
           Maximum rank =  0   Radius =  0.325 angstrom
                   Q00  =   0.126438

H          x =  1.054592  y = -1.697605  z = -2.066134 angstrom
           Maximum rank =  0   Radius =  0.325 angstrom
                   Q00  =   0.215975

H          x =  0.897592  y = -2.170605  z = -0.363134 angstrom
           Maximum rank =  0   Radius =  0.325 angstrom
                   Q00  =   0.210544

H          x =  3.298167  y = -1.226665  z =  0.747876 angstrom
           Maximum rank =  0   Radius =  0.325 angstrom
                   Q00  =   0.101055

Total multipoles referred to origin at
           x =   0.000000,  y =    0.000000,  z =    0.000000 angstrom
                   Q00  =  -0.000000

Finished at 22:29:59 on 27 Apr 2020

  DMA results are available in the Python driver through the
	  variable('DMA DISTRIBUTED MULTIPOLES')
  and
	  variable('DMA TOTAL MULTIPOLES')
  commands.

    Psi4 stopped on: Monday, 27 April 2020 10:29PM
    Psi4 wall time for execution: 0:03:04.44

*** Psi4 exiting successfully. Buy a developer a beer!
