                               Psi4 1.3.2 release

  ==> Input File <==

--------------------------------------------------------------------------
import numpy as np
set {scf_type pk
basis cc-pvdz
d_convergence 10
gdma_switch   0
gdma_limit    0
gdma_origin   [ 0.0,  0.0,  0.0 ]
}
molecule test {
    units Angstrom
    0 1
    --
    0 1
    C                1.749804427740855     0.783762235712366    -1.814283113556106
    C               -0.464195572259145    -0.239237764287634    -1.165283113556106
    C                0.946804427740855    -0.219237764287634    -1.041283113556106
    C               -1.263195572259145    -1.142237764287634    -0.450283113556106
    C               -0.672195572259145    -2.054237764287634     0.430716886443894
    C                1.560804427740855    -1.127237764287634    -0.160283113556106
    C                0.740804427740855    -2.050237764287634     0.592716886443894
    H               -0.953195572259145     0.475762235712366    -1.812283113556106
    H               -2.333195572259145    -1.125237764287634    -0.574283113556106
    H                2.726804427740855     0.884762235712366    -1.341283113556106
    H                1.249804427740855     1.748762235712366    -1.742283113556106
    H               -1.285195572259145    -2.750237764287634     0.987716886443894
    H                2.635804427740855    -1.131237764287634    -0.038283113556106
    H                1.206804427740855    -2.751237764287634     1.273716886443894
    H                1.885587427740855     0.520012235712366    -2.873533113556106
    C               -0.717195572259145     2.637762235712366     1.045716886443894
    C               -1.701195572259145     2.469762235712366     2.247716886443894
    H               -0.110195572259145     1.738762235712366     0.931716886443894
    H               -1.287195572259145     2.795762235712366     0.129716886443894
    H               -0.068195572259145     3.500762235712366     1.193716886443894
    H               -2.180195572259145     3.427762235712366     2.438716886443894
    H               -1.153275572259145     2.146352235712366     3.145038886443894
    H               -2.480245572259145     1.725242235712366     2.026877886443893

}
e, wfn = energy('scf', return_wfn=True)
gdma(wfn)
dmavals = variable('DMA DISTRIBUTED MULTIPOLES')
charges = np.array(dmavals)
print(charges)
np.save('SSI-022PHE-069VAL-2-dimer.npy', np.array(charges))--------------------------------------------------------------------------

*** tstart() called on ds3
*** at Tue Apr 28 13:31:20 2020

   => Loading Basis Set <=

    Name: CC-PVDZ
    Role: ORBITAL
    Keyword: BASIS
    atoms 1-7, 16-17  entry C          line   138 file /theoryfs2/ds/metcalf/miniconda2/envs/tf2gpu/share/psi4/basis/cc-pvdz.gbs
    atoms 8-15, 18-23 entry H          line    22 file /theoryfs2/ds/metcalf/miniconda2/envs/tf2gpu/share/psi4/basis/cc-pvdz.gbs

         ---------------------------------------------------------
                                   SCF
               by Justin Turney, Rob Parrish, Andy Simmonett
                          and Daniel G. A. Smith
                              RHF Reference
                        1 Threads,    500 MiB Core
         ---------------------------------------------------------

  ==> Geometry <==

    Molecular point group: c1
    Full point group: C1

    Geometry (in Angstrom), charge = 0, multiplicity = 1:

       Center              X                  Y                   Z               Mass
    ------------   -----------------  -----------------  -----------------  -----------------
         C            1.749804427741     0.783762235712    -1.814283113556    12.000000000000
         C           -0.464195572259    -0.239237764288    -1.165283113556    12.000000000000
         C            0.946804427741    -0.219237764288    -1.041283113556    12.000000000000
         C           -1.263195572259    -1.142237764288    -0.450283113556    12.000000000000
         C           -0.672195572259    -2.054237764288     0.430716886444    12.000000000000
         C            1.560804427741    -1.127237764288    -0.160283113556    12.000000000000
         C            0.740804427741    -2.050237764288     0.592716886444    12.000000000000
         H           -0.953195572259     0.475762235712    -1.812283113556     1.007825032230
         H           -2.333195572259    -1.125237764288    -0.574283113556     1.007825032230
         H            2.726804427741     0.884762235712    -1.341283113556     1.007825032230
         H            1.249804427741     1.748762235712    -1.742283113556     1.007825032230
         H           -1.285195572259    -2.750237764288     0.987716886444     1.007825032230
         H            2.635804427741    -1.131237764288    -0.038283113556     1.007825032230
         H            1.206804427741    -2.751237764288     1.273716886444     1.007825032230
         H            1.885587427741     0.520012235712    -2.873533113556     1.007825032230
         C           -0.717195572259     2.637762235712     1.045716886444    12.000000000000
         C           -1.701195572259     2.469762235712     2.247716886444    12.000000000000
         H           -0.110195572259     1.738762235712     0.931716886444     1.007825032230
         H           -1.287195572259     2.795762235712     0.129716886444     1.007825032230
         H           -0.068195572259     3.500762235712     1.193716886444     1.007825032230
         H           -2.180195572259     3.427762235712     2.438716886444     1.007825032230
         H           -1.153275572259     2.146352235712     3.145038886444     1.007825032230
         H           -2.480245572259     1.725242235712     2.026877886444     1.007825032230

  Running in c1 symmetry.

  Rotational constants: A =      0.05665  B =      0.03171  C =      0.02510 [cm^-1]
  Rotational constants: A =   1698.42250  B =    950.60956  C =    752.35136 [MHz]
  Nuclear repulsion =  410.838422980795372

  Charge       = 0
  Multiplicity = 1
  Electrons    = 68
  Nalpha       = 34
  Nbeta        = 34

  ==> Algorithm <==

  SCF Algorithm Type is PK.
  DIIS enabled.
  MOM disabled.
  Fractional occupation disabled.
  Guess Type is SAD.
  Energy threshold   = 1.00e-06
  Density threshold  = 1.00e-10
  Integral threshold = 0.00e+00

  ==> Primary Basis <==

  Basis Set: CC-PVDZ
    Blend: CC-PVDZ
    Number of shells: 96
    Number of basis function: 196
    Number of Cartesian functions: 205
    Spherical Harmonics?: true
    Max angular momentum: 2

  ==> Pre-Iterations <==

   -------------------------------------------------------
    Irrep   Nso     Nmo     Nalpha   Nbeta   Ndocc  Nsocc
   -------------------------------------------------------
     A        196     196       0       0       0       0
   -------------------------------------------------------
    Total     196     196      34      34      34       0
   -------------------------------------------------------

  ==> Integral Setup <==

  Using integral reordering PK algorithm.
  Sizing the integral batches needed.
  Building batch lookup table.
   Calculation information:
      Number of atoms:                  23
      Number of AO shells:              96
      Number of primitives:            268
      Number of atomic orbitals:       205
      Number of basis functions:       196

      Integral cutoff                 1.00e-12
      Number of threads:                 1

	Batch   1 pq = [       0,    9405] index = [             0,44231715] size =     44231715
	Batch   2 pq = [    9405,   13301] index = [      44231715,88464951] size =     44233236
	Batch   3 pq = [   13301,   16290] index = [      88464951,132690195] size =     44225244
	Batch   4 pq = [   16290,   18810] index = [     132690195,176917455] size =     44227260
	Batch   5 pq = [   18810,   19306] index = [     176917455,186370471] size =      9453016
  Task number: 17
  Buffer size: 11059200
  Buffer per thread: 2
  We computed 10167329 shell quartets total.
  Whereas there are 10841496 unique shell quartets.

  ==> DiskJK: Disk-Based J/K Matrices <==

    J tasked:                  Yes
    K tasked:                  Yes
    wK tasked:                  No
    Memory [MiB]:              375
    Schwarz Cutoff:          1E-12

    OpenMP threads:              1

  Minimum eigenvalue in the overlap matrix is 3.5572140566E-04.
  Using Symmetric Orthogonalization.

  SCF Guess: Superposition of Atomic Densities via on-the-fly atomic UHF.

  ==> Iterations <==

                        Total Energy        Delta E     RMS |[F,P]|

   @RHF iter SAD:  -347.57887354943944   -3.47579e+02   0.00000e+00
   @RHF iter   1:  -348.77210243723641   -1.19323e+00   2.81070e-03 DIIS
   @RHF iter   2:  -348.95702296285566   -1.84921e-01   1.14821e-03 DIIS
   @RHF iter   3:  -348.98493844149624   -2.79155e-02   2.55838e-04 DIIS
   @RHF iter   4:  -348.98736000940767   -2.42157e-03   5.84594e-05 DIIS
   @RHF iter   5:  -348.98744592309083   -8.59137e-05   1.97888e-05 DIIS
   @RHF iter   6:  -348.98745606307307   -1.01400e-05   4.97434e-06 DIIS
   @RHF iter   7:  -348.98745689301433   -8.29941e-07   1.37094e-06 DIIS
   @RHF iter   8:  -348.98745701303881   -1.20024e-07   5.50082e-07 DIIS
   @RHF iter   9:  -348.98745705000459   -3.69658e-08   2.92954e-07 DIIS
   @RHF iter  10:  -348.98745706039858   -1.03940e-08   1.29387e-07 DIIS
   @RHF iter  11:  -348.98745706255414   -2.15556e-09   3.79077e-08 DIIS
   @RHF iter  12:  -348.98745706268170   -1.27557e-10   1.62220e-08 DIIS
   @RHF iter  13:  -348.98745706269551   -1.38130e-11   4.48916e-09 DIIS
   @RHF iter  14:  -348.98745706269500    5.11591e-13   1.42046e-09 DIIS
   @RHF iter  15:  -348.98745706269636   -1.36424e-12   5.57303e-10 DIIS
   @RHF iter  16:  -348.98745706269739   -1.02318e-12   2.46707e-10 DIIS
   @RHF iter  17:  -348.98745706269614    1.25056e-12   1.01201e-10 DIIS
   @RHF iter  18:  -348.98745706269585    2.84217e-13   3.36695e-11 DIIS
  Energy and wave function converged.

  ==> Post-Iterations <==

    Orbital Energies [Eh]
    ---------------------

    Doubly Occupied:

       1A    -11.246686     2A    -11.246058     3A    -11.240762
       4A    -11.239018     5A    -11.237802     6A    -11.234216
       7A    -11.229947     8A    -11.216020     9A    -11.211915
      10A     -1.140727    11A     -1.042416    12A     -1.003648
      13A     -1.001183    14A     -0.929648    15A     -0.834081
      16A     -0.823163    17A     -0.791063    18A     -0.685974
      19A     -0.635634    20A     -0.624449    21A     -0.590294
      22A     -0.585844    23A     -0.578444    24A     -0.576737
      25A     -0.562575    26A     -0.534775    27A     -0.489312
      28A     -0.487257    29A     -0.485312    30A     -0.482549
      31A     -0.480168    32A     -0.473360    33A     -0.327583
      34A     -0.318552

    Virtual:

      35A      0.127766    36A      0.137245    37A      0.174248
      38A      0.196212    39A      0.201025    40A      0.214988
      41A      0.237309    42A      0.238930    43A      0.255004
      44A      0.263732    45A      0.267102    46A      0.274794
      47A      0.286782    48A      0.290353    49A      0.300256
      50A      0.312052    51A      0.354951    52A      0.372560
      53A      0.400590    54A      0.442274    55A      0.454073
      56A      0.469372    57A      0.490953    58A      0.560646
      59A      0.576114    60A      0.596832    61A      0.602186
      62A      0.606509    63A      0.656920    64A      0.659587
      65A      0.670925    66A      0.689266    67A      0.700343
      68A      0.704156    69A      0.728178    70A      0.734534
      71A      0.738844    72A      0.740256    73A      0.755480
      74A      0.768344    75A      0.776887    76A      0.821588
      77A      0.840256    78A      0.848923    79A      0.863980
      80A      0.867138    81A      0.877270    82A      0.884039
      83A      0.891995    84A      0.898950    85A      0.899438
      86A      0.901999    87A      0.914273    88A      0.918545
      89A      0.932491    90A      0.937294    91A      0.965987
      92A      0.971058    93A      0.981016    94A      0.999817
      95A      1.028223    96A      1.076809    97A      1.099603
      98A      1.121405    99A      1.130710   100A      1.139107
     101A      1.146062   102A      1.154501   103A      1.182362
     104A      1.221040   105A      1.232914   106A      1.244597
     107A      1.250355   108A      1.263166   109A      1.287633
     110A      1.293542   111A      1.309189   112A      1.317394
     113A      1.414490   114A      1.475715   115A      1.477891
     116A      1.502701   117A      1.518131   118A      1.548666
     119A      1.585957   120A      1.601361   121A      1.683476
     122A      1.689932   123A      1.691536   124A      1.701185
     125A      1.725165   126A      1.737617   127A      1.751753
     128A      1.791655   129A      1.803679   130A      1.841986
     131A      1.862402   132A      1.868791   133A      1.877854
     134A      1.887259   135A      1.889907   136A      1.903462
     137A      1.916272   138A      1.924987   139A      1.927661
     140A      1.932475   141A      1.944240   142A      1.948553
     143A      1.956482   144A      1.964890   145A      1.969834
     146A      1.980898   147A      1.990708   148A      1.994364
     149A      2.032092   150A      2.039727   151A      2.060568
     152A      2.093700   153A      2.115729   154A      2.121979
     155A      2.129661   156A      2.134131   157A      2.141688
     158A      2.162259   159A      2.177853   160A      2.235976
     161A      2.259605   162A      2.282882   163A      2.292149
     164A      2.303500   165A      2.310646   166A      2.315975
     167A      2.325047   168A      2.443061   169A      2.445786
     170A      2.455935   171A      2.475070   172A      2.492845
     173A      2.519986   174A      2.563061   175A      2.583205
     176A      2.610897   177A      2.721215   178A      2.735687
     179A      2.752698   180A      2.768700   181A      2.774960
     182A      2.792495   183A      2.803336   184A      2.840985
     185A      2.845581   186A      2.852472   187A      2.865842
     188A      2.937438   189A      2.950743   190A      2.966488
     191A      2.980043   192A      3.013985   193A      3.122846
     194A      3.159552   195A      3.249293   196A      3.890485

    Final Occupation by Irrep:
              A
    DOCC [    34 ]

  @RHF Final Energy:  -348.98745706269585

   => Energetics <=

    Nuclear Repulsion Energy =            410.8384229807953716
    One-Electron Energy =               -1284.4774184677175981
    Two-Electron Energy =                 524.6515384242263735
    Total Energy =                       -348.9874570626958530

Computation Completed

Properties will be evaluated at   0.000000,   0.000000,   0.000000 [a0]

Properties computed using the SCF density matrix

  Nuclear Dipole Moment: [e a0]
     X:    -2.0119      Y:    10.5053      Z:     3.5111

  Electronic Dipole Moment: [e a0]
     X:     2.0968      Y:   -10.4572      Z:    -3.5962

  Dipole Moment: [e a0]
     X:     0.0849      Y:     0.0480      Z:    -0.0852     Total:     0.1295

  Dipole Moment: [D]
     X:     0.2158      Y:     0.1221      Z:    -0.2165     Total:     0.3291

*** tstop() called on ds3 at Tue Apr 28 13:33:39 2020
Module time:
	user time   =      72.53 seconds =       1.21 minutes
	system time =      30.26 seconds =       0.50 minutes
	total time  =        139 seconds =       2.32 minutes
Total time:
	user time   =      72.53 seconds =       1.21 minutes
	system time =      30.26 seconds =       0.50 minutes
	total time  =        139 seconds =       2.32 minutes
                                     G D M A

                                 by Anthony Stone

                           version 2.2.06, 22 June 2011

               Distributed Multipoles from Gaussian wavefunctions

Starting at 13:33:39 on 28 Apr 2020

Using SCF density matrix from file ./SSI/SSI-022PHE-069VAL-2-dimer.test.16273.fchk

                         Distributed Multipole Analysis

Standard DMA

Positions and radii in angstrom
Multipole moments in atomic units, ea_0^k for rank k

C          x =  1.749804  y =  0.783762  z = -1.814283 angstrom
           Maximum rank =  0   Radius =  0.650 angstrom
                   Q00  =  -0.199063

C          x = -0.464196  y = -0.239238  z = -1.165283 angstrom
           Maximum rank =  0   Radius =  0.650 angstrom
                   Q00  =  -0.001316

C          x =  0.946804  y = -0.219238  z = -1.041283 angstrom
           Maximum rank =  0   Radius =  0.650 angstrom
                   Q00  =  -0.100667

C          x = -1.263196  y = -1.142238  z = -0.450283 angstrom
           Maximum rank =  0   Radius =  0.650 angstrom
                   Q00  =  -0.070838

C          x = -0.672196  y = -2.054238  z =  0.430717 angstrom
           Maximum rank =  0   Radius =  0.650 angstrom
                   Q00  =  -0.091650

C          x =  1.560804  y = -1.127238  z = -0.160283 angstrom
           Maximum rank =  0   Radius =  0.650 angstrom
                   Q00  =  -0.089883

C          x =  0.740804  y = -2.050238  z =  0.592717 angstrom
           Maximum rank =  0   Radius =  0.650 angstrom
                   Q00  =  -0.080897

H          x = -0.953196  y =  0.475762  z = -1.812283 angstrom
           Maximum rank =  0   Radius =  0.325 angstrom
                   Q00  =   0.057724

H          x = -2.333196  y = -1.125238  z = -0.574283 angstrom
           Maximum rank =  0   Radius =  0.325 angstrom
                   Q00  =   0.067422

H          x =  2.726804  y =  0.884762  z = -1.341283 angstrom
           Maximum rank =  0   Radius =  0.325 angstrom
                   Q00  =   0.097358

H          x =  1.249804  y =  1.748762  z = -1.742283 angstrom
           Maximum rank =  0   Radius =  0.325 angstrom
                   Q00  =   0.100828

H          x = -1.285196  y = -2.750238  z =  0.987717 angstrom
           Maximum rank =  0   Radius =  0.325 angstrom
                   Q00  =   0.067669

H          x =  2.635804  y = -1.131238  z = -0.038283 angstrom
           Maximum rank =  0   Radius =  0.325 angstrom
                   Q00  =   0.067982

H          x =  1.206804  y = -2.751238  z =  1.273717 angstrom
           Maximum rank =  0   Radius =  0.325 angstrom
                   Q00  =   0.073540

H          x =  1.885587  y =  0.520012  z = -2.873533 angstrom
           Maximum rank =  0   Radius =  0.325 angstrom
                   Q00  =   0.105729

C          x = -0.717196  y =  2.637762  z =  1.045717 angstrom
           Maximum rank =  0   Radius =  0.650 angstrom
                   Q00  =  -0.245656

C          x = -1.701196  y =  2.469762  z =  2.247717 angstrom
           Maximum rank =  0   Radius =  0.650 angstrom
                   Q00  =  -0.245787

H          x = -0.110196  y =  1.738762  z =  0.931717 angstrom
           Maximum rank =  0   Radius =  0.325 angstrom
                   Q00  =   0.096376

H          x = -1.287196  y =  2.795762  z =  0.129717 angstrom
           Maximum rank =  0   Radius =  0.325 angstrom
                   Q00  =   0.073966

H          x = -0.068196  y =  3.500762  z =  1.193717 angstrom
           Maximum rank =  0   Radius =  0.325 angstrom
                   Q00  =   0.076620

H          x = -2.180196  y =  3.427762  z =  2.438717 angstrom
           Maximum rank =  0   Radius =  0.325 angstrom
                   Q00  =   0.077129

H          x = -1.153276  y =  2.146352  z =  3.145039 angstrom
           Maximum rank =  0   Radius =  0.325 angstrom
                   Q00  =   0.081697

H          x = -2.480246  y =  1.725242  z =  2.026878 angstrom
           Maximum rank =  0   Radius =  0.325 angstrom
                   Q00  =   0.081714

Total multipoles referred to origin at
           x =   0.000000,  y =    0.000000,  z =    0.000000 angstrom
                   Q00  =  -0.000000

Finished at 13:33:39 on 28 Apr 2020

  DMA results are available in the Python driver through the
	  variable('DMA DISTRIBUTED MULTIPOLES')
  and
	  variable('DMA TOTAL MULTIPOLES')
  commands.

    Psi4 stopped on: Tuesday, 28 April 2020 01:33PM
    Psi4 wall time for execution: 0:02:18.79

*** Psi4 exiting successfully. Buy a developer a beer!
