                               Psi4 1.3.2 release

  ==> Input File <==

--------------------------------------------------------------------------
import numpy as np
set {scf_type pk
basis cc-pvdz
d_convergence 10
gdma_switch   0
gdma_limit    0
gdma_origin   [ 0.0,  0.0,  0.0 ]
}
molecule test {
    units Angstrom
    0 1
    --
    0 1
    C                1.833069997517321    -1.005161271411494    -0.902396438449047
    C               -0.074930002482679    -0.346161271411494     0.589603561550953
    C                0.364069997517321    -1.011161271411494    -0.547396438449047
    C               -1.432930002482679    -0.297161271411494     0.893603561550953
    C               -2.362930002482680    -0.895161271411494     0.061603561550953
    C               -0.570930002482679    -1.633161271411494    -1.383396438449047
    C               -1.942930002482679    -1.549161271411494    -1.088396438449047
    H                0.635069997517321     0.131838728588506     1.248603561550953
    H               -1.764930002482679     0.219838728588506     1.783603561550953
    H                2.088069997517321    -1.947161271411494    -1.391396438449047
    H                2.418069997517321    -0.930161271411494     0.010603561550953
    H               -3.416930002482679    -0.842161271411494     0.301603561550953
    H               -0.246930002482679    -2.152161271411494    -2.273396438449047
    H               -2.665930002482679    -1.998161271411494    -1.754396438449047
    H                2.116519997517321    -0.162693271411494    -1.550396438449047
    C                0.952069997517321     3.137838728588506     0.994603561550953
    C                2.448069997517321     2.763838728588506     1.150603561550953
    H                0.818069997517321     4.216838728588506     1.071603561550953
    H                0.601069997517321     2.805838728588506     0.017603561550953
    H                0.355069997517321     2.637838728588506     1.752603561550953
    H                2.522069997517321     1.679838728588506     1.236603561550953
    H                2.893749997517321     3.226765728588506     2.043393561550952
    H                3.022039997517321     3.061278728588506     0.260603561550953

}
e, wfn = energy('scf', return_wfn=True)
gdma(wfn)
dmavals = variable('DMA DISTRIBUTED MULTIPOLES')
charges = np.array(dmavals)
print(charges)
np.save('SSI-052PHE-073THR-1-dimer.npy', np.array(charges))--------------------------------------------------------------------------

*** tstart() called on ds3
*** at Tue Apr 28 15:20:09 2020

   => Loading Basis Set <=

    Name: CC-PVDZ
    Role: ORBITAL
    Keyword: BASIS
    atoms 1-7, 16-17  entry C          line   138 file /theoryfs2/ds/metcalf/miniconda2/envs/tf2gpu/share/psi4/basis/cc-pvdz.gbs
    atoms 8-15, 18-23 entry H          line    22 file /theoryfs2/ds/metcalf/miniconda2/envs/tf2gpu/share/psi4/basis/cc-pvdz.gbs

         ---------------------------------------------------------
                                   SCF
               by Justin Turney, Rob Parrish, Andy Simmonett
                          and Daniel G. A. Smith
                              RHF Reference
                        1 Threads,    500 MiB Core
         ---------------------------------------------------------

  ==> Geometry <==

    Molecular point group: c1
    Full point group: C1

    Geometry (in Angstrom), charge = 0, multiplicity = 1:

       Center              X                  Y                   Z               Mass
    ------------   -----------------  -----------------  -----------------  -----------------
         C            1.833069997517    -1.005161271411    -0.902396438449    12.000000000000
         C           -0.074930002483    -0.346161271411     0.589603561551    12.000000000000
         C            0.364069997517    -1.011161271411    -0.547396438449    12.000000000000
         C           -1.432930002483    -0.297161271411     0.893603561551    12.000000000000
         C           -2.362930002483    -0.895161271411     0.061603561551    12.000000000000
         C           -0.570930002483    -1.633161271411    -1.383396438449    12.000000000000
         C           -1.942930002483    -1.549161271411    -1.088396438449    12.000000000000
         H            0.635069997517     0.131838728589     1.248603561551     1.007825032230
         H           -1.764930002483     0.219838728589     1.783603561551     1.007825032230
         H            2.088069997517    -1.947161271411    -1.391396438449     1.007825032230
         H            2.418069997517    -0.930161271411     0.010603561551     1.007825032230
         H           -3.416930002483    -0.842161271411     0.301603561551     1.007825032230
         H           -0.246930002483    -2.152161271411    -2.273396438449     1.007825032230
         H           -2.665930002483    -1.998161271411    -1.754396438449     1.007825032230
         H            2.116519997517    -0.162693271411    -1.550396438449     1.007825032230
         C            0.952069997517     3.137838728589     0.994603561551    12.000000000000
         C            2.448069997517     2.763838728589     1.150603561551    12.000000000000
         H            0.818069997517     4.216838728589     1.071603561551     1.007825032230
         H            0.601069997517     2.805838728589     0.017603561551     1.007825032230
         H            0.355069997517     2.637838728589     1.752603561551     1.007825032230
         H            2.522069997517     1.679838728589     1.236603561551     1.007825032230
         H            2.893749997517     3.226765728589     2.043393561551     1.007825032230
         H            3.022039997517     3.061278728589     0.260603561551     1.007825032230

  Running in c1 symmetry.

  Rotational constants: A =      0.07639  B =      0.02660  C =      0.02119 [cm^-1]
  Rotational constants: A =   2290.22549  B =    797.54158  C =    635.34969 [MHz]
  Nuclear repulsion =  409.415249645459937

  Charge       = 0
  Multiplicity = 1
  Electrons    = 68
  Nalpha       = 34
  Nbeta        = 34

  ==> Algorithm <==

  SCF Algorithm Type is PK.
  DIIS enabled.
  MOM disabled.
  Fractional occupation disabled.
  Guess Type is SAD.
  Energy threshold   = 1.00e-06
  Density threshold  = 1.00e-10
  Integral threshold = 0.00e+00

  ==> Primary Basis <==

  Basis Set: CC-PVDZ
    Blend: CC-PVDZ
    Number of shells: 96
    Number of basis function: 196
    Number of Cartesian functions: 205
    Spherical Harmonics?: true
    Max angular momentum: 2

  ==> Pre-Iterations <==

   -------------------------------------------------------
    Irrep   Nso     Nmo     Nalpha   Nbeta   Ndocc  Nsocc
   -------------------------------------------------------
     A        196     196       0       0       0       0
   -------------------------------------------------------
    Total     196     196      34      34      34       0
   -------------------------------------------------------

  ==> Integral Setup <==

  Using integral reordering PK algorithm.
  Sizing the integral batches needed.
  Building batch lookup table.
   Calculation information:
      Number of atoms:                  23
      Number of AO shells:              96
      Number of primitives:            268
      Number of atomic orbitals:       205
      Number of basis functions:       196

      Integral cutoff                 1.00e-12
      Number of threads:                 1

	Batch   1 pq = [       0,    9405] index = [             0,44231715] size =     44231715
	Batch   2 pq = [    9405,   13301] index = [      44231715,88464951] size =     44233236
	Batch   3 pq = [   13301,   16290] index = [      88464951,132690195] size =     44225244
	Batch   4 pq = [   16290,   18810] index = [     132690195,176917455] size =     44227260
	Batch   5 pq = [   18810,   19306] index = [     176917455,186370471] size =      9453016
  Task number: 17
  Buffer size: 11059200
  Buffer per thread: 2
  We computed 9925861 shell quartets total.
  Whereas there are 10841496 unique shell quartets.

  ==> DiskJK: Disk-Based J/K Matrices <==

    J tasked:                  Yes
    K tasked:                  Yes
    wK tasked:                  No
    Memory [MiB]:              375
    Schwarz Cutoff:          1E-12

    OpenMP threads:              1

  Minimum eigenvalue in the overlap matrix is 3.0860890296E-04.
  Using Symmetric Orthogonalization.

  SCF Guess: Superposition of Atomic Densities via on-the-fly atomic UHF.

  ==> Iterations <==

                        Total Energy        Delta E     RMS |[F,P]|

   @RHF iter SAD:  -347.82664726220293   -3.47827e+02   0.00000e+00
   @RHF iter   1:  -348.76944518811837   -9.42798e-01   2.87324e-03 DIIS
   @RHF iter   2:  -348.96030762753662   -1.90862e-01   1.18591e-03 DIIS
   @RHF iter   3:  -348.98983889505212   -2.95313e-02   2.57745e-04 DIIS
   @RHF iter   4:  -348.99229467551891   -2.45578e-03   5.35213e-05 DIIS
   @RHF iter   5:  -348.99236895986246   -7.42843e-05   1.80900e-05 DIIS
   @RHF iter   6:  -348.99237692528794   -7.96543e-06   4.76610e-06 DIIS
   @RHF iter   7:  -348.99237756410980   -6.38822e-07   1.21751e-06 DIIS
   @RHF iter   8:  -348.99237760934147   -4.52317e-08   2.73730e-07 DIIS
   @RHF iter   9:  -348.99237761291198   -3.57051e-09   1.06043e-07 DIIS
   @RHF iter  10:  -348.99237761342363   -5.11648e-10   4.16290e-08 DIIS
   @RHF iter  11:  -348.99237761355693   -1.33298e-10   1.73382e-08 DIIS
   @RHF iter  12:  -348.99237761358677   -2.98428e-11   9.30627e-09 DIIS
   @RHF iter  13:  -348.99237761359240   -5.62750e-12   3.70522e-09 DIIS
   @RHF iter  14:  -348.99237761359461   -2.21689e-12   1.10896e-09 DIIS
   @RHF iter  15:  -348.99237761359575   -1.13687e-12   3.52502e-10 DIIS
   @RHF iter  16:  -348.99237761359393    1.81899e-12   1.03209e-10 DIIS
   @RHF iter  17:  -348.99237761359205    1.87583e-12   4.53269e-11 DIIS
  Energy and wave function converged.

  ==> Post-Iterations <==

    Orbital Energies [Eh]
    ---------------------

    Doubly Occupied:

       1A    -11.240887     2A    -11.236677     3A    -11.234146
       4A    -11.232614     5A    -11.229953     6A    -11.229297
       7A    -11.229207     8A    -11.222140     9A    -11.217658
      10A     -1.151973    11A     -1.044311    12A     -1.013916
      13A     -1.009315    14A     -0.931072    15A     -0.839882
      16A     -0.825785    17A     -0.794057    18A     -0.691042
      19A     -0.631200    20A     -0.630435    21A     -0.598769
      22A     -0.594386    23A     -0.579568    24A     -0.575171
      25A     -0.561898    26A     -0.536442    27A     -0.497911
      28A     -0.490570    29A     -0.487359    30A     -0.486108
      31A     -0.484152    32A     -0.479122    33A     -0.330278
      34A     -0.323203

    Virtual:

      35A      0.134082    36A      0.141097    37A      0.168254
      38A      0.192056    39A      0.203148    40A      0.220336
      41A      0.230498    42A      0.234832    43A      0.253267
      44A      0.259977    45A      0.269637    46A      0.283220
      47A      0.289856    48A      0.298154    49A      0.312860
      50A      0.344483    51A      0.375718    52A      0.381745
      53A      0.392535    54A      0.452592    55A      0.463016
      56A      0.481427    57A      0.496612    58A      0.562616
      59A      0.580737    60A      0.597115    61A      0.599629
      62A      0.622085    63A      0.659051    64A      0.664287
      65A      0.669233    66A      0.691684    67A      0.702804
      68A      0.719235    69A      0.722583    70A      0.738466
      71A      0.745377    72A      0.746274    73A      0.759762
      74A      0.770865    75A      0.779871    76A      0.805028
      77A      0.829085    78A      0.848698    79A      0.855120
      80A      0.861958    81A      0.870024    82A      0.875488
      83A      0.883698    84A      0.894544    85A      0.897687
      86A      0.904355    87A      0.916606    88A      0.926182
      89A      0.939794    90A      0.945739    91A      0.968326
      92A      0.997221    93A      1.001615    94A      1.005056
      95A      1.030902    96A      1.057956    97A      1.109075
      98A      1.122438    99A      1.126486   100A      1.139533
     101A      1.156672   102A      1.172151   103A      1.192149
     104A      1.231726   105A      1.239080   106A      1.245558
     107A      1.254960   108A      1.259477   109A      1.301076
     110A      1.306724   111A      1.323064   112A      1.337540
     113A      1.412150   114A      1.465777   115A      1.479694
     116A      1.503184   117A      1.522062   118A      1.556973
     119A      1.610360   120A      1.627826   121A      1.671080
     122A      1.686659   123A      1.695576   124A      1.708585
     125A      1.735084   126A      1.745853   127A      1.758330
     128A      1.789271   129A      1.809009   130A      1.854830
     131A      1.864057   132A      1.870552   133A      1.880899
     134A      1.898853   135A      1.904322   136A      1.915800
     137A      1.918281   138A      1.921997   139A      1.934354
     140A      1.939505   141A      1.944889   142A      1.954329
     143A      1.956759   144A      1.963349   145A      1.968765
     146A      1.978060   147A      1.991707   148A      2.014113
     149A      2.042110   150A      2.066370   151A      2.074538
     152A      2.107393   153A      2.121931   154A      2.125374
     155A      2.141760   156A      2.157254   157A      2.166246
     158A      2.178017   159A      2.181873   160A      2.258903
     161A      2.284050   162A      2.290363   163A      2.299676
     164A      2.302537   165A      2.314887   166A      2.321491
     167A      2.323999   168A      2.442245   169A      2.449486
     170A      2.466030   171A      2.487413   172A      2.494899
     173A      2.538460   174A      2.566903   175A      2.580885
     176A      2.622737   177A      2.740620   178A      2.755147
     179A      2.768157   180A      2.771456   181A      2.784595
     182A      2.796986   183A      2.810366   184A      2.846084
     185A      2.852816   186A      2.867815   187A      2.879727
     188A      2.945357   189A      2.958862   190A      2.982380
     191A      3.014996   192A      3.023862   193A      3.153660
     194A      3.200446   195A      3.297430   196A      3.966361

    Final Occupation by Irrep:
              A
    DOCC [    34 ]

  @RHF Final Energy:  -348.99237761359205

   => Energetics <=

    Nuclear Repulsion Energy =            409.4152496454599373
    One-Electron Energy =               -1281.4942424748735448
    Two-Electron Energy =                 523.0866152158215527
    Total Energy =                       -348.9923776135921116

Computation Completed

Properties will be evaluated at   0.000000,   0.000000,   0.000000 [a0]

Properties computed using the SCF density matrix

  Nuclear Dipole Moment: [e a0]
     X:     8.7889      Y:     9.3256      Z:     2.5848

  Electronic Dipole Moment: [e a0]
     X:    -8.7016      Y:    -9.3069      Z:    -2.6485

  Dipole Moment: [e a0]
     X:     0.0872      Y:     0.0186      Z:    -0.0637     Total:     0.1096

  Dipole Moment: [D]
     X:     0.2217      Y:     0.0473      Z:    -0.1619     Total:     0.2786

*** tstop() called on ds3 at Tue Apr 28 15:23:16 2020
Module time:
	user time   =      67.80 seconds =       1.13 minutes
	system time =      26.16 seconds =       0.44 minutes
	total time  =        187 seconds =       3.12 minutes
Total time:
	user time   =      67.80 seconds =       1.13 minutes
	system time =      26.16 seconds =       0.44 minutes
	total time  =        187 seconds =       3.12 minutes
                                     G D M A

                                 by Anthony Stone

                           version 2.2.06, 22 June 2011

               Distributed Multipoles from Gaussian wavefunctions

Starting at 15:23:16 on 28 Apr 2020

Using SCF density matrix from file ./SSI/SSI-052PHE-073THR-1-dimer.test.14583.fchk

                         Distributed Multipole Analysis

Standard DMA

Positions and radii in angstrom
Multipole moments in atomic units, ea_0^k for rank k

C          x =  1.833070  y = -1.005161  z = -0.902396 angstrom
           Maximum rank =  0   Radius =  0.650 angstrom
                   Q00  =  -0.205487

C          x = -0.074930  y = -0.346161  z =  0.589604 angstrom
           Maximum rank =  0   Radius =  0.650 angstrom
                   Q00  =  -0.087344

C          x =  0.364070  y = -1.011161  z = -0.547396 angstrom
           Maximum rank =  0   Radius =  0.650 angstrom
                   Q00  =  -0.097569

C          x = -1.432930  y = -0.297161  z =  0.893604 angstrom
           Maximum rank =  0   Radius =  0.650 angstrom
                   Q00  =   0.017356

C          x = -2.362930  y = -0.895161  z =  0.061604 angstrom
           Maximum rank =  0   Radius =  0.650 angstrom
                   Q00  =  -0.084433

C          x = -0.570930  y = -1.633161  z = -1.383396 angstrom
           Maximum rank =  0   Radius =  0.650 angstrom
                   Q00  =  -0.079815

C          x = -1.942930  y = -1.549161  z = -1.088396 angstrom
           Maximum rank =  0   Radius =  0.650 angstrom
                   Q00  =  -0.069309

H          x =  0.635070  y =  0.131839  z =  1.248604 angstrom
           Maximum rank =  0   Radius =  0.325 angstrom
                   Q00  =   0.056232

H          x = -1.764930  y =  0.219839  z =  1.783604 angstrom
           Maximum rank =  0   Radius =  0.325 angstrom
                   Q00  =   0.062049

H          x =  2.088070  y = -1.947161  z = -1.391396 angstrom
           Maximum rank =  0   Radius =  0.325 angstrom
                   Q00  =   0.099104

H          x =  2.418070  y = -0.930161  z =  0.010604 angstrom
           Maximum rank =  0   Radius =  0.325 angstrom
                   Q00  =   0.097284

H          x = -3.416930  y = -0.842161  z =  0.301604 angstrom
           Maximum rank =  0   Radius =  0.325 angstrom
                   Q00  =   0.060151

H          x = -0.246930  y = -2.152161  z = -2.273396 angstrom
           Maximum rank =  0   Radius =  0.325 angstrom
                   Q00  =   0.058910

H          x = -2.665930  y = -1.998161  z = -1.754396 angstrom
           Maximum rank =  0   Radius =  0.325 angstrom
                   Q00  =   0.066152

H          x =  2.116520  y = -0.162693  z = -1.550396 angstrom
           Maximum rank =  0   Radius =  0.325 angstrom
                   Q00  =   0.104940

C          x =  0.952070  y =  3.137839  z =  0.994604 angstrom
           Maximum rank =  0   Radius =  0.650 angstrom
                   Q00  =  -0.237752

C          x =  2.448070  y =  2.763839  z =  1.150604 angstrom
           Maximum rank =  0   Radius =  0.650 angstrom
                   Q00  =  -0.245887

H          x =  0.818070  y =  4.216839  z =  1.071604 angstrom
           Maximum rank =  0   Radius =  0.325 angstrom
                   Q00  =   0.082213

H          x =  0.601070  y =  2.805839  z =  0.017604 angstrom
           Maximum rank =  0   Radius =  0.325 angstrom
                   Q00  =   0.087348

H          x =  0.355070  y =  2.637839  z =  1.752604 angstrom
           Maximum rank =  0   Radius =  0.325 angstrom
                   Q00  =   0.078193

H          x =  2.522070  y =  1.679839  z =  1.236604 angstrom
           Maximum rank =  0   Radius =  0.325 angstrom
                   Q00  =   0.073877

H          x =  2.893750  y =  3.226766  z =  2.043394 angstrom
           Maximum rank =  0   Radius =  0.325 angstrom
                   Q00  =   0.082054

H          x =  3.022040  y =  3.061279  z =  0.260604 angstrom
           Maximum rank =  0   Radius =  0.325 angstrom
                   Q00  =   0.081731

Total multipoles referred to origin at
           x =   0.000000,  y =    0.000000,  z =    0.000000 angstrom
                   Q00  =  -0.000000

Finished at 15:23:16 on 28 Apr 2020

  DMA results are available in the Python driver through the
	  variable('DMA DISTRIBUTED MULTIPOLES')
  and
	  variable('DMA TOTAL MULTIPOLES')
  commands.

    Psi4 stopped on: Tuesday, 28 April 2020 03:23PM
    Psi4 wall time for execution: 0:03:07.64

*** Psi4 exiting successfully. Buy a developer a beer!
