                               Psi4 1.3.2 release

  ==> Input File <==

--------------------------------------------------------------------------
import numpy as np
set {scf_type pk
basis cc-pvdz
d_convergence 10
gdma_switch   0
gdma_limit    0
gdma_origin   [ 0.0,  0.0,  0.0 ]
}
molecule test {
    units Angstrom
    -1 1
    --
    -1 1
    C                0.205461714135686    -0.964720508787307    -2.952023329590383
    C                0.761461714135686    -2.213720508787307    -3.620023329590383
    H                0.902461714135686    -0.608720508787307    -2.195023329590383
    H                0.056461714135686    -0.198720508787307    -3.703023329590383
    H               -0.746538285864314    -1.187720508787307    -2.486023329590383
    H                0.134461714135686    -2.460720508787307    -4.472023329590384
    H                0.781794714135686    -3.061697808787307    -2.919653329590383
    H                1.792578714135686    -2.041505908787307    -3.962283329590383
    C                0.435461714135686    -0.030720508787307     0.795976670409617
    C                1.385461714135686    -0.439720508787307     1.921976670409617
    C               -0.637538285864314     0.977279491212693     1.222976670409617
    O               -1.102538285864314     0.939279491212693     2.383976670409617
    O               -1.061538285864314     1.800279491212693     0.388976670409617
    H                1.033461714135686     0.399279491212693    -0.008023329590383
    H               -0.048538285864314    -0.928720508787307     0.408976670409617
    H                0.810461714135686    -0.879720508787307     2.736976670409617
    H                1.864461714135686     0.457279491212693     2.302976670409617
    H                2.161042714135686    -1.157507508787307     1.616596670409617

}
e, wfn = energy('scf', return_wfn=True)
gdma(wfn)
dmavals = variable('DMA DISTRIBUTED MULTIPOLES')
charges = np.array(dmavals)
print(charges)
np.save('SSI-041ALA-081GLU-1-dimer.npy', np.array(charges))--------------------------------------------------------------------------

*** tstart() called on ds3
*** at Mon Apr 27 17:41:50 2020

   => Loading Basis Set <=

    Name: CC-PVDZ
    Role: ORBITAL
    Keyword: BASIS
    atoms 1-2, 9-11  entry C          line   138 file /theoryfs2/ds/metcalf/miniconda2/envs/tf2gpu/share/psi4/basis/cc-pvdz.gbs
    atoms 3-8, 14-18 entry H          line    22 file /theoryfs2/ds/metcalf/miniconda2/envs/tf2gpu/share/psi4/basis/cc-pvdz.gbs
    atoms 12-13      entry O          line   198 file /theoryfs2/ds/metcalf/miniconda2/envs/tf2gpu/share/psi4/basis/cc-pvdz.gbs

         ---------------------------------------------------------
                                   SCF
               by Justin Turney, Rob Parrish, Andy Simmonett
                          and Daniel G. A. Smith
                              RHF Reference
                        1 Threads,    500 MiB Core
         ---------------------------------------------------------

  ==> Geometry <==

    Molecular point group: c1
    Full point group: C1

    Geometry (in Angstrom), charge = -1, multiplicity = 1:

       Center              X                  Y                   Z               Mass
    ------------   -----------------  -----------------  -----------------  -----------------
         C            0.205461714136    -0.964720508787    -2.952023329590    12.000000000000
         C            0.761461714136    -2.213720508787    -3.620023329590    12.000000000000
         H            0.902461714136    -0.608720508787    -2.195023329590     1.007825032230
         H            0.056461714136    -0.198720508787    -3.703023329590     1.007825032230
         H           -0.746538285864    -1.187720508787    -2.486023329590     1.007825032230
         H            0.134461714136    -2.460720508787    -4.472023329590     1.007825032230
         H            0.781794714136    -3.061697808787    -2.919653329590     1.007825032230
         H            1.792578714136    -2.041505908787    -3.962283329590     1.007825032230
         C            0.435461714136    -0.030720508787     0.795976670410    12.000000000000
         C            1.385461714136    -0.439720508787     1.921976670410    12.000000000000
         C           -0.637538285864     0.977279491213     1.222976670410    12.000000000000
         O           -1.102538285864     0.939279491213     2.383976670410    15.994914619570
         O           -1.061538285864     1.800279491213     0.388976670410    15.994914619570
         H            1.033461714136     0.399279491213    -0.008023329590     1.007825032230
         H           -0.048538285864    -0.928720508787     0.408976670410     1.007825032230
         H            0.810461714136    -0.879720508787     2.736976670410     1.007825032230
         H            1.864461714136     0.457279491213     2.302976670410     1.007825032230
         H            2.161042714136    -1.157507508787     1.616596670410     1.007825032230

  Running in c1 symmetry.

  Rotational constants: A =      0.11567  B =      0.02606  C =      0.02225 [cm^-1]
  Rotational constants: A =   3467.84060  B =    781.20311  C =    666.94414 [MHz]
  Nuclear repulsion =  282.752199938170236

  Charge       = -1
  Multiplicity = 1
  Electrons    = 58
  Nalpha       = 29
  Nbeta        = 29

  ==> Algorithm <==

  SCF Algorithm Type is PK.
  DIIS enabled.
  MOM disabled.
  Fractional occupation disabled.
  Guess Type is SAD.
  Energy threshold   = 1.00e-06
  Density threshold  = 1.00e-10
  Integral threshold = 0.00e+00

  ==> Primary Basis <==

  Basis Set: CC-PVDZ
    Blend: CC-PVDZ
    Number of shells: 75
    Number of basis function: 153
    Number of Cartesian functions: 160
    Spherical Harmonics?: true
    Max angular momentum: 2

  ==> Pre-Iterations <==

   -------------------------------------------------------
    Irrep   Nso     Nmo     Nalpha   Nbeta   Ndocc  Nsocc
   -------------------------------------------------------
     A        153     153       0       0       0       0
   -------------------------------------------------------
    Total     153     153      29      29      29       0
   -------------------------------------------------------

  ==> Integral Setup <==

  Using integral reordering PK algorithm.
  Sizing the integral batches needed.
  Building batch lookup table.
   Calculation information:
      Number of atoms:                  18
      Number of AO shells:              75
      Number of primitives:            209
      Number of atomic orbitals:       160
      Number of basis functions:       153

      Integral cutoff                 1.00e-12
      Number of threads:                 1

	Batch   1 pq = [       0,    9405] index = [             0,44231715] size =     44231715
	Batch   2 pq = [    9405,   11781] index = [      44231715,69401871] size =     25170156
  Task number: 7
  Buffer size: 11059200
  Buffer per thread: 2
  We computed 3176874 shell quartets total.
  Whereas there are 4062675 unique shell quartets.

  ==> DiskJK: Disk-Based J/K Matrices <==

    J tasked:                  Yes
    K tasked:                  Yes
    wK tasked:                  No
    Memory [MiB]:              375
    Schwarz Cutoff:          1E-12

    OpenMP threads:              1

  Minimum eigenvalue in the overlap matrix is 3.9727426606E-03.
  Using Symmetric Orthogonalization.

  SCF Guess: Superposition of Atomic Densities via on-the-fly atomic UHF.

  ==> Iterations <==

                        Total Energy        Delta E     RMS |[F,P]|

   @RHF iter SAD:  -343.86403692599100   -3.43864e+02   0.00000e+00
   @RHF iter   1:  -345.21695578091214   -1.35292e+00   4.93671e-03 DIIS
   @RHF iter   2:  -345.43981281884123   -2.22857e-01   2.73049e-03 DIIS
   @RHF iter   3:  -345.50520404384071   -6.53912e-02   4.26712e-04 DIIS
   @RHF iter   4:  -345.50819178916055   -2.98775e-03   1.67330e-04 DIIS
   @RHF iter   5:  -345.50863286753480   -4.41078e-04   2.45619e-05 DIIS
   @RHF iter   6:  -345.50864598157875   -1.31140e-05   6.26942e-06 DIIS
   @RHF iter   7:  -345.50864665609947   -6.74521e-07   2.63780e-06 DIIS
   @RHF iter   8:  -345.50864674410752   -8.80081e-08   7.18778e-07 DIIS
   @RHF iter   9:  -345.50864675374237   -9.63485e-09   2.49978e-07 DIIS
   @RHF iter  10:  -345.50864675516692   -1.42455e-09   6.16594e-08 DIIS
   @RHF iter  11:  -345.50864675530249   -1.35572e-10   1.90602e-08 DIIS
   @RHF iter  12:  -345.50864675531420   -1.17097e-11   7.07935e-09 DIIS
   @RHF iter  13:  -345.50864675531534   -1.13687e-12   2.67115e-09 DIIS
   @RHF iter  14:  -345.50864675531761   -2.27374e-12   7.56070e-10 DIIS
   @RHF iter  15:  -345.50864675531648    1.13687e-12   2.65718e-10 DIIS
   @RHF iter  16:  -345.50864675531619    2.84217e-13   8.11073e-11 DIIS
  Energy and wave function converged.

  ==> Post-Iterations <==

    Orbital Energies [Eh]
    ---------------------

    Doubly Occupied:

       1A    -20.252625     2A    -20.250830     3A    -11.133024
       4A    -11.114906     5A    -11.109197     6A    -11.071126
       7A    -11.054116     8A     -1.145762     9A     -1.027205
      10A     -0.929000    11A     -0.870076    12A     -0.744417
      13A     -0.701130    14A     -0.512363    15A     -0.505912
      16A     -0.502751    17A     -0.456224    18A     -0.428165
      19A     -0.408841    20A     -0.395273    21A     -0.391914
      22A     -0.386341    23A     -0.360732    24A     -0.355350
      25A     -0.319947    26A     -0.297032    27A     -0.178696
      28A     -0.162665    29A     -0.152987

    Virtual:

      30A      0.271070    31A      0.323469    32A      0.331963
      33A      0.334077    34A      0.346319    35A      0.373393
      36A      0.378809    37A      0.394935    38A      0.410622
      39A      0.420240    40A      0.454190    41A      0.487671
      42A      0.498291    43A      0.554292    44A      0.616596
      45A      0.685592    46A      0.692126    47A      0.697040
      48A      0.700024    49A      0.708023    50A      0.748713
      51A      0.761269    52A      0.777109    53A      0.858949
      54A      0.894057    55A      0.938976    56A      0.963675
      57A      0.974846    58A      0.976988    59A      0.980275
      60A      0.996878    61A      1.004981    62A      1.010215
      63A      1.023519    64A      1.037480    65A      1.045063
      66A      1.053264    67A      1.058934    68A      1.066697
      69A      1.084977    70A      1.100436    71A      1.128284
      72A      1.150310    73A      1.214506    74A      1.230564
      75A      1.254485    76A      1.307176    77A      1.311516
      78A      1.336438    79A      1.404423    80A      1.479943
      81A      1.506158    82A      1.551429    83A      1.571552
      84A      1.578664    85A      1.597958    86A      1.620508
      87A      1.644582    88A      1.664172    89A      1.675703
      90A      1.706681    91A      1.765273    92A      1.769498
      93A      1.800949    94A      1.840810    95A      1.892229
      96A      1.909151    97A      1.954676    98A      1.965487
      99A      1.991658   100A      2.028737   101A      2.039131
     102A      2.043910   103A      2.044686   104A      2.048981
     105A      2.056912   106A      2.082937   107A      2.086819
     108A      2.119213   109A      2.133567   110A      2.153093
     111A      2.172407   112A      2.180398   113A      2.204955
     114A      2.212168   115A      2.233323   116A      2.254235
     117A      2.365365   118A      2.386389   119A      2.399686
     120A      2.409656   121A      2.459923   122A      2.496900
     123A      2.537499   124A      2.545929   125A      2.560767
     126A      2.565943   127A      2.659158   128A      2.669011
     129A      2.679313   130A      2.726257   131A      2.757958
     132A      2.839919   133A      2.847837   134A      2.907112
     135A      2.917027   136A      2.940227   137A      2.957024
     138A      3.003194   139A      3.010103   140A      3.049807
     141A      3.054237   142A      3.072351   143A      3.140827
     144A      3.255273   145A      3.298639   146A      3.308337
     147A      3.369840   148A      3.660066   149A      3.764350
     150A      3.825456   151A      4.066742   152A      4.082608
     153A      4.217420

    Final Occupation by Irrep:
              A
    DOCC [    29 ]

  @RHF Final Energy:  -345.50864675531619

   => Energetics <=

    Nuclear Repulsion Energy =            282.7521999381702358
    One-Electron Energy =               -1042.0844850707460409
    Two-Electron Energy =                 413.8236383772596696
    Total Energy =                       -345.5086467553161924

Computation Completed

Properties will be evaluated at   0.000000,   0.000000,   0.000000 [a0]

Properties computed using the SCF density matrix

  Nuclear Dipole Moment: [e a0]
     X:     8.1851      Y:   -10.9257      Z:   -11.8743

  Electronic Dipole Moment: [e a0]
     X:    -6.2394      Y:     8.4316      Z:     9.3176

  Dipole Moment: [e a0]
     X:     1.9456      Y:    -2.4941      Z:    -2.5567     Total:     4.0673

  Dipole Moment: [D]
     X:     4.9453      Y:    -6.3394      Z:    -6.4984     Total:    10.3380

*** tstop() called on ds3 at Mon Apr 27 17:42:23 2020
Module time:
	user time   =      22.88 seconds =       0.38 minutes
	system time =      10.75 seconds =       0.18 minutes
	total time  =         33 seconds =       0.55 minutes
Total time:
	user time   =      22.88 seconds =       0.38 minutes
	system time =      10.75 seconds =       0.18 minutes
	total time  =         33 seconds =       0.55 minutes
                                     G D M A

                                 by Anthony Stone

                           version 2.2.06, 22 June 2011

               Distributed Multipoles from Gaussian wavefunctions

Starting at 17:42:23 on 27 Apr 2020

Using SCF density matrix from file ./SSI/SSI-041ALA-081GLU-1-dimer.test.7404.fchk

                         Distributed Multipole Analysis

Standard DMA

Positions and radii in angstrom
Multipole moments in atomic units, ea_0^k for rank k

C          x =  0.205462  y = -0.964721  z = -2.952023 angstrom
           Maximum rank =  0   Radius =  0.650 angstrom
                   Q00  =  -0.201578

C          x =  0.761462  y = -2.213721  z = -3.620023 angstrom
           Maximum rank =  0   Radius =  0.650 angstrom
                   Q00  =  -0.252090

H          x =  0.902462  y = -0.608721  z = -2.195023 angstrom
           Maximum rank =  0   Radius =  0.325 angstrom
                   Q00  =   0.098896

H          x =  0.056462  y = -0.198721  z = -3.703023 angstrom
           Maximum rank =  0   Radius =  0.325 angstrom
                   Q00  =   0.066137

H          x = -0.746538  y = -1.187721  z = -2.486023 angstrom
           Maximum rank =  0   Radius =  0.325 angstrom
                   Q00  =   0.089598

H          x =  0.134462  y = -2.460721  z = -4.472023 angstrom
           Maximum rank =  0   Radius =  0.325 angstrom
                   Q00  =   0.061758

H          x =  0.781795  y = -3.061698  z = -2.919653 angstrom
           Maximum rank =  0   Radius =  0.325 angstrom
                   Q00  =   0.073198

H          x =  1.792579  y = -2.041506  z = -3.962283 angstrom
           Maximum rank =  0   Radius =  0.325 angstrom
                   Q00  =   0.063350

C          x =  0.435462  y = -0.030721  z =  0.795977 angstrom
           Maximum rank =  0   Radius =  0.650 angstrom
                   Q00  =  -0.148959

C          x =  1.385462  y = -0.439721  z =  1.921977 angstrom
           Maximum rank =  0   Radius =  0.650 angstrom
                   Q00  =  -0.213764

C          x = -0.637538  y =  0.977279  z =  1.222977 angstrom
           Maximum rank =  0   Radius =  0.650 angstrom
                   Q00  =   1.015108

O          x = -1.102538  y =  0.939279  z =  2.383977 angstrom
           Maximum rank =  0   Radius =  0.650 angstrom
                   Q00  =  -0.963977

O          x = -1.061538  y =  1.800279  z =  0.388977 angstrom
           Maximum rank =  0   Radius =  0.650 angstrom
                   Q00  =  -0.933356

H          x =  1.033462  y =  0.399279  z = -0.008023 angstrom
           Maximum rank =  0   Radius =  0.325 angstrom
                   Q00  =   0.020257

H          x = -0.048538  y = -0.928721  z =  0.408977 angstrom
           Maximum rank =  0   Radius =  0.325 angstrom
                   Q00  =   0.050417

H          x =  0.810462  y = -0.879721  z =  2.736977 angstrom
           Maximum rank =  0   Radius =  0.325 angstrom
                   Q00  =   0.086517

H          x =  1.864462  y =  0.457279  z =  2.302977 angstrom
           Maximum rank =  0   Radius =  0.325 angstrom
                   Q00  =   0.071175

H          x =  2.161043  y = -1.157508  z =  1.616597 angstrom
           Maximum rank =  0   Radius =  0.325 angstrom
                   Q00  =   0.017314

Total multipoles referred to origin at
           x =   0.000000,  y =    0.000000,  z =    0.000000 angstrom
                   Q00  =  -1.000000

Finished at 17:42:23 on 27 Apr 2020

  DMA results are available in the Python driver through the
	  variable('DMA DISTRIBUTED MULTIPOLES')
  and
	  variable('DMA TOTAL MULTIPOLES')
  commands.

    Psi4 stopped on: Monday, 27 April 2020 05:42PM
    Psi4 wall time for execution: 0:00:32.99

*** Psi4 exiting successfully. Buy a developer a beer!
