                               Psi4 1.3.2 release

  ==> Input File <==

--------------------------------------------------------------------------
import numpy as np
set {scf_type pk
basis cc-pvdz
d_convergence 10
gdma_switch   0
gdma_limit    0
gdma_origin   [ 0.0,  0.0,  0.0 ]
}
molecule test {
    units Angstrom
    0 1
    --
    0 1
    C               -4.861981990824070     1.124925379826873     1.021247203042223
    C               -2.394981990824070     1.832925379826873    -1.777752796957777
    C               -1.421981990824070     2.596925379826874    -1.105752796957777
    C               -3.504981990824070     1.318925379826874    -1.093752796957776
    C               -3.664981990824070     1.614925379826873     0.257247203042223
    C               -1.582981990824070     2.848925379826873     0.253247203042223
    C               -2.683981990824070     2.335925379826873     0.935247203042223
    H               -2.258981990824070     1.614925379826873    -2.828752796957776
    H               -0.558981990824070     2.970925379826873    -1.639752796957777
    H               -4.226981990824070     0.709925379826874    -1.618752796957777
    H               -0.835981990824070     3.429925379826873     0.775247203042223
    H               -4.507981990824069     0.636925379826873     1.924247203042223
    H               -5.427981990824069     0.409925379826873     0.422247203042223
    H               -2.804981990824070     2.535925379826873     1.990247203042223
    H               -5.509871990824070     1.949905379826874     1.352387203042223
    C               -0.298981990824070    -2.631074620173127     1.526247203042223
    C                0.008018009175930    -0.700074620173127    -0.107752796957777
    C                0.515018009175930    -1.662074620173126     0.695247203042223
    C                2.217018009175930    -0.676074620173126    -0.504752796957777
    C                1.950018009175930    -1.651074620173127     0.486247203042223
    C                3.495018009175930    -0.410074620173126    -0.965752796957777
    C                3.035018009175930    -2.427074620173127     0.969247203042223
    C                4.547018009175931    -1.173074620173127    -0.466752796957777
    C                4.337018009175930    -2.161074620173127     0.512247203042223
    N                1.029018009175930    -0.087074620173127    -0.809752796957777
    H               -1.047981990824070    -0.484074620173126    -0.229752796957777
    H                0.860018009175930     0.525925379826873    -1.614752796957777
    H               -0.067981990824070    -3.636074620173126     1.169247203042223
    H               -1.357981990824070    -2.448074620173127     1.339247203042223
    H                3.667018009175930     0.360925379826873    -1.697752796957777
    H                2.861018009175930    -3.215074620173127     1.689247203042223
    H                5.552018009175930    -0.987074620173127    -0.822752796957777
    H                5.174018009175930    -2.739074620173127     0.884247203042223
    H               -0.106341990824070    -2.590674620173127     2.608497203042223

}
e, wfn = energy('scf', return_wfn=True)
gdma(wfn)
dmavals = variable('DMA DISTRIBUTED MULTIPOLES')
charges = np.array(dmavals)
print(charges)
np.save('SSI-024PHE-099TRP-1-dimer.npy', np.array(charges))--------------------------------------------------------------------------

*** tstart() called on ds3
*** at Sun Apr 26 20:09:15 2020

   => Loading Basis Set <=

    Name: CC-PVDZ
    Role: ORBITAL
    Keyword: BASIS
    atoms 1-7, 16-24  entry C          line   138 file /theoryfs2/ds/metcalf/miniconda2/envs/tf2gpu/share/psi4/basis/cc-pvdz.gbs
    atoms 8-15, 26-34 entry H          line    22 file /theoryfs2/ds/metcalf/miniconda2/envs/tf2gpu/share/psi4/basis/cc-pvdz.gbs
    atoms 25          entry N          line   168 file /theoryfs2/ds/metcalf/miniconda2/envs/tf2gpu/share/psi4/basis/cc-pvdz.gbs

         ---------------------------------------------------------
                                   SCF
               by Justin Turney, Rob Parrish, Andy Simmonett
                          and Daniel G. A. Smith
                              RHF Reference
                        1 Threads,    500 MiB Core
         ---------------------------------------------------------

  ==> Geometry <==

    Molecular point group: c1
    Full point group: C1

    Geometry (in Angstrom), charge = 0, multiplicity = 1:

       Center              X                  Y                   Z               Mass
    ------------   -----------------  -----------------  -----------------  -----------------
         C           -4.861981990824     1.124925379827     1.021247203042    12.000000000000
         C           -2.394981990824     1.832925379827    -1.777752796958    12.000000000000
         C           -1.421981990824     2.596925379827    -1.105752796958    12.000000000000
         C           -3.504981990824     1.318925379827    -1.093752796958    12.000000000000
         C           -3.664981990824     1.614925379827     0.257247203042    12.000000000000
         C           -1.582981990824     2.848925379827     0.253247203042    12.000000000000
         C           -2.683981990824     2.335925379827     0.935247203042    12.000000000000
         H           -2.258981990824     1.614925379827    -2.828752796958     1.007825032230
         H           -0.558981990824     2.970925379827    -1.639752796958     1.007825032230
         H           -4.226981990824     0.709925379827    -1.618752796958     1.007825032230
         H           -0.835981990824     3.429925379827     0.775247203042     1.007825032230
         H           -4.507981990824     0.636925379827     1.924247203042     1.007825032230
         H           -5.427981990824     0.409925379827     0.422247203042     1.007825032230
         H           -2.804981990824     2.535925379827     1.990247203042     1.007825032230
         H           -5.509871990824     1.949905379827     1.352387203042     1.007825032230
         C           -0.298981990824    -2.631074620173     1.526247203042    12.000000000000
         C            0.008018009176    -0.700074620173    -0.107752796958    12.000000000000
         C            0.515018009176    -1.662074620173     0.695247203042    12.000000000000
         C            2.217018009176    -0.676074620173    -0.504752796958    12.000000000000
         C            1.950018009176    -1.651074620173     0.486247203042    12.000000000000
         C            3.495018009176    -0.410074620173    -0.965752796958    12.000000000000
         C            3.035018009176    -2.427074620173     0.969247203042    12.000000000000
         C            4.547018009176    -1.173074620173    -0.466752796958    12.000000000000
         C            4.337018009176    -2.161074620173     0.512247203042    12.000000000000
         N            1.029018009176    -0.087074620173    -0.809752796958    14.003074004430
         H           -1.047981990824    -0.484074620173    -0.229752796958     1.007825032230
         H            0.860018009176     0.525925379827    -1.614752796958     1.007825032230
         H           -0.067981990824    -3.636074620173     1.169247203042     1.007825032230
         H           -1.357981990824    -2.448074620173     1.339247203042     1.007825032230
         H            3.667018009176     0.360925379827    -1.697752796958     1.007825032230
         H            2.861018009176    -3.215074620173     1.689247203042     1.007825032230
         H            5.552018009176    -0.987074620173    -0.822752796958     1.007825032230
         H            5.174018009176    -2.739074620173     0.884247203042     1.007825032230
         H           -0.106341990824    -2.590674620173     2.608497203042     1.007825032230

  Running in c1 symmetry.

  Rotational constants: A =      0.03257  B =      0.00706  C =      0.00624 [cm^-1]
  Rotational constants: A =    976.27648  B =    211.57270  C =    187.18871 [MHz]
  Nuclear repulsion = 1061.160042080018684

  Charge       = 0
  Multiplicity = 1
  Electrons    = 120
  Nalpha       = 60
  Nbeta        = 60

  ==> Algorithm <==

  SCF Algorithm Type is PK.
  DIIS enabled.
  MOM disabled.
  Fractional occupation disabled.
  Guess Type is SAD.
  Energy threshold   = 1.00e-06
  Density threshold  = 1.00e-10
  Integral threshold = 0.00e+00

  ==> Primary Basis <==

  Basis Set: CC-PVDZ
    Blend: CC-PVDZ
    Number of shells: 153
    Number of basis function: 323
    Number of Cartesian functions: 340
    Spherical Harmonics?: true
    Max angular momentum: 2

  ==> Pre-Iterations <==

   -------------------------------------------------------
    Irrep   Nso     Nmo     Nalpha   Nbeta   Ndocc  Nsocc
   -------------------------------------------------------
     A        323     323       0       0       0       0
   -------------------------------------------------------
    Total     323     323      60      60      60       0
   -------------------------------------------------------

  ==> Integral Setup <==

  Using integral reordering PK algorithm.
  Sizing the integral batches needed.
  Building batch lookup table.
   Calculation information:
      Number of atoms:                  34
      Number of AO shells:             153
      Number of primitives:            459
      Number of atomic orbitals:       340
      Number of basis functions:       323

      Integral cutoff                 1.00e-12
      Number of threads:                 1

	Batch   1 pq = [       0,    9405] index = [             0,44231715] size =     44231715
	Batch   2 pq = [    9405,   13301] index = [      44231715,88464951] size =     44233236
	Batch   3 pq = [   13301,   16290] index = [      88464951,132690195] size =     44225244
	Batch   4 pq = [   16290,   18810] index = [     132690195,176917455] size =     44227260
	Batch   5 pq = [   18810,   21030] index = [     176917455,221140965] size =     44223510
	Batch   6 pq = [   21030,   23037] index = [     221140965,265363203] size =     44222238
	Batch   7 pq = [   23037,   24883] index = [     265363203,309594286] size =     44231083
	Batch   8 pq = [   24883,   26601] index = [     309594286,353819901] size =     44225615
	Batch   9 pq = [   26601,   28214] index = [     353819901,398029005] size =     44209104
	Batch  10 pq = [   28214,   29740] index = [     398029005,442248670] size =     44219665
	Batch  11 pq = [   29740,   31191] index = [     442248670,486454836] size =     44206166
	Batch  12 pq = [   31191,   32578] index = [     486454836,530679331] size =     44224495
	Batch  13 pq = [   32578,   33908] index = [     530679331,574893186] size =     44213855
	Batch  14 pq = [   33908,   35188] index = [     574893186,619115266] size =     44222080
	Batch  15 pq = [   35188,   36423] index = [     619115266,663335676] size =     44220410
	Batch  16 pq = [   36423,   37617] index = [     663335676,707538153] size =     44202477
	Batch  17 pq = [   37617,   38775] index = [     707538153,751769700] size =     44231547
	Batch  18 pq = [   38775,   39899] index = [     751769700,795985050] size =     44215350
	Batch  19 pq = [   39899,   40992] index = [     795985050,840192528] size =     44207478
	Batch  20 pq = [   40992,   42057] index = [     840192528,884416653] size =     44224125
	Batch  21 pq = [   42057,   43095] index = [     884416653,928611060] size =     44194407
	Batch  22 pq = [   43095,   44109] index = [     928611060,972823995] size =     44212935
	Batch  23 pq = [   44109,   45100] index = [     972823995,1017027550] size =     44203555
	Batch  24 pq = [   45100,   46070] index = [    1017027550,1061245485] size =     44217935
	Batch  25 pq = [   46070,   47020] index = [    1061245485,1105463710] size =     44218225
	Batch  26 pq = [   47020,   47951] index = [    1105463710,1149673176] size =     44209466
	Batch  27 pq = [   47951,   48864] index = [    1149673176,1193869680] size =     44196504
	Batch  28 pq = [   48864,   49761] index = [    1193869680,1238103441] size =     44233761
	Batch  29 pq = [   49761,   50642] index = [    1238103441,1282331403] size =     44227962
	Batch  30 pq = [   50642,   51508] index = [    1282331403,1326562786] size =     44231383
	Batch  31 pq = [   51508,   52326] index = [    1326562786,1369031301] size =     42468515
  Task number: 124
  Buffer size: 11059200
  Buffer per thread: 2
  We computed 67471207 shell quartets total.
  Whereas there are 69401871 unique shell quartets.

  ==> DiskJK: Disk-Based J/K Matrices <==

    J tasked:                  Yes
    K tasked:                  Yes
    wK tasked:                  No
    Memory [MiB]:              375
    Schwarz Cutoff:          1E-12

    OpenMP threads:              1

  Minimum eigenvalue in the overlap matrix is 2.5719185846E-04.
  Using Symmetric Orthogonalization.

  SCF Guess: Superposition of Atomic Densities via on-the-fly atomic UHF.

  ==> Iterations <==

                        Total Energy        Delta E     RMS |[F,P]|

   @RHF iter SAD:  -669.42015611472107   -6.69420e+02   0.00000e+00
   @RHF iter   1:  -669.95702882280295   -5.36873e-01   2.12120e-03 DIIS
   @RHF iter   2:  -670.24455600604620   -2.87527e-01   8.92220e-04 DIIS
   @RHF iter   3:  -670.28925431660298   -4.46983e-02   2.39423e-04 DIIS
   @RHF iter   4:  -670.29351774658721   -4.26343e-03   1.06265e-04 DIIS
   @RHF iter   5:  -670.29417799768169   -6.60251e-04   1.71090e-05 DIIS
   @RHF iter   6:  -670.29421194605732   -3.39484e-05   7.18805e-06 DIIS
   @RHF iter   7:  -670.29421880882535   -6.86277e-06   2.88786e-06 DIIS
   @RHF iter   8:  -670.29422058978093   -1.78096e-06   1.20326e-06 DIIS
   @RHF iter   9:  -670.29422094601830   -3.56237e-07   5.32451e-07 DIIS
   @RHF iter  10:  -670.29422102054389   -7.45256e-08   2.37975e-07 DIIS
   @RHF iter  11:  -670.29422103953948   -1.89956e-08   9.21299e-08 DIIS
   @RHF iter  12:  -670.29422104180583   -2.26635e-09   3.43325e-08 DIIS
   @RHF iter  13:  -670.29422104203002   -2.24190e-10   1.13506e-08 DIIS
   @RHF iter  14:  -670.29422104203672   -6.70752e-12   4.91959e-09 DIIS
   @RHF iter  15:  -670.29422104204389   -7.16227e-12   2.08600e-09 DIIS
   @RHF iter  16:  -670.29422104204582   -1.93268e-12   1.01244e-09 DIIS
   @RHF iter  17:  -670.29422104205617   -1.03455e-11   4.49346e-10 DIIS
   @RHF iter  18:  -670.29422104205275    3.41061e-12   1.53671e-10 DIIS
   @RHF iter  19:  -670.29422104205833   -5.57066e-12   6.18481e-11 DIIS
  Energy and wave function converged.

  ==> Post-Iterations <==

    Orbital Energies [Eh]
    ---------------------

    Doubly Occupied:

       1A    -15.591979     2A    -11.257061     3A    -11.253969
       4A    -11.249618     5A    -11.248567     6A    -11.244878
       7A    -11.242359     8A    -11.241296     9A    -11.237787
      10A    -11.234699    11A    -11.230283    12A    -11.226906
      13A    -11.224327    14A    -11.224185    15A    -11.219493
      16A    -11.218166    17A    -11.212776    18A     -1.288019
      19A     -1.160138    20A     -1.118301    21A     -1.064579
      22A     -1.052600    23A     -1.019009    24A     -0.989230
      25A     -0.981249    26A     -0.938542    27A     -0.923541
      28A     -0.833913    29A     -0.832993    30A     -0.802584
      31A     -0.794890    32A     -0.745337    33A     -0.710019
      34A     -0.698899    35A     -0.657105    36A     -0.639761
      37A     -0.639080    38A     -0.635701    39A     -0.594061
      40A     -0.590949    41A     -0.587388    42A     -0.580271
      43A     -0.579766    44A     -0.571692    45A     -0.560207
      46A     -0.547163    47A     -0.546281    48A     -0.527219
      49A     -0.523748    50A     -0.495127    51A     -0.493325
      52A     -0.490792    53A     -0.487801    54A     -0.465629
      55A     -0.453204    56A     -0.365583    57A     -0.340937
      58A     -0.329957    59A     -0.289483    60A     -0.270909

    Virtual:

      61A      0.123866    62A      0.130183    63A      0.131782
      64A      0.164021    65A      0.173779    66A      0.180120
      67A      0.195686    68A      0.208580    69A      0.210492
      70A      0.214931    71A      0.234953    72A      0.238257
      73A      0.238677    74A      0.247816    75A      0.253679
      76A      0.262003    77A      0.270894    78A      0.279022
      79A      0.281013    80A      0.287680    81A      0.289662
      82A      0.304155    83A      0.355479    84A      0.368908
      85A      0.379734    86A      0.383851    87A      0.412526
      88A      0.422414    89A      0.439739    90A      0.445210
      91A      0.453254    92A      0.466066    93A      0.476852
      94A      0.483030    95A      0.492671    96A      0.503002
      97A      0.512995    98A      0.558223    99A      0.582959
     100A      0.600858   101A      0.611778   102A      0.620789
     103A      0.624133   104A      0.640432   105A      0.659539
     106A      0.670475   107A      0.690618   108A      0.694610
     109A      0.697851   110A      0.701941   111A      0.717529
     112A      0.720703   113A      0.729699   114A      0.731827
     115A      0.735187   116A      0.738127   117A      0.739488
     118A      0.745293   119A      0.748436   120A      0.749555
     121A      0.754602   122A      0.763819   123A      0.770415
     124A      0.775766   125A      0.778592   126A      0.797494
     127A      0.800555   128A      0.816332   129A      0.827897
     130A      0.833216   131A      0.842426   132A      0.850548
     133A      0.854506   134A      0.858629   135A      0.872057
     136A      0.880061   137A      0.882810   138A      0.884259
     139A      0.891386   140A      0.894606   141A      0.897249
     142A      0.903533   143A      0.912663   144A      0.918175
     145A      0.924022   146A      0.931382   147A      0.935696
     148A      0.960162   149A      0.963699   150A      0.969064
     151A      0.977451   152A      0.989152   153A      0.995043
     154A      1.009507   155A      1.024856   156A      1.057300
     157A      1.071837   158A      1.076403   159A      1.101249
     160A      1.110525   161A      1.118640   162A      1.124202
     163A      1.139192   164A      1.141868   165A      1.147919
     166A      1.158361   167A      1.170259   168A      1.175996
     169A      1.191518   170A      1.202233   171A      1.217963
     172A      1.220328   173A      1.232374   174A      1.235274
     175A      1.239648   176A      1.250584   177A      1.258922
     178A      1.271945   179A      1.285777   180A      1.289175
     181A      1.295020   182A      1.299096   183A      1.310578
     184A      1.316984   185A      1.332319   186A      1.336848
     187A      1.348102   188A      1.370383   189A      1.379462
     190A      1.410719   191A      1.414445   192A      1.459670
     193A      1.498127   194A      1.512357   195A      1.522730
     196A      1.553938   197A      1.556534   198A      1.583514
     199A      1.593378   200A      1.604516   201A      1.641507
     202A      1.654896   203A      1.667201   204A      1.677832
     205A      1.683685   206A      1.689818   207A      1.694409
     208A      1.722578   209A      1.739368   210A      1.742668
     211A      1.754767   212A      1.762986   213A      1.778660
     214A      1.782735   215A      1.788238   216A      1.809106
     217A      1.826116   218A      1.834682   219A      1.841324
     220A      1.846324   221A      1.872329   222A      1.875273
     223A      1.891098   224A      1.902079   225A      1.903357
     226A      1.904702   227A      1.906326   228A      1.921610
     229A      1.926922   230A      1.927799   231A      1.928434
     232A      1.933822   233A      1.945474   234A      1.949253
     235A      1.951190   236A      1.965096   237A      1.972003
     238A      1.979751   239A      1.993847   240A      1.999280
     241A      2.010485   242A      2.015736   243A      2.020996
     244A      2.035651   245A      2.048045   246A      2.067221
     247A      2.078776   248A      2.087013   249A      2.092569
     250A      2.099195   251A      2.104461   252A      2.117441
     253A      2.117887   254A      2.120572   255A      2.138465
     256A      2.146653   257A      2.150153   258A      2.158627
     259A      2.164779   260A      2.168413   261A      2.187146
     262A      2.193520   263A      2.219446   264A      2.230785
     265A      2.233416   266A      2.261044   267A      2.272661
     268A      2.280253   269A      2.291474   270A      2.315619
     271A      2.319905   272A      2.322708   273A      2.330665
     274A      2.347160   275A      2.357552   276A      2.393675
     277A      2.419458   278A      2.437981   279A      2.456681
     280A      2.467137   281A      2.471964   282A      2.512211
     283A      2.521781   284A      2.533288   285A      2.588247
     286A      2.603159   287A      2.620536   288A      2.636181
     289A      2.644370   290A      2.673831   291A      2.720307
     292A      2.728115   293A      2.740516   294A      2.763081
     295A      2.765432   296A      2.773251   297A      2.784251
     298A      2.789543   299A      2.796412   300A      2.804457
     301A      2.835856   302A      2.840727   303A      2.850228
     304A      2.876142   305A      2.881248   306A      2.923829
     307A      2.968616   308A      2.977927   309A      2.997445
     310A      3.012792   311A      3.024038   312A      3.051179
     313A      3.074058   314A      3.120622   315A      3.146417
     316A      3.183540   317A      3.201622   318A      3.286866
     319A      3.292194   320A      3.378536   321A      3.723186
     322A      3.924908   323A      3.944366

    Final Occupation by Irrep:
              A
    DOCC [    60 ]

  @RHF Final Energy:  -670.29422104205833

   => Energetics <=

    Nuclear Repulsion Energy =           1061.1600420800186839
    One-Electron Energy =               -3013.7578631110955030
    Two-Electron Energy =                1282.3035999890184939
    Total Energy =                       -670.2942210420583251

Computation Completed

Properties will be evaluated at   0.000000,   0.000000,   0.000000 [a0]

Properties computed using the SCF density matrix

  Nuclear Dipole Moment: [e a0]
     X:    -9.9382      Y:    -0.8949      Z:     3.4734

  Electronic Dipole Moment: [e a0]
     X:     9.0905      Y:     1.3323      Z:    -3.8070

  Dipole Moment: [e a0]
     X:    -0.8478      Y:     0.4374      Z:    -0.3336     Total:     1.0106

  Dipole Moment: [D]
     X:    -2.1548      Y:     1.1117      Z:    -0.8478     Total:     2.5687

*** tstop() called on ds3 at Sun Apr 26 20:32:59 2020
Module time:
	user time   =     623.17 seconds =      10.39 minutes
	system time =     236.00 seconds =       3.93 minutes
	total time  =       1424 seconds =      23.73 minutes
Total time:
	user time   =     623.17 seconds =      10.39 minutes
	system time =     236.00 seconds =       3.93 minutes
	total time  =       1424 seconds =      23.73 minutes
                                     G D M A

                                 by Anthony Stone

                           version 2.2.06, 22 June 2011

               Distributed Multipoles from Gaussian wavefunctions

Starting at 20:32:59 on 26 Apr 2020

Using SCF density matrix from file ./SSI/SSI-024PHE-099TRP-1-dimer.test.13061.fchk

                         Distributed Multipole Analysis

Standard DMA

Positions and radii in angstrom
Multipole moments in atomic units, ea_0^k for rank k

C          x = -4.861982  y =  1.124925  z =  1.021247 angstrom
           Maximum rank =  0   Radius =  0.650 angstrom
                   Q00  =  -0.202673

C          x = -2.394982  y =  1.832925  z = -1.777753 angstrom
           Maximum rank =  0   Radius =  0.650 angstrom
                   Q00  =  -0.071147

C          x = -1.421982  y =  2.596925  z = -1.105753 angstrom
           Maximum rank =  0   Radius =  0.650 angstrom
                   Q00  =  -0.096286

C          x = -3.504982  y =  1.318925  z = -1.093753 angstrom
           Maximum rank =  0   Radius =  0.650 angstrom
                   Q00  =  -0.094416

C          x = -3.664982  y =  1.614925  z =  0.257247 angstrom
           Maximum rank =  0   Radius =  0.650 angstrom
                   Q00  =  -0.093710

C          x = -1.582982  y =  2.848925  z =  0.253247 angstrom
           Maximum rank =  0   Radius =  0.650 angstrom
                   Q00  =  -0.063881

C          x = -2.683982  y =  2.335925  z =  0.935247 angstrom
           Maximum rank =  0   Radius =  0.650 angstrom
                   Q00  =  -0.003110

H          x = -2.258982  y =  1.614925  z = -2.828753 angstrom
           Maximum rank =  0   Radius =  0.325 angstrom
                   Q00  =   0.066250

H          x = -0.558982  y =  2.970925  z = -1.639753 angstrom
           Maximum rank =  0   Radius =  0.325 angstrom
                   Q00  =   0.060698

H          x = -4.226982  y =  0.709925  z = -1.618753 angstrom
           Maximum rank =  0   Radius =  0.325 angstrom
                   Q00  =   0.065021

H          x = -0.835982  y =  3.429925  z =  0.775247 angstrom
           Maximum rank =  0   Radius =  0.325 angstrom
                   Q00  =   0.072328

H          x = -4.507982  y =  0.636925  z =  1.924247 angstrom
           Maximum rank =  0   Radius =  0.325 angstrom
                   Q00  =   0.100100

H          x = -5.427982  y =  0.409925  z =  0.422247 angstrom
           Maximum rank =  0   Radius =  0.325 angstrom
                   Q00  =   0.098797

H          x = -2.804982  y =  2.535925  z =  1.990247 angstrom
           Maximum rank =  0   Radius =  0.325 angstrom
                   Q00  =   0.059890

H          x = -5.509872  y =  1.949905  z =  1.352387 angstrom
           Maximum rank =  0   Radius =  0.325 angstrom
                   Q00  =   0.105079

C          x = -0.298982  y = -2.631075  z =  1.526247 angstrom
           Maximum rank =  0   Radius =  0.650 angstrom
                   Q00  =  -0.201445

C          x =  0.008018  y = -0.700075  z = -0.107753 angstrom
           Maximum rank =  0   Radius =  0.650 angstrom
                   Q00  =   0.086339

C          x =  0.515018  y = -1.662075  z =  0.695247 angstrom
           Maximum rank =  0   Radius =  0.650 angstrom
                   Q00  =  -0.130761

C          x =  2.217018  y = -0.676075  z = -0.504753 angstrom
           Maximum rank =  0   Radius =  0.650 angstrom
                   Q00  =   0.291285

C          x =  1.950018  y = -1.651075  z =  0.486247 angstrom
           Maximum rank =  0   Radius =  0.650 angstrom
                   Q00  =  -0.069093

C          x =  3.495018  y = -0.410075  z = -0.965753 angstrom
           Maximum rank =  0   Radius =  0.650 angstrom
                   Q00  =  -0.124178

C          x =  3.035018  y = -2.427075  z =  0.969247 angstrom
           Maximum rank =  0   Radius =  0.650 angstrom
                   Q00  =  -0.091610

C          x =  4.547018  y = -1.173075  z = -0.466753 angstrom
           Maximum rank =  0   Radius =  0.650 angstrom
                   Q00  =  -0.043678

C          x =  4.337018  y = -2.161075  z =  0.512247 angstrom
           Maximum rank =  0   Radius =  0.650 angstrom
                   Q00  =  -0.101085

N          x =  1.029018  y = -0.087075  z = -0.809753 angstrom
           Maximum rank =  0   Radius =  0.650 angstrom
                   Q00  =  -0.497538

H          x = -1.047982  y = -0.484075  z = -0.229753 angstrom
           Maximum rank =  0   Radius =  0.325 angstrom
                   Q00  =   0.107156

H          x =  0.860018  y =  0.525925  z = -1.614753 angstrom
           Maximum rank =  0   Radius =  0.325 angstrom
                   Q00  =   0.211830

H          x = -0.067982  y = -3.636075  z =  1.169247 angstrom
           Maximum rank =  0   Radius =  0.325 angstrom
                   Q00  =   0.095636

H          x = -1.357982  y = -2.448075  z =  1.339247 angstrom
           Maximum rank =  0   Radius =  0.325 angstrom
                   Q00  =   0.101998

H          x =  3.667018  y =  0.360925  z = -1.697753 angstrom
           Maximum rank =  0   Radius =  0.325 angstrom
                   Q00  =   0.070409

H          x =  2.861018  y = -3.215075  z =  1.689247 angstrom
           Maximum rank =  0   Radius =  0.325 angstrom
                   Q00  =   0.069722

H          x =  5.552018  y = -0.987075  z = -0.822753 angstrom
           Maximum rank =  0   Radius =  0.325 angstrom
                   Q00  =   0.063718

H          x =  5.174018  y = -2.739075  z =  0.884247 angstrom
           Maximum rank =  0   Radius =  0.325 angstrom
                   Q00  =   0.061949

H          x = -0.106342  y = -2.590675  z =  2.608497 angstrom
           Maximum rank =  0   Radius =  0.325 angstrom
                   Q00  =   0.096408

Total multipoles referred to origin at
           x =   0.000000,  y =    0.000000,  z =    0.000000 angstrom
                   Q00  =  -0.000000

Finished at 20:33:0 on 26 Apr 2020

  DMA results are available in the Python driver through the
	  variable('DMA DISTRIBUTED MULTIPOLES')
  and
	  variable('DMA TOTAL MULTIPOLES')
  commands.

    Psi4 stopped on: Sunday, 26 April 2020 08:33PM
    Psi4 wall time for execution: 0:23:44.91

*** Psi4 exiting successfully. Buy a developer a beer!
