                               Psi4 1.3.2 release

  ==> Input File <==

--------------------------------------------------------------------------
import numpy as np
set {scf_type pk
basis cc-pvdz
d_convergence 10
gdma_switch   0
gdma_limit    0
gdma_origin   [ 0.0,  0.0,  0.0 ]
}
molecule test {
    units Angstrom
    0 1
    --
    0 1
    C                1.154248290766955    -1.331504968019027    -0.073394712649735
    C                1.150248290766955    -1.346504968019028    -1.610394712649735
    C                2.328248290766955    -0.592504968019028     0.538605287350265
    H                0.233248290766955    -0.877504968019028     0.284605287350265
    H                1.193248290766955    -2.358504968019028     0.292605287350265
    H                2.001248290766955    -1.938504968019027    -1.946394712649735
    H                2.223248290766955     0.482495031980972     0.395605287350265
    H                2.360248290766955    -0.792504968019028     1.610605287350265
    H                3.254248290766955    -0.941504968019028     0.084605287350265
    H                0.226058290766955    -1.815388968019027    -1.979214712649735
    H                1.260808290766955    -0.337074968019028    -2.033264712649734
    C               -1.574751709233045     1.299495031980972     0.548605287350265
    C               -2.981751709233045     1.884495031980973     0.589605287350265
    H               -1.428751709233045     0.743495031980972    -0.374394712649735
    H               -0.840751709233045     2.103495031980972     0.587605287350265
    H               -1.421751709233045     0.636495031980972     1.399605287350265
    H               -3.108751709233045     2.530495031980972    -0.279394712649735
    H               -3.738811709233045     1.087205031980973     0.555128287350265
    H               -3.121331709233045     2.507545031980972     1.485331287350265

}
e, wfn = energy('scf', return_wfn=True)
gdma(wfn)
dmavals = variable('DMA DISTRIBUTED MULTIPOLES')
charges = np.array(dmavals)
print(charges)
np.save('SSI-053ILE-077LEU-1-dimer.npy', np.array(charges))--------------------------------------------------------------------------

*** tstart() called on ds3
*** at Mon Apr 27 16:32:39 2020

   => Loading Basis Set <=

    Name: CC-PVDZ
    Role: ORBITAL
    Keyword: BASIS
    atoms 1-3, 12-13  entry C          line   138 file /theoryfs2/ds/metcalf/miniconda2/envs/tf2gpu/share/psi4/basis/cc-pvdz.gbs
    atoms 4-11, 14-19 entry H          line    22 file /theoryfs2/ds/metcalf/miniconda2/envs/tf2gpu/share/psi4/basis/cc-pvdz.gbs

         ---------------------------------------------------------
                                   SCF
               by Justin Turney, Rob Parrish, Andy Simmonett
                          and Daniel G. A. Smith
                              RHF Reference
                        1 Threads,    500 MiB Core
         ---------------------------------------------------------

  ==> Geometry <==

    Molecular point group: c1
    Full point group: C1

    Geometry (in Angstrom), charge = 0, multiplicity = 1:

       Center              X                  Y                   Z               Mass
    ------------   -----------------  -----------------  -----------------  -----------------
         C            1.154248290767    -1.331504968019    -0.073394712650    12.000000000000
         C            1.150248290767    -1.346504968019    -1.610394712650    12.000000000000
         C            2.328248290767    -0.592504968019     0.538605287350    12.000000000000
         H            0.233248290767    -0.877504968019     0.284605287350     1.007825032230
         H            1.193248290767    -2.358504968019     0.292605287350     1.007825032230
         H            2.001248290767    -1.938504968019    -1.946394712650     1.007825032230
         H            2.223248290767     0.482495031981     0.395605287350     1.007825032230
         H            2.360248290767    -0.792504968019     1.610605287350     1.007825032230
         H            3.254248290767    -0.941504968019     0.084605287350     1.007825032230
         H            0.226058290767    -1.815388968019    -1.979214712650     1.007825032230
         H            1.260808290767    -0.337074968019    -2.033264712650     1.007825032230
         C           -1.574751709233     1.299495031981     0.548605287350    12.000000000000
         C           -2.981751709233     1.884495031981     0.589605287350    12.000000000000
         H           -1.428751709233     0.743495031981    -0.374394712650     1.007825032230
         H           -0.840751709233     2.103495031981     0.587605287350     1.007825032230
         H           -1.421751709233     0.636495031981     1.399605287350     1.007825032230
         H           -3.108751709233     2.530495031981    -0.279394712650     1.007825032230
         H           -3.738811709233     1.087205031981     0.555128287350     1.007825032230
         H           -3.121331709233     2.507545031981     1.485331287350     1.007825032230

  Running in c1 symmetry.

  Rotational constants: A =      0.22780  B =      0.03767  C =      0.03415 [cm^-1]
  Rotational constants: A =   6829.39808  B =   1129.22731  C =   1023.88670 [MHz]
  Nuclear repulsion =  176.601002559740152

  Charge       = 0
  Multiplicity = 1
  Electrons    = 44
  Nalpha       = 22
  Nbeta        = 22

  ==> Algorithm <==

  SCF Algorithm Type is PK.
  DIIS enabled.
  MOM disabled.
  Fractional occupation disabled.
  Guess Type is SAD.
  Energy threshold   = 1.00e-06
  Density threshold  = 1.00e-10
  Integral threshold = 0.00e+00

  ==> Primary Basis <==

  Basis Set: CC-PVDZ
    Blend: CC-PVDZ
    Number of shells: 72
    Number of basis function: 140
    Number of Cartesian functions: 145
    Spherical Harmonics?: true
    Max angular momentum: 2

  ==> Pre-Iterations <==

   -------------------------------------------------------
    Irrep   Nso     Nmo     Nalpha   Nbeta   Ndocc  Nsocc
   -------------------------------------------------------
     A        140     140       0       0       0       0
   -------------------------------------------------------
    Total     140     140      22      22      22       0
   -------------------------------------------------------

  ==> Integral Setup <==

  Using integral reordering PK algorithm.
  Sizing the integral batches needed.
  Building batch lookup table.
   Calculation information:
      Number of atoms:                  19
      Number of AO shells:              72
      Number of primitives:            180
      Number of atomic orbitals:       145
      Number of basis functions:       140

      Integral cutoff                 1.00e-12
      Number of threads:                 1

	Batch   1 pq = [       0,    9405] index = [             0,44231715] size =     44231715
	Batch   2 pq = [    9405,    9870] index = [      44231715,48713385] size =      4481670
  Task number: 5
  Buffer size: 11059200
  Buffer per thread: 2
  We computed 2765009 shell quartets total.
  Whereas there are 3454506 unique shell quartets.

  ==> DiskJK: Disk-Based J/K Matrices <==

    J tasked:                  Yes
    K tasked:                  Yes
    wK tasked:                  No
    Memory [MiB]:              375
    Schwarz Cutoff:          1E-12

    OpenMP threads:              1

  Minimum eigenvalue in the overlap matrix is 5.5395162671E-03.
  Using Symmetric Orthogonalization.

  SCF Guess: Superposition of Atomic Densities via on-the-fly atomic UHF.

  ==> Iterations <==

                        Total Energy        Delta E     RMS |[F,P]|

   @RHF iter SAD:  -196.37515026032270   -1.96375e+02   0.00000e+00
   @RHF iter   1:  -197.31179089353964   -9.36641e-01   3.81393e-03 DIIS
   @RHF iter   2:  -197.47248278978009   -1.60692e-01   1.64385e-03 DIIS
   @RHF iter   3:  -197.50099915013553   -2.85164e-02   3.25767e-04 DIIS
   @RHF iter   4:  -197.50322844084818   -2.22929e-03   4.85716e-05 DIIS
   @RHF iter   5:  -197.50326742361833   -3.89828e-05   1.48620e-05 DIIS
   @RHF iter   6:  -197.50327081402816   -3.39041e-06   2.41806e-06 DIIS
   @RHF iter   7:  -197.50327092010320   -1.06075e-07   4.65795e-07 DIIS
   @RHF iter   8:  -197.50327092452531   -4.42211e-09   1.22564e-07 DIIS
   @RHF iter   9:  -197.50327092481820   -2.92886e-10   3.83720e-08 DIIS
   @RHF iter  10:  -197.50327092485418   -3.59819e-11   8.18610e-09 DIIS
   @RHF iter  11:  -197.50327092485466   -4.83169e-13   1.53408e-09 DIIS
   @RHF iter  12:  -197.50327092485446    1.98952e-13   2.80843e-10 DIIS
   @RHF iter  13:  -197.50327092485557   -1.10845e-12   5.06469e-11 DIIS
  Energy and wave function converged.

  ==> Post-Iterations <==

    Orbital Energies [Eh]
    ---------------------

    Doubly Occupied:

       1A    -11.219698     2A    -11.217475     3A    -11.217367
       4A    -11.216274     5A    -11.212722     6A     -1.052590
       7A     -1.020494     8A     -0.924680     9A     -0.838125
      10A     -0.794301    11A     -0.626008    12A     -0.600140
      13A     -0.598771    14A     -0.593438    15A     -0.549754
      16A     -0.531892    17A     -0.503625    18A     -0.488763
      19A     -0.485317    20A     -0.471003    21A     -0.466658
      22A     -0.463633

    Virtual:

      23A      0.169719    24A      0.193718    25A      0.215849
      26A      0.224321    27A      0.232256    28A      0.257326
      29A      0.260674    30A      0.264050    31A      0.275756
      32A      0.278843    33A      0.294626    34A      0.299853
      35A      0.309072    36A      0.334536    37A      0.371417
      38A      0.412928    39A      0.428578    40A      0.579092
      41A      0.587457    42A      0.596213    43A      0.605069
      44A      0.617723    45A      0.625487    46A      0.634433
      47A      0.674240    48A      0.686170    49A      0.729272
      50A      0.792999    51A      0.800398    52A      0.847018
      53A      0.874335    54A      0.875768    55A      0.880298
      56A      0.891160    57A      0.892699    58A      0.894698
      59A      0.902443    60A      0.908836    61A      0.915355
      62A      0.921933    63A      0.928771    64A      0.937115
      65A      0.944015    66A      0.978310    67A      0.990632
      68A      1.009690    69A      1.123046    70A      1.124566
      71A      1.127603    72A      1.157964    73A      1.228106
      74A      1.270536    75A      1.378036    76A      1.467858
      77A      1.472516    78A      1.480171    79A      1.484695
      80A      1.527343    81A      1.577687    82A      1.640872
      83A      1.674385    84A      1.680331    85A      1.685427
      86A      1.693132    87A      1.705170    88A      1.852350
      89A      1.854964    90A      1.864712    91A      1.872567
      92A      1.882316    93A      1.911569    94A      1.914675
      95A      1.934547    96A      1.940551    97A      1.947455
      98A      1.952853    99A      1.956173   100A      1.967465
     101A      1.969836   102A      1.980639   103A      1.989314
     104A      2.002338   105A      2.010441   106A      2.030101
     107A      2.058160   108A      2.091684   109A      2.114146
     110A      2.141265   111A      2.167682   112A      2.290366
     113A      2.301175   114A      2.303365   115A      2.320591
     116A      2.335370   117A      2.343297   118A      2.452697
     119A      2.477884   120A      2.495397   121A      2.534404
     122A      2.559750   123A      2.571322   124A      2.581848
     125A      2.622900   126A      2.626665   127A      2.752054
     128A      2.757825   129A      2.769324   130A      2.789467
     131A      2.799380   132A      2.823774   133A      2.850834
     134A      2.862013   135A      2.925972   136A      2.948647
     137A      2.959265   138A      2.967235   139A      2.983738
     140A      3.074566

    Final Occupation by Irrep:
              A
    DOCC [    22 ]

  @RHF Final Energy:  -197.50327092485557

   => Energetics <=

    Nuclear Repulsion Energy =            176.6010025597401523
    One-Electron Energy =                -614.0230886805281898
    Two-Electron Energy =                 239.9188151959324671
    Total Energy =                       -197.5032709248555705

Computation Completed

Properties will be evaluated at   0.000000,   0.000000,   0.000000 [a0]

Properties computed using the SCF density matrix

  Nuclear Dipole Moment: [e a0]
     X:    -0.8510      Y:     0.9658      Z:     0.0778

  Electronic Dipole Moment: [e a0]
     X:     0.8202      Y:    -0.9628      Z:    -0.0545

  Dipole Moment: [e a0]
     X:    -0.0308      Y:     0.0030      Z:     0.0234     Total:     0.0388

  Dipole Moment: [D]
     X:    -0.0783      Y:     0.0075      Z:     0.0594     Total:     0.0986

*** tstop() called on ds3 at Mon Apr 27 16:33:04 2020
Module time:
	user time   =      17.20 seconds =       0.29 minutes
	system time =       7.89 seconds =       0.13 minutes
	total time  =         25 seconds =       0.42 minutes
Total time:
	user time   =      17.20 seconds =       0.29 minutes
	system time =       7.89 seconds =       0.13 minutes
	total time  =         25 seconds =       0.42 minutes
                                     G D M A

                                 by Anthony Stone

                           version 2.2.06, 22 June 2011

               Distributed Multipoles from Gaussian wavefunctions

Starting at 16:33:4 on 27 Apr 2020

Using SCF density matrix from file ./SSI/SSI-053ILE-077LEU-1-dimer.test.27149.fchk

                         Distributed Multipole Analysis

Standard DMA

Positions and radii in angstrom
Multipole moments in atomic units, ea_0^k for rank k

C          x =  1.154248  y = -1.331505  z = -0.073395 angstrom
           Maximum rank =  0   Radius =  0.650 angstrom
                   Q00  =  -0.082956

C          x =  1.150248  y = -1.346505  z = -1.610395 angstrom
           Maximum rank =  0   Radius =  0.650 angstrom
                   Q00  =  -0.244930

C          x =  2.328248  y = -0.592505  z =  0.538605 angstrom
           Maximum rank =  0   Radius =  0.650 angstrom
                   Q00  =  -0.241248

H          x =  0.233248  y = -0.877505  z =  0.284605 angstrom
           Maximum rank =  0   Radius =  0.325 angstrom
                   Q00  =   0.053395

H          x =  1.193248  y = -2.358505  z =  0.292605 angstrom
           Maximum rank =  0   Radius =  0.325 angstrom
                   Q00  =   0.042528

H          x =  2.001248  y = -1.938505  z = -1.946395 angstrom
           Maximum rank =  0   Radius =  0.325 angstrom
                   Q00  =   0.076856

H          x =  2.223248  y =  0.482495  z =  0.395605 angstrom
           Maximum rank =  0   Radius =  0.325 angstrom
                   Q00  =   0.078145

H          x =  2.360248  y = -0.792505  z =  1.610605 angstrom
           Maximum rank =  0   Radius =  0.325 angstrom
                   Q00  =   0.081155

H          x =  3.254248  y = -0.941505  z =  0.084605 angstrom
           Maximum rank =  0   Radius =  0.325 angstrom
                   Q00  =   0.074261

H          x =  0.226058  y = -1.815389  z = -1.979215 angstrom
           Maximum rank =  0   Radius =  0.325 angstrom
                   Q00  =   0.084057

H          x =  1.260808  y = -0.337075  z = -2.033265 angstrom
           Maximum rank =  0   Radius =  0.325 angstrom
                   Q00  =   0.076864

C          x = -1.574752  y =  1.299495  z =  0.548605 angstrom
           Maximum rank =  0   Radius =  0.650 angstrom
                   Q00  =  -0.240006

C          x = -2.981752  y =  1.884495  z =  0.589605 angstrom
           Maximum rank =  0   Radius =  0.650 angstrom
                   Q00  =  -0.232754

H          x = -1.428752  y =  0.743495  z = -0.374395 angstrom
           Maximum rank =  0   Radius =  0.325 angstrom
                   Q00  =   0.079064

H          x = -0.840752  y =  2.103495  z =  0.587605 angstrom
           Maximum rank =  0   Radius =  0.325 angstrom
                   Q00  =   0.081048

H          x = -1.421752  y =  0.636495  z =  1.399605 angstrom
           Maximum rank =  0   Radius =  0.325 angstrom
                   Q00  =   0.077108

H          x = -3.108752  y =  2.530495  z = -0.279395 angstrom
           Maximum rank =  0   Radius =  0.325 angstrom
                   Q00  =   0.077895

H          x = -3.738812  y =  1.087205  z =  0.555128 angstrom
           Maximum rank =  0   Radius =  0.325 angstrom
                   Q00  =   0.079806

H          x = -3.121332  y =  2.507545  z =  1.485331 angstrom
           Maximum rank =  0   Radius =  0.325 angstrom
                   Q00  =   0.079713

Total multipoles referred to origin at
           x =   0.000000,  y =    0.000000,  z =    0.000000 angstrom
                   Q00  =  -0.000000

Finished at 16:33:4 on 27 Apr 2020

  DMA results are available in the Python driver through the
	  variable('DMA DISTRIBUTED MULTIPOLES')
  and
	  variable('DMA TOTAL MULTIPOLES')
  commands.

    Psi4 stopped on: Monday, 27 April 2020 04:33PM
    Psi4 wall time for execution: 0:00:24.44

*** Psi4 exiting successfully. Buy a developer a beer!
