                               Psi4 1.3.2 release

  ==> Input File <==

--------------------------------------------------------------------------
import numpy as np
set {scf_type pk
basis cc-pvdz
d_convergence 10
gdma_switch   0
gdma_limit    0
gdma_origin   [ 0.0,  0.0,  0.0 ]
}
molecule test {
    units Angstrom
    0 1
    --
    0 1
    C                3.036758852967112     0.553095073673428    -0.741551130181072
    C               -0.535241147032887    -1.334904926326572     0.727448869818928
    C                0.328758852967113    -0.702904926326572     1.616448869818929
    C               -0.238241147032887    -1.361904926326572    -0.629551130181072
    C                1.490758852967113    -0.084904926326572     1.138448869818928
    C                0.924758852967113    -0.750904926326572    -1.103551130181072
    C                1.788758852967113    -0.097904926326572    -0.226551130181072
    H               -1.435241147032887    -1.808904926326572     1.094448869818928
    H                0.102758852967113    -0.685904926326572     2.673448869818928
    H               -0.905241147032887    -1.860904926326572    -1.318551130181072
    H                2.163758852967113     0.398095073673428     1.832448869818928
    H                1.149758852967113    -0.778904926326572    -2.160551130181072
    H                3.344758852967113     1.341095073673429    -0.056551130181072
    H                2.798758852967112     1.023095073673428    -1.695551130181072
    H                3.873031852967112    -0.145235926326572    -0.893141130181072
    C               -3.202241147032887     1.145095073673428     0.314448869818928
    C               -2.971241147032887     2.048095073673429    -0.900551130181072
    H               -4.057241147032888     0.492095073673428     0.148448869818928
    H               -2.326241147032887     0.529095073673428     0.484448869818928
    H               -3.380241147032887     1.755095073673428     1.193448869818928
    H               -2.934241147032888     1.409095073673428    -1.781551130181072
    H               -3.806508147032888     2.755742073673428    -1.008101130181072
    H               -2.003797347032887     2.567475073673429    -0.835001130181072

}
e, wfn = energy('scf', return_wfn=True)
gdma(wfn)
dmavals = variable('DMA DISTRIBUTED MULTIPOLES')
charges = np.array(dmavals)
print(charges)
np.save('SSI-108PHE-150VAL-1-dimer.npy', np.array(charges))--------------------------------------------------------------------------

*** tstart() called on ds3
*** at Tue Apr 28 03:52:17 2020

   => Loading Basis Set <=

    Name: CC-PVDZ
    Role: ORBITAL
    Keyword: BASIS
    atoms 1-7, 16-17  entry C          line   138 file /theoryfs2/ds/metcalf/miniconda2/envs/tf2gpu/share/psi4/basis/cc-pvdz.gbs
    atoms 8-15, 18-23 entry H          line    22 file /theoryfs2/ds/metcalf/miniconda2/envs/tf2gpu/share/psi4/basis/cc-pvdz.gbs

         ---------------------------------------------------------
                                   SCF
               by Justin Turney, Rob Parrish, Andy Simmonett
                          and Daniel G. A. Smith
                              RHF Reference
                        1 Threads,    500 MiB Core
         ---------------------------------------------------------

  ==> Geometry <==

    Molecular point group: c1
    Full point group: C1

    Geometry (in Angstrom), charge = 0, multiplicity = 1:

       Center              X                  Y                   Z               Mass
    ------------   -----------------  -----------------  -----------------  -----------------
         C            3.036758852967     0.553095073673    -0.741551130181    12.000000000000
         C           -0.535241147033    -1.334904926327     0.727448869819    12.000000000000
         C            0.328758852967    -0.702904926327     1.616448869819    12.000000000000
         C           -0.238241147033    -1.361904926327    -0.629551130181    12.000000000000
         C            1.490758852967    -0.084904926327     1.138448869819    12.000000000000
         C            0.924758852967    -0.750904926327    -1.103551130181    12.000000000000
         C            1.788758852967    -0.097904926327    -0.226551130181    12.000000000000
         H           -1.435241147033    -1.808904926327     1.094448869819     1.007825032230
         H            0.102758852967    -0.685904926327     2.673448869819     1.007825032230
         H           -0.905241147033    -1.860904926327    -1.318551130181     1.007825032230
         H            2.163758852967     0.398095073673     1.832448869819     1.007825032230
         H            1.149758852967    -0.778904926327    -2.160551130181     1.007825032230
         H            3.344758852967     1.341095073673    -0.056551130181     1.007825032230
         H            2.798758852967     1.023095073673    -1.695551130181     1.007825032230
         H            3.873031852967    -0.145235926327    -0.893141130181     1.007825032230
         C           -3.202241147033     1.145095073673     0.314448869819    12.000000000000
         C           -2.971241147033     2.048095073673    -0.900551130181    12.000000000000
         H           -4.057241147033     0.492095073673     0.148448869819     1.007825032230
         H           -2.326241147033     0.529095073673     0.484448869819     1.007825032230
         H           -3.380241147033     1.755095073673     1.193448869819     1.007825032230
         H           -2.934241147033     1.409095073673    -1.781551130181     1.007825032230
         H           -3.806508147033     2.755742073673    -1.008101130181     1.007825032230
         H           -2.003797347033     2.567475073673    -0.835001130181     1.007825032230

  Running in c1 symmetry.

  Rotational constants: A =      0.06963  B =      0.02608  C =      0.02362 [cm^-1]
  Rotational constants: A =   2087.32139  B =    781.99832  C =    708.19492 [MHz]
  Nuclear repulsion =  409.965285300765061

  Charge       = 0
  Multiplicity = 1
  Electrons    = 68
  Nalpha       = 34
  Nbeta        = 34

  ==> Algorithm <==

  SCF Algorithm Type is PK.
  DIIS enabled.
  MOM disabled.
  Fractional occupation disabled.
  Guess Type is SAD.
  Energy threshold   = 1.00e-06
  Density threshold  = 1.00e-10
  Integral threshold = 0.00e+00

  ==> Primary Basis <==

  Basis Set: CC-PVDZ
    Blend: CC-PVDZ
    Number of shells: 96
    Number of basis function: 196
    Number of Cartesian functions: 205
    Spherical Harmonics?: true
    Max angular momentum: 2

  ==> Pre-Iterations <==

   -------------------------------------------------------
    Irrep   Nso     Nmo     Nalpha   Nbeta   Ndocc  Nsocc
   -------------------------------------------------------
     A        196     196       0       0       0       0
   -------------------------------------------------------
    Total     196     196      34      34      34       0
   -------------------------------------------------------

  ==> Integral Setup <==

  Using integral reordering PK algorithm.
  Sizing the integral batches needed.
  Building batch lookup table.
   Calculation information:
      Number of atoms:                  23
      Number of AO shells:              96
      Number of primitives:            268
      Number of atomic orbitals:       205
      Number of basis functions:       196

      Integral cutoff                 1.00e-12
      Number of threads:                 1

	Batch   1 pq = [       0,    9405] index = [             0,44231715] size =     44231715
	Batch   2 pq = [    9405,   13301] index = [      44231715,88464951] size =     44233236
	Batch   3 pq = [   13301,   16290] index = [      88464951,132690195] size =     44225244
	Batch   4 pq = [   16290,   18810] index = [     132690195,176917455] size =     44227260
	Batch   5 pq = [   18810,   19306] index = [     176917455,186370471] size =      9453016
  Task number: 17
  Buffer size: 11059200
  Buffer per thread: 2
  We computed 9776103 shell quartets total.
  Whereas there are 10841496 unique shell quartets.

  ==> DiskJK: Disk-Based J/K Matrices <==

    J tasked:                  Yes
    K tasked:                  Yes
    wK tasked:                  No
    Memory [MiB]:              375
    Schwarz Cutoff:          1E-12

    OpenMP threads:              1

  Minimum eigenvalue in the overlap matrix is 3.1425905032E-04.
  Using Symmetric Orthogonalization.

  SCF Guess: Superposition of Atomic Densities via on-the-fly atomic UHF.

  ==> Iterations <==

                        Total Energy        Delta E     RMS |[F,P]|

   @RHF iter SAD:  -347.86403074426596   -3.47864e+02   0.00000e+00
   @RHF iter   1:  -348.76718659710070   -9.03156e-01   2.89297e-03 DIIS
   @RHF iter   2:  -348.95903742394501   -1.91851e-01   1.20037e-03 DIIS
   @RHF iter   3:  -348.98916228984496   -3.01249e-02   2.59215e-04 DIIS
   @RHF iter   4:  -348.99163023316214   -2.46794e-03   5.53527e-05 DIIS
   @RHF iter   5:  -348.99170914588649   -7.89127e-05   1.89083e-05 DIIS
   @RHF iter   6:  -348.99171784598286   -8.70010e-06   5.02165e-06 DIIS
   @RHF iter   7:  -348.99171857626271   -7.30280e-07   1.29128e-06 DIIS
   @RHF iter   8:  -348.99171864058400   -6.43213e-08   3.96374e-07 DIIS
   @RHF iter   9:  -348.99171865325008   -1.26661e-08   2.00644e-07 DIIS
   @RHF iter  10:  -348.99171865686543   -3.61536e-09   9.30983e-08 DIIS
   @RHF iter  11:  -348.99171865798496   -1.11953e-09   3.07198e-08 DIIS
   @RHF iter  12:  -348.99171865806551   -8.05471e-11   1.32979e-08 DIIS
   @RHF iter  13:  -348.99171865806977   -4.26326e-12   4.36121e-09 DIIS
   @RHF iter  14:  -348.99171865807477   -5.00222e-12   1.21234e-09 DIIS
   @RHF iter  15:  -348.99171865807284    1.93268e-12   4.39984e-10 DIIS
   @RHF iter  16:  -348.99171865807432   -1.47793e-12   1.72925e-10 DIIS
   @RHF iter  17:  -348.99171865807426    5.68434e-14   6.81770e-11 DIIS
  Energy and wave function converged.

  ==> Post-Iterations <==

    Orbital Energies [Eh]
    ---------------------

    Doubly Occupied:

       1A    -11.241414     2A    -11.237333     3A    -11.236864
       4A    -11.232865     5A    -11.232124     6A    -11.231950
       7A    -11.229237     8A    -11.212154     9A    -11.205480
      10A     -1.152775    11A     -1.046681    12A     -1.011025
      13A     -1.010048    14A     -0.932263    15A     -0.829775
      16A     -0.826543    17A     -0.795172    18A     -0.691578
      19A     -0.632317    20A     -0.631449    21A     -0.592675
      22A     -0.589328    23A     -0.582823    24A     -0.577941
      25A     -0.563664    26A     -0.536275    27A     -0.494443
      28A     -0.490026    29A     -0.485984    30A     -0.483198
      31A     -0.476367    32A     -0.474042    33A     -0.332170
      34A     -0.322479

    Virtual:

      35A      0.133262    36A      0.139264    37A      0.177262
      38A      0.195136    39A      0.205871    40A      0.217551
      41A      0.234857    42A      0.248627    43A      0.254355
      44A      0.262522    45A      0.267703    46A      0.274233
      47A      0.281648    48A      0.289378    49A      0.297783
      50A      0.329642    51A      0.364906    52A      0.375797
      53A      0.402166    54A      0.449910    55A      0.461933
      56A      0.478061    57A      0.488998    58A      0.559360
      59A      0.591764    60A      0.597307    61A      0.601558
      62A      0.619254    63A      0.636700    64A      0.670269
      65A      0.676925    66A      0.684691    67A      0.694312
      68A      0.702886    69A      0.736556    70A      0.739315
      71A      0.739709    72A      0.752893    73A      0.756694
      74A      0.762443    75A      0.784553    76A      0.832727
      77A      0.838578    78A      0.849402    79A      0.862413
      80A      0.866219    81A      0.875610    82A      0.890180
      83A      0.895041    84A      0.897549    85A      0.902909
      86A      0.907830    87A      0.910033    88A      0.922303
      89A      0.927309    90A      0.940408    91A      0.948609
      92A      0.954429    93A      0.995242    94A      1.002837
      95A      1.032228    96A      1.091499    97A      1.116102
      98A      1.127715    99A      1.136362   100A      1.145857
     101A      1.153004   102A      1.157383   103A      1.186586
     104A      1.237040   105A      1.245354   106A      1.248626
     107A      1.252892   108A      1.295070   109A      1.303530
     110A      1.321265   111A      1.321839   112A      1.359979
     113A      1.414100   114A      1.475719   115A      1.492398
     116A      1.506432   117A      1.521127   118A      1.558270
     119A      1.589182   120A      1.604056   121A      1.677026
     122A      1.688328   123A      1.695418   124A      1.707239
     125A      1.729195   126A      1.752807   127A      1.761526
     128A      1.788704   129A      1.807890   130A      1.852656
     131A      1.867033   132A      1.883492   133A      1.890141
     134A      1.896446   135A      1.898328   136A      1.911919
     137A      1.912838   138A      1.922142   139A      1.941287
     140A      1.945746   141A      1.948587   142A      1.949976
     143A      1.960184   144A      1.962937   145A      1.980586
     146A      1.990277   147A      1.995853   148A      1.999858
     149A      2.045825   150A      2.061403   151A      2.078230
     152A      2.107172   153A      2.110329   154A      2.141156
     155A      2.149654   156A      2.153373   157A      2.160936
     158A      2.174672   159A      2.177680   160A      2.251093
     161A      2.274583   162A      2.289513   163A      2.296857
     164A      2.303330   165A      2.313805   166A      2.316637
     167A      2.339721   168A      2.456714   169A      2.465998
     170A      2.471329   171A      2.478494   172A      2.495735
     173A      2.541039   174A      2.571653   175A      2.600613
     176A      2.621276   177A      2.736813   178A      2.752237
     179A      2.768460   180A      2.768577   181A      2.770736
     182A      2.804655   183A      2.824962   184A      2.850820
     185A      2.854241   186A      2.870860   187A      2.877546
     188A      2.955631   189A      2.970623   190A      2.987744
     191A      3.011344   192A      3.079372   193A      3.151266
     194A      3.200191   195A      3.291800   196A      3.965461

    Final Occupation by Irrep:
              A
    DOCC [    34 ]

  @RHF Final Energy:  -348.99171865807426

   => Energetics <=

    Nuclear Repulsion Energy =            409.9652853007650606
    One-Electron Energy =               -1282.6730858767841710
    Two-Electron Energy =                 523.7160819179448481
    Total Energy =                       -348.9917186580742055

Computation Completed

Properties will be evaluated at   0.000000,   0.000000,   0.000000 [a0]

Properties computed using the SCF density matrix

  Nuclear Dipole Moment: [e a0]
     X:    -6.9522      Y:     6.5539      Z:    -2.1771

  Electronic Dipole Moment: [e a0]
     X:     7.1501      Y:    -6.5639      Z:     2.1433

  Dipole Moment: [e a0]
     X:     0.1979      Y:    -0.0101      Z:    -0.0338     Total:     0.2010

  Dipole Moment: [D]
     X:     0.5031      Y:    -0.0256      Z:    -0.0858     Total:     0.5110

*** tstop() called on ds3 at Tue Apr 28 03:53:50 2020
Module time:
	user time   =      68.22 seconds =       1.14 minutes
	system time =      28.00 seconds =       0.47 minutes
	total time  =         93 seconds =       1.55 minutes
Total time:
	user time   =      68.22 seconds =       1.14 minutes
	system time =      28.00 seconds =       0.47 minutes
	total time  =         93 seconds =       1.55 minutes
                                     G D M A

                                 by Anthony Stone

                           version 2.2.06, 22 June 2011

               Distributed Multipoles from Gaussian wavefunctions

Starting at 3:53:50 on 28 Apr 2020

Using SCF density matrix from file ./SSI/SSI-108PHE-150VAL-1-dimer.test.26242.fchk

                         Distributed Multipole Analysis

Standard DMA

Positions and radii in angstrom
Multipole moments in atomic units, ea_0^k for rank k

C          x =  3.036759  y =  0.553095  z = -0.741551 angstrom
           Maximum rank =  0   Radius =  0.650 angstrom
                   Q00  =  -0.197649

C          x = -0.535241  y = -1.334905  z =  0.727449 angstrom
           Maximum rank =  0   Radius =  0.650 angstrom
                   Q00  =  -0.089889

C          x =  0.328759  y = -0.702905  z =  1.616449 angstrom
           Maximum rank =  0   Radius =  0.650 angstrom
                   Q00  =  -0.070459

C          x = -0.238241  y = -1.361905  z = -0.629551 angstrom
           Maximum rank =  0   Radius =  0.650 angstrom
                   Q00  =  -0.043578

C          x =  1.490759  y = -0.084905  z =  1.138449 angstrom
           Maximum rank =  0   Radius =  0.650 angstrom
                   Q00  =  -0.090048

C          x =  0.924759  y = -0.750905  z = -1.103551 angstrom
           Maximum rank =  0   Radius =  0.650 angstrom
                   Q00  =  -0.020382

C          x =  1.788759  y = -0.097905  z = -0.226551 angstrom
           Maximum rank =  0   Radius =  0.650 angstrom
                   Q00  =  -0.098827

H          x = -1.435241  y = -1.808905  z =  1.094449 angstrom
           Maximum rank =  0   Radius =  0.325 angstrom
                   Q00  =   0.062463

H          x =  0.102759  y = -0.685905  z =  2.673449 angstrom
           Maximum rank =  0   Radius =  0.325 angstrom
                   Q00  =   0.066768

H          x = -0.905241  y = -1.860905  z = -1.318551 angstrom
           Maximum rank =  0   Radius =  0.325 angstrom
                   Q00  =   0.065512

H          x =  2.163759  y =  0.398095  z =  1.832449 angstrom
           Maximum rank =  0   Radius =  0.325 angstrom
                   Q00  =   0.059051

H          x =  1.149759  y = -0.778905  z = -2.160551 angstrom
           Maximum rank =  0   Radius =  0.325 angstrom
                   Q00  =   0.057200

H          x =  3.344759  y =  1.341095  z = -0.056551 angstrom
           Maximum rank =  0   Radius =  0.325 angstrom
                   Q00  =   0.098504

H          x =  2.798759  y =  1.023095  z = -1.695551 angstrom
           Maximum rank =  0   Radius =  0.325 angstrom
                   Q00  =   0.097190

H          x =  3.873032  y = -0.145236  z = -0.893141 angstrom
           Maximum rank =  0   Radius =  0.325 angstrom
                   Q00  =   0.105321

C          x = -3.202241  y =  1.145095  z =  0.314449 angstrom
           Maximum rank =  0   Radius =  0.650 angstrom
                   Q00  =  -0.243659

C          x = -2.971241  y =  2.048095  z = -0.900551 angstrom
           Maximum rank =  0   Radius =  0.650 angstrom
                   Q00  =  -0.237965

H          x = -4.057241  y =  0.492095  z =  0.148449 angstrom
           Maximum rank =  0   Radius =  0.325 angstrom
                   Q00  =   0.071571

H          x = -2.326241  y =  0.529095  z =  0.484449 angstrom
           Maximum rank =  0   Radius =  0.325 angstrom
                   Q00  =   0.104415

H          x = -3.380241  y =  1.755095  z =  1.193449 angstrom
           Maximum rank =  0   Radius =  0.325 angstrom
                   Q00  =   0.073862

H          x = -2.934241  y =  1.409095  z = -1.781551 angstrom
           Maximum rank =  0   Radius =  0.325 angstrom
                   Q00  =   0.073350

H          x = -3.806508  y =  2.755742  z = -1.008101 angstrom
           Maximum rank =  0   Radius =  0.325 angstrom
                   Q00  =   0.074889

H          x = -2.003797  y =  2.567475  z = -0.835001 angstrom
           Maximum rank =  0   Radius =  0.325 angstrom
                   Q00  =   0.082360

Total multipoles referred to origin at
           x =   0.000000,  y =    0.000000,  z =    0.000000 angstrom
                   Q00  =  -0.000000

Finished at 3:53:50 on 28 Apr 2020

  DMA results are available in the Python driver through the
	  variable('DMA DISTRIBUTED MULTIPOLES')
  and
	  variable('DMA TOTAL MULTIPOLES')
  commands.

    Psi4 stopped on: Tuesday, 28 April 2020 03:53AM
    Psi4 wall time for execution: 0:01:33.31

*** Psi4 exiting successfully. Buy a developer a beer!
