                               Psi4 1.3.2 release

  ==> Input File <==

--------------------------------------------------------------------------
import numpy as np
set {scf_type pk
basis cc-pvdz
d_convergence 10
gdma_switch   0
gdma_limit    0
gdma_origin   [ 0.0,  0.0,  0.0 ]
}
molecule test {
    units Angstrom
    0 1
    --
    0 1
    C               -1.376389554243062    -2.101440878656082    -0.401490337144570
    C               -1.519389554243062     0.325559121343917     0.245509662855430
    C               -1.046389554243062    -0.952440878656083     0.514509662855430
    C               -1.176389554243062     1.386559121343917     1.076509662855430
    C               -0.236389554243062    -1.149440878656083     1.628509662855431
    C               -0.375389554243062     1.181559121343917     2.183509662855430
    C                0.096610445756938    -0.090440878656083     2.467509662855430
    H               -2.133389554243062     0.517559121343917    -0.622490337144570
    H               -1.549389554243062     2.375559121343918     0.866509662855430
    H               -0.756389554243062    -2.952440878656082    -0.113490337144570
    H               -1.094389554243062    -1.836440878656083    -1.421490337144570
    H                0.141610445756938    -2.136440878656082     1.853509662855430
    H               -0.120389554243062     2.010559121343917     2.829509662855430
    H                0.719610445756938    -0.261440878656083     3.335509662855430
    H               -2.428919554243062    -2.420630878656083    -0.384352337144570
    C                1.400610445756938     0.812559121343917    -1.802490337144570
    C                2.880610445756938     0.504559121343917    -1.886490337144570
    C                0.791610445756938     0.173559121343917    -3.012490337144570
    H                1.249610445756938     1.887559121343917    -1.860490337144570
    H                0.977610445756938     0.423559121343917    -0.878490337144570
    H                3.463610445756938     1.334559121343917    -1.487490337144570
    H                3.092610445756938    -0.414440878656083    -1.340490337144570
    H               -0.161389554243062     0.635559121343917    -3.278490337144570
    H                0.645610445756938    -0.890440878656083    -2.818490337144570
    H                3.062940445756938     0.355859121343917    -2.961034337144570
    H                1.569530445756938     0.292849121343917    -3.781006937144570

}
e, wfn = energy('scf', return_wfn=True)
gdma(wfn)
dmavals = variable('DMA DISTRIBUTED MULTIPOLES')
charges = np.array(dmavals)
print(charges)
np.save('SSI-129PHE-166PRO-1-dimer.npy', np.array(charges))--------------------------------------------------------------------------

*** tstart() called on ds3
*** at Mon Apr 27 18:08:06 2020

   => Loading Basis Set <=

    Name: CC-PVDZ
    Role: ORBITAL
    Keyword: BASIS
    atoms 1-7, 16-18  entry C          line   138 file /theoryfs2/ds/metcalf/miniconda2/envs/tf2gpu/share/psi4/basis/cc-pvdz.gbs
    atoms 8-15, 19-26 entry H          line    22 file /theoryfs2/ds/metcalf/miniconda2/envs/tf2gpu/share/psi4/basis/cc-pvdz.gbs

         ---------------------------------------------------------
                                   SCF
               by Justin Turney, Rob Parrish, Andy Simmonett
                          and Daniel G. A. Smith
                              RHF Reference
                        1 Threads,    500 MiB Core
         ---------------------------------------------------------

  ==> Geometry <==

    Molecular point group: c1
    Full point group: C1

    Geometry (in Angstrom), charge = 0, multiplicity = 1:

       Center              X                  Y                   Z               Mass
    ------------   -----------------  -----------------  -----------------  -----------------
         C           -1.376389554243    -2.101440878656    -0.401490337145    12.000000000000
         C           -1.519389554243     0.325559121344     0.245509662855    12.000000000000
         C           -1.046389554243    -0.952440878656     0.514509662855    12.000000000000
         C           -1.176389554243     1.386559121344     1.076509662855    12.000000000000
         C           -0.236389554243    -1.149440878656     1.628509662855    12.000000000000
         C           -0.375389554243     1.181559121344     2.183509662855    12.000000000000
         C            0.096610445757    -0.090440878656     2.467509662855    12.000000000000
         H           -2.133389554243     0.517559121344    -0.622490337145     1.007825032230
         H           -1.549389554243     2.375559121344     0.866509662855     1.007825032230
         H           -0.756389554243    -2.952440878656    -0.113490337145     1.007825032230
         H           -1.094389554243    -1.836440878656    -1.421490337145     1.007825032230
         H            0.141610445757    -2.136440878656     1.853509662855     1.007825032230
         H           -0.120389554243     2.010559121344     2.829509662855     1.007825032230
         H            0.719610445757    -0.261440878656     3.335509662855     1.007825032230
         H           -2.428919554243    -2.420630878656    -0.384352337145     1.007825032230
         C            1.400610445757     0.812559121344    -1.802490337145    12.000000000000
         C            2.880610445757     0.504559121344    -1.886490337145    12.000000000000
         C            0.791610445757     0.173559121344    -3.012490337145    12.000000000000
         H            1.249610445757     1.887559121344    -1.860490337145     1.007825032230
         H            0.977610445757     0.423559121344    -0.878490337145     1.007825032230
         H            3.463610445757     1.334559121344    -1.487490337145     1.007825032230
         H            3.092610445757    -0.414440878656    -1.340490337145     1.007825032230
         H           -0.161389554243     0.635559121344    -3.278490337145     1.007825032230
         H            0.645610445757    -0.890440878656    -2.818490337145     1.007825032230
         H            3.062940445757     0.355859121344    -2.961034337145     1.007825032230
         H            1.569530445757     0.292849121344    -3.781006937145     1.007825032230

  Running in c1 symmetry.

  Rotational constants: A =      0.05205  B =      0.02502  C =      0.02175 [cm^-1]
  Rotational constants: A =   1560.39188  B =    750.06973  C =    652.03962 [MHz]
  Nuclear repulsion =  503.696370665033498

  Charge       = 0
  Multiplicity = 1
  Electrons    = 76
  Nalpha       = 38
  Nbeta        = 38

  ==> Algorithm <==

  SCF Algorithm Type is PK.
  DIIS enabled.
  MOM disabled.
  Fractional occupation disabled.
  Guess Type is SAD.
  Energy threshold   = 1.00e-06
  Density threshold  = 1.00e-10
  Integral threshold = 0.00e+00

  ==> Primary Basis <==

  Basis Set: CC-PVDZ
    Blend: CC-PVDZ
    Number of shells: 108
    Number of basis function: 220
    Number of Cartesian functions: 230
    Spherical Harmonics?: true
    Max angular momentum: 2

  ==> Pre-Iterations <==

   -------------------------------------------------------
    Irrep   Nso     Nmo     Nalpha   Nbeta   Ndocc  Nsocc
   -------------------------------------------------------
     A        220     220       0       0       0       0
   -------------------------------------------------------
    Total     220     220      38      38      38       0
   -------------------------------------------------------

  ==> Integral Setup <==

  Using integral reordering PK algorithm.
  Sizing the integral batches needed.
  Building batch lookup table.
   Calculation information:
      Number of atoms:                  26
      Number of AO shells:             108
      Number of primitives:            300
      Number of atomic orbitals:       230
      Number of basis functions:       220

      Integral cutoff                 1.00e-12
      Number of threads:                 1

	Batch   1 pq = [       0,    9405] index = [             0,44231715] size =     44231715
	Batch   2 pq = [    9405,   13301] index = [      44231715,88464951] size =     44233236
	Batch   3 pq = [   13301,   16290] index = [      88464951,132690195] size =     44225244
	Batch   4 pq = [   16290,   18810] index = [     132690195,176917455] size =     44227260
	Batch   5 pq = [   18810,   21030] index = [     176917455,221140965] size =     44223510
	Batch   6 pq = [   21030,   23037] index = [     221140965,265363203] size =     44222238
	Batch   7 pq = [   23037,   24310] index = [     265363203,295500205] size =     30137002
  Task number: 27
  Buffer size: 11059200
  Buffer per thread: 2
  We computed 17113800 shell quartets total.
  Whereas there are 17325441 unique shell quartets.

  ==> DiskJK: Disk-Based J/K Matrices <==

    J tasked:                  Yes
    K tasked:                  Yes
    wK tasked:                  No
    Memory [MiB]:              375
    Schwarz Cutoff:          1E-12

    OpenMP threads:              1

  Minimum eigenvalue in the overlap matrix is 3.0131725885E-04.
  Using Symmetric Orthogonalization.

  SCF Guess: Superposition of Atomic Densities via on-the-fly atomic UHF.

  ==> Iterations <==

                        Total Energy        Delta E     RMS |[F,P]|

   @RHF iter SAD:  -387.12574235013494   -3.87126e+02   0.00000e+00
   @RHF iter   1:  -387.74677277702051   -6.21030e-01   2.80740e-03 DIIS
   @RHF iter   2:  -387.97013027424379   -2.23357e-01   1.19842e-03 DIIS
   @RHF iter   3:  -388.00757368009380   -3.74434e-02   2.53948e-04 DIIS
   @RHF iter   4:  -388.01048035334128   -2.90667e-03   5.32418e-05 DIIS
   @RHF iter   5:  -388.01057283048124   -9.24771e-05   1.68802e-05 DIIS
   @RHF iter   6:  -388.01058172742773   -8.89695e-06   5.07487e-06 DIIS
   @RHF iter   7:  -388.01058264366736   -9.16240e-07   1.21778e-06 DIIS
   @RHF iter   8:  -388.01058270650691   -6.28395e-08   2.86930e-07 DIIS
   @RHF iter   9:  -388.01058271335933   -6.85242e-09   1.14245e-07 DIIS
   @RHF iter  10:  -388.01058271472232   -1.36299e-09   5.38461e-08 DIIS
   @RHF iter  11:  -388.01058271515421   -4.31896e-10   2.18069e-08 DIIS
   @RHF iter  12:  -388.01058271523141   -7.71934e-11   8.11576e-09 DIIS
   @RHF iter  13:  -388.01058271523988   -8.46967e-12   2.90908e-09 DIIS
   @RHF iter  14:  -388.01058271524033   -4.54747e-13   8.89545e-10 DIIS
   @RHF iter  15:  -388.01058271524124   -9.09495e-13   3.54940e-10 DIIS
   @RHF iter  16:  -388.01058271524187   -6.25278e-13   1.44852e-10 DIIS
   @RHF iter  17:  -388.01058271523959    2.27374e-12   6.93108e-11 DIIS
  Energy and wave function converged.

  ==> Post-Iterations <==

    Orbital Energies [Eh]
    ---------------------

    Doubly Occupied:

       1A    -11.240742     2A    -11.235957     3A    -11.234068
       4A    -11.231418     5A    -11.230568     6A    -11.230055
       7A    -11.229640     8A    -11.208163     9A    -11.205608
      10A    -11.201879    11A     -1.156537    12A     -1.064040
      13A     -1.046689    14A     -1.013487    15A     -0.932736
      16A     -0.911512    17A     -0.826881    18A     -0.797126
      19A     -0.789909    20A     -0.693154    21A     -0.634678
      22A     -0.632753    23A     -0.629749    24A     -0.610078
      25A     -0.583606    26A     -0.577362    27A     -0.564585
      28A     -0.538537    29A     -0.533022    30A     -0.509275
      31A     -0.495695    32A     -0.486041    33A     -0.482339
      34A     -0.469185    35A     -0.458307    36A     -0.456167
      37A     -0.333363    38A     -0.324760

    Virtual:

      39A      0.133598    40A      0.142493    41A      0.171823
      42A      0.193991    43A      0.204137    44A      0.213329
      45A      0.230985    46A      0.236443    47A      0.246685
      48A      0.250203    49A      0.257879    50A      0.263159
      51A      0.281088    52A      0.295575    53A      0.296782
      54A      0.325079    55A      0.335417    56A      0.340614
      57A      0.370758    58A      0.375131    59A      0.388251
      60A      0.446028    61A      0.453755    62A      0.463394
      63A      0.479385    64A      0.502775    65A      0.564209
      66A      0.571136    67A      0.584161    68A      0.596789
      69A      0.608424    70A      0.635069    71A      0.645890
      72A      0.681728    73A      0.683031    74A      0.700336
      75A      0.719154    76A      0.729997    77A      0.738455
      78A      0.745009    79A      0.747994    80A      0.763203
      81A      0.774926    82A      0.784279    83A      0.791766
      84A      0.806692    85A      0.826395    86A      0.834710
      87A      0.856875    88A      0.864665    89A      0.868943
      90A      0.879463    91A      0.885136    92A      0.891667
      93A      0.897206    94A      0.899420    95A      0.909625
      96A      0.917479    97A      0.923094    98A      0.926358
      99A      0.935640   100A      0.938776   101A      0.949366
     102A      0.962771   103A      0.982883   104A      0.998190
     105A      1.000184   106A      1.019023   107A      1.040950
     108A      1.091444   109A      1.111961   110A      1.121894
     111A      1.126717   112A      1.154613   113A      1.155810
     114A      1.167978   115A      1.197487   116A      1.222363
     117A      1.247690   118A      1.251307   119A      1.261849
     120A      1.283325   121A      1.298753   122A      1.307443
     123A      1.322934   124A      1.332344   125A      1.416399
     126A      1.426896   127A      1.480459   128A      1.500341
     129A      1.512121   130A      1.530143   131A      1.554488
     132A      1.606118   133A      1.621583   134A      1.637328
     135A      1.643153   136A      1.685614   137A      1.694823
     138A      1.717427   139A      1.731752   140A      1.745679
     141A      1.752269   142A      1.764880   143A      1.795342
     144A      1.817455   145A      1.835960   146A      1.862620
     147A      1.866517   148A      1.880842   149A      1.891458
     150A      1.902753   151A      1.905714   152A      1.921046
     153A      1.929257   154A      1.932486   155A      1.941479
     156A      1.946241   157A      1.955181   158A      1.958633
     159A      1.969358   160A      1.972244   161A      1.994281
     162A      2.004018   163A      2.020479   164A      2.035598
     165A      2.038870   166A      2.045172   167A      2.053289
     168A      2.070760   169A      2.081997   170A      2.110991
     171A      2.112609   172A      2.143624   173A      2.150013
     174A      2.159775   175A      2.179426   176A      2.191180
     177A      2.202743   178A      2.233459   179A      2.242158
     180A      2.252127   181A      2.269809   182A      2.292832
     183A      2.306935   184A      2.316091   185A      2.322433
     186A      2.346873   187A      2.360980   188A      2.446351
     189A      2.462306   190A      2.466856   191A      2.492153
     192A      2.515905   193A      2.524587   194A      2.540498
     195A      2.569061   196A      2.630035   197A      2.653863
     198A      2.713093   199A      2.744950   200A      2.764828
     201A      2.768845   202A      2.775126   203A      2.787142
     204A      2.794391   205A      2.810710   206A      2.814173
     207A      2.855608   208A      2.864410   209A      2.874661
     210A      2.894903   211A      2.931391   212A      2.962109
     213A      2.990112   214A      3.016626   215A      3.042249
     216A      3.099276   217A      3.164506   218A      3.209221
     219A      3.306671   220A      3.981842

    Final Occupation by Irrep:
              A
    DOCC [    38 ]

  @RHF Final Energy:  -388.01058271523959

   => Energetics <=

    Nuclear Repulsion Energy =            503.6963706650334984
    One-Electron Energy =               -1521.8145665689562520
    Two-Electron Energy =                 630.1076131886831035
    Total Energy =                       -388.0105827152395932

Computation Completed

Properties will be evaluated at   0.000000,   0.000000,   0.000000 [a0]

Properties computed using the SCF density matrix

  Nuclear Dipole Moment: [e a0]
     X:     6.2609      Y:    -1.0112      Z:   -11.3085

  Electronic Dipole Moment: [e a0]
     X:    -6.3374      Y:     0.9598      Z:    11.3511

  Dipole Moment: [e a0]
     X:    -0.0765      Y:    -0.0514      Z:     0.0426     Total:     0.1016

  Dipole Moment: [D]
     X:    -0.1945      Y:    -0.1306      Z:     0.1083     Total:     0.2581

*** tstop() called on ds3 at Mon Apr 27 18:11:23 2020
Module time:
	user time   =     119.28 seconds =       1.99 minutes
	system time =      42.67 seconds =       0.71 minutes
	total time  =        197 seconds =       3.28 minutes
Total time:
	user time   =     119.28 seconds =       1.99 minutes
	system time =      42.67 seconds =       0.71 minutes
	total time  =        197 seconds =       3.28 minutes
                                     G D M A

                                 by Anthony Stone

                           version 2.2.06, 22 June 2011

               Distributed Multipoles from Gaussian wavefunctions

Starting at 18:11:23 on 27 Apr 2020

Using SCF density matrix from file ./SSI/SSI-129PHE-166PRO-1-dimer.test.18881.fchk

                         Distributed Multipole Analysis

Standard DMA

Positions and radii in angstrom
Multipole moments in atomic units, ea_0^k for rank k

C          x = -1.376390  y = -2.101441  z = -0.401490 angstrom
           Maximum rank =  0   Radius =  0.650 angstrom
                   Q00  =  -0.207882

C          x = -1.519390  y =  0.325559  z =  0.245510 angstrom
           Maximum rank =  0   Radius =  0.650 angstrom
                   Q00  =  -0.090756

C          x = -1.046390  y = -0.952441  z =  0.514510 angstrom
           Maximum rank =  0   Radius =  0.650 angstrom
                   Q00  =  -0.096083

C          x = -1.176390  y =  1.386559  z =  1.076510 angstrom
           Maximum rank =  0   Radius =  0.650 angstrom
                   Q00  =  -0.054219

C          x = -0.236390  y = -1.149441  z =  1.628510 angstrom
           Maximum rank =  0   Radius =  0.650 angstrom
                   Q00  =   0.004296

C          x = -0.375390  y =  1.181559  z =  2.183510 angstrom
           Maximum rank =  0   Radius =  0.650 angstrom
                   Q00  =  -0.085316

C          x =  0.096610  y = -0.090441  z =  2.467510 angstrom
           Maximum rank =  0   Radius =  0.650 angstrom
                   Q00  =  -0.069461

H          x = -2.133390  y =  0.517559  z = -0.622490 angstrom
           Maximum rank =  0   Radius =  0.325 angstrom
                   Q00  =   0.056221

H          x = -1.549390  y =  2.375559  z =  0.866510 angstrom
           Maximum rank =  0   Radius =  0.325 angstrom
                   Q00  =   0.062801

H          x = -0.756390  y = -2.952441  z = -0.113490 angstrom
           Maximum rank =  0   Radius =  0.325 angstrom
                   Q00  =   0.094398

H          x = -1.094390  y = -1.836441  z = -1.421490 angstrom
           Maximum rank =  0   Radius =  0.325 angstrom
                   Q00  =   0.103336

H          x =  0.141610  y = -2.136441  z =  1.853510 angstrom
           Maximum rank =  0   Radius =  0.325 angstrom
                   Q00  =   0.057827

H          x = -0.120390  y =  2.010559  z =  2.829510 angstrom
           Maximum rank =  0   Radius =  0.325 angstrom
                   Q00  =   0.060459

H          x =  0.719610  y = -0.261441  z =  3.335510 angstrom
           Maximum rank =  0   Radius =  0.325 angstrom
                   Q00  =   0.065712

H          x = -2.428920  y = -2.420631  z = -0.384352 angstrom
           Maximum rank =  0   Radius =  0.325 angstrom
                   Q00  =   0.105492

C          x =  1.400610  y =  0.812559  z = -1.802490 angstrom
           Maximum rank =  0   Radius =  0.650 angstrom
                   Q00  =  -0.096687

C          x =  2.880610  y =  0.504559  z = -1.886490 angstrom
           Maximum rank =  0   Radius =  0.650 angstrom
                   Q00  =  -0.235239

C          x =  0.791610  y =  0.173559  z = -3.012490 angstrom
           Maximum rank =  0   Radius =  0.650 angstrom
                   Q00  =  -0.212511

H          x =  1.249610  y =  1.887559  z = -1.860490 angstrom
           Maximum rank =  0   Radius =  0.325 angstrom
                   Q00  =   0.045386

H          x =  0.977610  y =  0.423559  z = -0.878490 angstrom
           Maximum rank =  0   Radius =  0.325 angstrom
                   Q00  =   0.072398

H          x =  3.463610  y =  1.334559  z = -1.487490 angstrom
           Maximum rank =  0   Radius =  0.325 angstrom
                   Q00  =   0.086374

H          x =  3.092610  y = -0.414441  z = -1.340490 angstrom
           Maximum rank =  0   Radius =  0.325 angstrom
                   Q00  =   0.082694

H          x = -0.161390  y =  0.635559  z = -3.278490 angstrom
           Maximum rank =  0   Radius =  0.325 angstrom
                   Q00  =   0.076343

H          x =  0.645610  y = -0.890441  z = -2.818490 angstrom
           Maximum rank =  0   Radius =  0.325 angstrom
                   Q00  =   0.069085

H          x =  3.062940  y =  0.355859  z = -2.961034 angstrom
           Maximum rank =  0   Radius =  0.325 angstrom
                   Q00  =   0.054910

H          x =  1.569530  y =  0.292849  z = -3.781007 angstrom
           Maximum rank =  0   Radius =  0.325 angstrom
                   Q00  =   0.050422

Total multipoles referred to origin at
           x =   0.000000,  y =    0.000000,  z =    0.000000 angstrom
                   Q00  =  -0.000000

Finished at 18:11:23 on 27 Apr 2020

  DMA results are available in the Python driver through the
	  variable('DMA DISTRIBUTED MULTIPOLES')
  and
	  variable('DMA TOTAL MULTIPOLES')
  commands.

    Psi4 stopped on: Monday, 27 April 2020 06:11PM
    Psi4 wall time for execution: 0:03:17.00

*** Psi4 exiting successfully. Buy a developer a beer!
