                               Psi4 1.3.2 release

  ==> Input File <==

--------------------------------------------------------------------------
import numpy as np
set {scf_type pk
basis cc-pvdz
d_convergence 10
gdma_switch   0
gdma_limit    0
gdma_origin   [ 0.0,  0.0,  0.0 ]
}
molecule test {
    units Angstrom
    0 1
    --
    0 1
    C               -1.671962215771393     0.573647112849569     1.175746584495469
    C               -0.966962215771393     0.898647112849569     2.485746584495469
    H               -2.643962215771393     1.062647112849570     1.109746584495469
    H               -1.069962215771393     0.942647112849569     0.344746584495469
    H               -1.790962215771393    -0.503352887150431     1.067746584495469
    H               -0.888962215771393     1.983647112849569     2.548746584495469
    H               -1.561573215771393     0.561207112849569     3.347471584495469
    H                0.059976784228607     0.504447112849569     2.484305584495469
    C                0.856037784228607    -0.493352887150431    -1.275253415504531
    C                1.777037784228607    -0.990352887150431    -2.384253415504531
    H               -0.187962215771393    -0.679352887150431    -1.532253415504531
    H                1.095037784228607    -0.997352887150431    -0.340253415504531
    H                0.998037784228607     0.578647112849569    -1.131253415504531
    H                2.806037784228606    -0.931352887150431    -2.021253415504531
    H                1.680857784228607    -0.343592887150431    -3.268815415504531
    H                1.573077784228607    -2.042362887150431    -2.632585415504531

}
e, wfn = energy('scf', return_wfn=True)
gdma(wfn)
dmavals = variable('DMA DISTRIBUTED MULTIPOLES')
charges = np.array(dmavals)
print(charges)
np.save('SSI-010VAL-027ALA-1-dimer.npy', np.array(charges))--------------------------------------------------------------------------

*** tstart() called on ds3
*** at Sun Apr 26 18:47:38 2020

   => Loading Basis Set <=

    Name: CC-PVDZ
    Role: ORBITAL
    Keyword: BASIS
    atoms 1-2, 9-10  entry C          line   138 file /theoryfs2/ds/metcalf/miniconda2/envs/tf2gpu/share/psi4/basis/cc-pvdz.gbs
    atoms 3-8, 11-16 entry H          line    22 file /theoryfs2/ds/metcalf/miniconda2/envs/tf2gpu/share/psi4/basis/cc-pvdz.gbs

         ---------------------------------------------------------
                                   SCF
               by Justin Turney, Rob Parrish, Andy Simmonett
                          and Daniel G. A. Smith
                              RHF Reference
                        1 Threads,    500 MiB Core
         ---------------------------------------------------------

  ==> Geometry <==

    Molecular point group: c1
    Full point group: C1

    Geometry (in Angstrom), charge = 0, multiplicity = 1:

       Center              X                  Y                   Z               Mass
    ------------   -----------------  -----------------  -----------------  -----------------
         C           -1.671962215771     0.573647112850     1.175746584495    12.000000000000
         C           -0.966962215771     0.898647112850     2.485746584495    12.000000000000
         H           -2.643962215771     1.062647112850     1.109746584495     1.007825032230
         H           -1.069962215771     0.942647112850     0.344746584495     1.007825032230
         H           -1.790962215771    -0.503352887150     1.067746584495     1.007825032230
         H           -0.888962215771     1.983647112850     2.548746584495     1.007825032230
         H           -1.561573215771     0.561207112850     3.347471584495     1.007825032230
         H            0.059976784229     0.504447112850     2.484305584495     1.007825032230
         C            0.856037784229    -0.493352887150    -1.275253415505    12.000000000000
         C            1.777037784229    -0.990352887150    -2.384253415505    12.000000000000
         H           -0.187962215771    -0.679352887150    -1.532253415505     1.007825032230
         H            1.095037784229    -0.997352887150    -0.340253415505     1.007825032230
         H            0.998037784229     0.578647112850    -1.131253415505     1.007825032230
         H            2.806037784229    -0.931352887150    -2.021253415505     1.007825032230
         H            1.680857784229    -0.343592887150    -3.268815415505     1.007825032230
         H            1.573077784229    -2.042362887150    -2.632585415505     1.007825032230

  Running in c1 symmetry.

  Rotational constants: A =      0.62275  B =      0.04510  C =      0.04343 [cm^-1]
  Rotational constants: A =  18669.42956  B =   1351.97704  C =   1302.05013 [MHz]
  Nuclear repulsion =  121.584662646147706

  Charge       = 0
  Multiplicity = 1
  Electrons    = 36
  Nalpha       = 18
  Nbeta        = 18

  ==> Algorithm <==

  SCF Algorithm Type is PK.
  DIIS enabled.
  MOM disabled.
  Fractional occupation disabled.
  Guess Type is SAD.
  Energy threshold   = 1.00e-06
  Density threshold  = 1.00e-10
  Integral threshold = 0.00e+00

  ==> Primary Basis <==

  Basis Set: CC-PVDZ
    Blend: CC-PVDZ
    Number of shells: 60
    Number of basis function: 116
    Number of Cartesian functions: 120
    Spherical Harmonics?: true
    Max angular momentum: 2

  ==> Pre-Iterations <==

   -------------------------------------------------------
    Irrep   Nso     Nmo     Nalpha   Nbeta   Ndocc  Nsocc
   -------------------------------------------------------
     A        116     116       0       0       0       0
   -------------------------------------------------------
    Total     116     116      18      18      18       0
   -------------------------------------------------------

  ==> Integral Setup <==

  Using integral reordering PK algorithm.
  Sizing the integral batches needed.
  Building batch lookup table.
   Calculation information:
      Number of atoms:                  16
      Number of AO shells:              60
      Number of primitives:            148
      Number of atomic orbitals:       120
      Number of basis functions:       116

      Integral cutoff                 1.00e-12
      Number of threads:                 1

	Batch   1 pq = [       0,    6786] index = [             0,23028291] size =     23028291
  Task number: 3
  Buffer size: 11059200
  Buffer per thread: 2
  We computed 1396665 shell quartets total.
  Whereas there are 1675365 unique shell quartets.

  ==> DiskJK: Disk-Based J/K Matrices <==

    J tasked:                  Yes
    K tasked:                  Yes
    wK tasked:                  No
    Memory [MiB]:              375
    Schwarz Cutoff:          1E-12

    OpenMP threads:              1

  Minimum eigenvalue in the overlap matrix is 6.4202191670E-03.
  Using Symmetric Orthogonalization.

  SCF Guess: Superposition of Atomic Densities via on-the-fly atomic UHF.

  ==> Iterations <==

                        Total Energy        Delta E     RMS |[F,P]|

   @RHF iter SAD:  -157.36148433527489   -1.57361e+02   0.00000e+00
   @RHF iter   1:  -158.30590119374347   -9.44417e-01   4.22871e-03 DIIS
   @RHF iter   2:  -158.44009473098140   -1.34194e-01   1.80820e-03 DIIS
   @RHF iter   3:  -158.46379770746600   -2.37030e-02   3.50751e-04 DIIS
   @RHF iter   4:  -158.46564374879111   -1.84604e-03   3.88753e-05 DIIS
   @RHF iter   5:  -158.46566753493323   -2.37861e-05   6.49663e-06 DIIS
   @RHF iter   6:  -158.46566816362235   -6.28689e-07   1.02562e-06 DIIS
   @RHF iter   7:  -158.46566817453623   -1.09139e-08   3.10925e-07 DIIS
   @RHF iter   8:  -158.46566817540230   -8.66066e-10   4.55956e-08 DIIS
   @RHF iter   9:  -158.46566817543734   -3.50440e-11   9.71465e-09 DIIS
   @RHF iter  10:  -158.46566817543930   -1.96110e-12   2.31095e-09 DIIS
   @RHF iter  11:  -158.46566817543882    4.83169e-13   3.55572e-10 DIIS
   @RHF iter  12:  -158.46566817543908   -2.55795e-13   7.25645e-11 DIIS
  Energy and wave function converged.

  ==> Post-Iterations <==

    Orbital Energies [Eh]
    ---------------------

    Doubly Occupied:

       1A    -11.219428     2A    -11.218093     3A    -11.216988
       4A    -11.214260     5A     -1.020195     6A     -1.017623
       7A     -0.838714     8A     -0.832985     9A     -0.600583
      10A     -0.598639    11A     -0.597388    12A     -0.595107
      13A     -0.505496    14A     -0.499601    15A     -0.488037
      16A     -0.485584    17A     -0.480665    18A     -0.479793

    Virtual:

      19A      0.172797    20A      0.194301    21A      0.227766
      22A      0.233631    23A      0.236896    24A      0.259928
      25A      0.264761    26A      0.278311    27A      0.282470
      28A      0.290994    29A      0.307781    30A      0.326923
      31A      0.394754    32A      0.407476    33A      0.567749
      34A      0.594959    35A      0.599734    36A      0.602453
      37A      0.608198    38A      0.635820    39A      0.674620
      40A      0.688736    41A      0.704008    42A      0.761919
      43A      0.847193    44A      0.873189    45A      0.885692
      46A      0.890946    47A      0.893932    48A      0.895714
      49A      0.904821    50A      0.910159    51A      0.915825
      52A      0.922540    53A      0.928863    54A      0.947473
      55A      0.970111    56A      1.001240    57A      1.122099
      58A      1.124647    59A      1.133528    60A      1.146465
      61A      1.236393    62A      1.253087    63A      1.471909
      64A      1.473534    65A      1.482976    66A      1.490380
      67A      1.570436    68A      1.587632    69A      1.678696
      70A      1.679569    71A      1.693101    72A      1.700658
      73A      1.853153    74A      1.862516    75A      1.866036
      76A      1.880933    77A      1.901748    78A      1.915755
      79A      1.937172    80A      1.940542    81A      1.943052
      82A      1.948493    83A      1.955354    84A      1.957674
      85A      1.965163    86A      1.972147    87A      1.983123
      88A      2.042013    89A      2.095206    90A      2.107028
      91A      2.125222    92A      2.133904    93A      2.295474
      94A      2.304047    95A      2.319150    96A      2.337444
      97A      2.442352    98A      2.453747    99A      2.460810
     100A      2.485319   101A      2.557025   102A      2.563317
     103A      2.574862   104A      2.586393   105A      2.757177
     106A      2.761173   107A      2.780836   108A      2.799304
     109A      2.841768   110A      2.849861   111A      2.854940
     112A      2.870489   113A      2.939754   114A      2.952541
     115A      2.956353   116A      2.974974

    Final Occupation by Irrep:
              A
    DOCC [    18 ]

  @RHF Final Energy:  -158.46566817543908

   => Energetics <=

    Nuclear Repulsion Energy =            121.5846626461477058
    One-Electron Energy =                -452.2823052386450513
    Two-Electron Energy =                 172.2319744170582680
    Total Energy =                       -158.4656681754390775

Computation Completed

Properties will be evaluated at   0.000000,   0.000000,   0.000000 [a0]

Properties computed using the SCF density matrix

  Nuclear Dipole Moment: [e a0]
     X:     0.0653      Y:     0.1274      Z:    -0.0222

  Electronic Dipole Moment: [e a0]
     X:    -0.0554      Y:    -0.1113      Z:     0.0073

  Dipole Moment: [e a0]
     X:     0.0099      Y:     0.0161      Z:    -0.0149     Total:     0.0240

  Dipole Moment: [D]
     X:     0.0250      Y:     0.0409      Z:    -0.0378     Total:     0.0611

*** tstop() called on ds3 at Sun Apr 26 18:47:49 2020
Module time:
	user time   =       7.70 seconds =       0.13 minutes
	system time =       2.78 seconds =       0.05 minutes
	total time  =         11 seconds =       0.18 minutes
Total time:
	user time   =       7.70 seconds =       0.13 minutes
	system time =       2.78 seconds =       0.05 minutes
	total time  =         11 seconds =       0.18 minutes
                                     G D M A

                                 by Anthony Stone

                           version 2.2.06, 22 June 2011

               Distributed Multipoles from Gaussian wavefunctions

Starting at 18:47:49 on 26 Apr 2020

Using SCF density matrix from file ./SSI/SSI-010VAL-027ALA-1-dimer.test.16687.fchk

                         Distributed Multipole Analysis

Standard DMA

Positions and radii in angstrom
Multipole moments in atomic units, ea_0^k for rank k

C          x = -1.671962  y =  0.573647  z =  1.175747 angstrom
           Maximum rank =  0   Radius =  0.650 angstrom
                   Q00  =  -0.242928

C          x = -0.966962  y =  0.898647  z =  2.485747 angstrom
           Maximum rank =  0   Radius =  0.650 angstrom
                   Q00  =  -0.229242

H          x = -2.643962  y =  1.062647  z =  1.109747 angstrom
           Maximum rank =  0   Radius =  0.325 angstrom
                   Q00  =   0.078495

H          x = -1.069962  y =  0.942647  z =  0.344747 angstrom
           Maximum rank =  0   Radius =  0.325 angstrom
                   Q00  =   0.081549

H          x = -1.790962  y = -0.503353  z =  1.067747 angstrom
           Maximum rank =  0   Radius =  0.325 angstrom
                   Q00  =   0.077320

H          x = -0.888962  y =  1.983647  z =  2.548747 angstrom
           Maximum rank =  0   Radius =  0.325 angstrom
                   Q00  =   0.073719

H          x = -1.561573  y =  0.561207  z =  3.347472 angstrom
           Maximum rank =  0   Radius =  0.325 angstrom
                   Q00  =   0.079862

H          x =  0.059977  y =  0.504447  z =  2.484306 angstrom
           Maximum rank =  0   Radius =  0.325 angstrom
                   Q00  =   0.080337

C          x =  0.856038  y = -0.493353  z = -1.275253 angstrom
           Maximum rank =  0   Radius =  0.650 angstrom
                   Q00  =  -0.236171

C          x =  1.777038  y = -0.990353  z = -2.384253 angstrom
           Maximum rank =  0   Radius =  0.650 angstrom
                   Q00  =  -0.234931

H          x = -0.187962  y = -0.679353  z = -1.532253 angstrom
           Maximum rank =  0   Radius =  0.325 angstrom
                   Q00  =   0.079390

H          x =  1.095038  y = -0.997353  z = -0.340253 angstrom
           Maximum rank =  0   Radius =  0.325 angstrom
                   Q00  =   0.079193

H          x =  0.998038  y =  0.578647  z = -1.131253 angstrom
           Maximum rank =  0   Radius =  0.325 angstrom
                   Q00  =   0.076210

H          x =  2.806038  y = -0.931353  z = -2.021253 angstrom
           Maximum rank =  0   Radius =  0.325 angstrom
                   Q00  =   0.076842

H          x =  1.680858  y = -0.343593  z = -3.268815 angstrom
           Maximum rank =  0   Radius =  0.325 angstrom
                   Q00  =   0.079415

H          x =  1.573078  y = -2.042363  z = -2.632585 angstrom
           Maximum rank =  0   Radius =  0.325 angstrom
                   Q00  =   0.080942

Total multipoles referred to origin at
           x =   0.000000,  y =    0.000000,  z =    0.000000 angstrom
                   Q00  =  -0.000000

Finished at 18:47:49 on 26 Apr 2020

  DMA results are available in the Python driver through the
	  variable('DMA DISTRIBUTED MULTIPOLES')
  and
	  variable('DMA TOTAL MULTIPOLES')
  commands.

    Psi4 stopped on: Sunday, 26 April 2020 06:47PM
    Psi4 wall time for execution: 0:00:10.20

*** Psi4 exiting successfully. Buy a developer a beer!
