                               Psi4 1.3.2 release

  ==> Input File <==

--------------------------------------------------------------------------
import numpy as np
set {scf_type pk
basis cc-pvdz
d_convergence 10
gdma_switch   0
gdma_limit    0
gdma_origin   [ 0.0,  0.0,  0.0 ]
}
molecule test {
    units Angstrom
    -1 1
    --
    -1 1
    C                0.687223332502973    -0.319846414080903    -0.452163394701449
    C                1.926223332502973     0.528153585919097    -0.714163394701449
    C               -0.250776667497027    -0.362846414080903    -1.651163394701449
    O               -0.444776667497027    -1.473846414080903    -2.198163394701449
    O               -0.789776667497027     0.703153585919097    -2.031163394701449
    H                0.989223332502973    -1.332846414080903    -0.176163394701449
    H                0.134223332502973     0.118153585919097     0.364836605298551
    H                2.384223332502972     0.198153585919097    -1.646163394701449
    H                2.637178332502972     0.441263585919097     0.120698605298551
    H                1.659881932502973     1.592073585919097    -0.798613394701449
    C               -0.681776667497027     0.826153585919097     3.810836605298551
    O               -0.312776667497027     0.052153585919097     2.677836605298551
    H               -0.932776667497027    -0.683846414080903     2.607836605298551
    H               -0.607776667497027     0.210153585919097     4.707836605298551
    H               -0.002582167497027     1.685603585919097     3.911057605298551
    H               -1.718453667497027     1.178233585919097     3.704343605298551

}
e, wfn = energy('scf', return_wfn=True)
gdma(wfn)
dmavals = variable('DMA DISTRIBUTED MULTIPOLES')
charges = np.array(dmavals)
print(charges)
np.save('SSI-040ASP-065THR-1-dimer.npy', np.array(charges))--------------------------------------------------------------------------

*** tstart() called on ds3
*** at Mon Apr 27 14:03:29 2020

   => Loading Basis Set <=

    Name: CC-PVDZ
    Role: ORBITAL
    Keyword: BASIS
    atoms 1-3, 11     entry C          line   138 file /theoryfs2/ds/metcalf/miniconda2/envs/tf2gpu/share/psi4/basis/cc-pvdz.gbs
    atoms 4-5, 12     entry O          line   198 file /theoryfs2/ds/metcalf/miniconda2/envs/tf2gpu/share/psi4/basis/cc-pvdz.gbs
    atoms 6-10, 13-16 entry H          line    22 file /theoryfs2/ds/metcalf/miniconda2/envs/tf2gpu/share/psi4/basis/cc-pvdz.gbs

         ---------------------------------------------------------
                                   SCF
               by Justin Turney, Rob Parrish, Andy Simmonett
                          and Daniel G. A. Smith
                              RHF Reference
                        1 Threads,    500 MiB Core
         ---------------------------------------------------------

  ==> Geometry <==

    Molecular point group: c1
    Full point group: C1

    Geometry (in Angstrom), charge = -1, multiplicity = 1:

       Center              X                  Y                   Z               Mass
    ------------   -----------------  -----------------  -----------------  -----------------
         C            0.687223332503    -0.319846414081    -0.452163394701    12.000000000000
         C            1.926223332503     0.528153585919    -0.714163394701    12.000000000000
         C           -0.250776667497    -0.362846414081    -1.651163394701    12.000000000000
         O           -0.444776667497    -1.473846414081    -2.198163394701    15.994914619570
         O           -0.789776667497     0.703153585919    -2.031163394701    15.994914619570
         H            0.989223332503    -1.332846414081    -0.176163394701     1.007825032230
         H            0.134223332503     0.118153585919     0.364836605299     1.007825032230
         H            2.384223332503     0.198153585919    -1.646163394701     1.007825032230
         H            2.637178332503     0.441263585919     0.120698605299     1.007825032230
         H            1.659881932503     1.592073585919    -0.798613394701     1.007825032230
         C           -0.681776667497     0.826153585919     3.810836605299    12.000000000000
         O           -0.312776667497     0.052153585919     2.677836605299    15.994914619570
         H           -0.932776667497    -0.683846414081     2.607836605299     1.007825032230
         H           -0.607776667497     0.210153585919     4.707836605299     1.007825032230
         H           -0.002582167497     1.685603585919     3.911057605299     1.007825032230
         H           -1.718453667497     1.178233585919     3.704343605299     1.007825032230

  Running in c1 symmetry.

  Rotational constants: A =      0.11882  B =      0.02807  C =      0.02612 [cm^-1]
  Rotational constants: A =   3562.25360  B =    841.48452  C =    783.08286 [MHz]
  Nuclear repulsion =  286.759588577982868

  Charge       = -1
  Multiplicity = 1
  Electrons    = 58
  Nalpha       = 29
  Nbeta        = 29

  ==> Algorithm <==

  SCF Algorithm Type is PK.
  DIIS enabled.
  MOM disabled.
  Fractional occupation disabled.
  Guess Type is SAD.
  Energy threshold   = 1.00e-06
  Density threshold  = 1.00e-10
  Integral threshold = 0.00e+00

  ==> Primary Basis <==

  Basis Set: CC-PVDZ
    Blend: CC-PVDZ
    Number of shells: 69
    Number of basis function: 143
    Number of Cartesian functions: 150
    Spherical Harmonics?: true
    Max angular momentum: 2

  ==> Pre-Iterations <==

   -------------------------------------------------------
    Irrep   Nso     Nmo     Nalpha   Nbeta   Ndocc  Nsocc
   -------------------------------------------------------
     A        143     143       0       0       0       0
   -------------------------------------------------------
    Total     143     143      29      29      29       0
   -------------------------------------------------------

  ==> Integral Setup <==

  Using integral reordering PK algorithm.
  Sizing the integral batches needed.
  Building batch lookup table.
   Calculation information:
      Number of atoms:                  16
      Number of AO shells:              69
      Number of primitives:            199
      Number of atomic orbitals:       150
      Number of basis functions:       143

      Integral cutoff                 1.00e-12
      Number of threads:                 1

	Batch   1 pq = [       0,    9405] index = [             0,44231715] size =     44231715
	Batch   2 pq = [    9405,   10296] index = [      44231715,53008956] size =      8777241
  Task number: 5
  Buffer size: 11059200
  Buffer per thread: 2
  We computed 2209139 shell quartets total.
  Whereas there are 2917320 unique shell quartets.

  ==> DiskJK: Disk-Based J/K Matrices <==

    J tasked:                  Yes
    K tasked:                  Yes
    wK tasked:                  No
    Memory [MiB]:              375
    Schwarz Cutoff:          1E-12

    OpenMP threads:              1

  Minimum eigenvalue in the overlap matrix is 4.5006467428E-03.
  Using Symmetric Orthogonalization.

  SCF Guess: Superposition of Atomic Densities via on-the-fly atomic UHF.

  ==> Iterations <==

                        Total Energy        Delta E     RMS |[F,P]|

   @RHF iter SAD:  -379.57562415094543   -3.79576e+02   0.00000e+00
   @RHF iter   1:  -381.04914290461983   -1.47352e+00   5.25986e-03 DIIS
   @RHF iter   2:  -381.25254676847692   -2.03404e-01   2.97259e-03 DIIS
   @RHF iter   3:  -381.31660628271624   -6.40595e-02   4.27470e-04 DIIS
   @RHF iter   4:  -381.31921282782372   -2.60655e-03   1.58664e-04 DIIS
   @RHF iter   5:  -381.31956217355230   -3.49346e-04   2.99329e-05 DIIS
   @RHF iter   6:  -381.31957751867162   -1.53451e-05   8.79657e-06 DIIS
   @RHF iter   7:  -381.31957873839423   -1.21972e-06   3.19002e-06 DIIS
   @RHF iter   8:  -381.31957888825536   -1.49861e-07   7.67922e-07 DIIS
   @RHF iter   9:  -381.31957890233298   -1.40776e-08   3.50449e-07 DIIS
   @RHF iter  10:  -381.31957890445949   -2.12651e-09   1.04803e-07 DIIS
   @RHF iter  11:  -381.31957890476707   -3.07580e-10   5.78663e-08 DIIS
   @RHF iter  12:  -381.31957890482539   -5.83213e-11   1.75869e-08 DIIS
   @RHF iter  13:  -381.31957890483676   -1.13687e-11   5.45590e-09 DIIS
   @RHF iter  14:  -381.31957890483693   -1.70530e-13   1.48744e-09 DIIS
   @RHF iter  15:  -381.31957890484000   -3.06954e-12   4.90877e-10 DIIS
   @RHF iter  16:  -381.31957890483795    2.04636e-12   1.88591e-10 DIIS
   @RHF iter  17:  -381.31957890483943   -1.47793e-12   5.99475e-11 DIIS
  Energy and wave function converged.

  ==> Post-Iterations <==

    Orbital Energies [Eh]
    ---------------------

    Doubly Occupied:

       1A    -20.458445     2A    -20.243755     3A    -20.243350
       4A    -11.194885     5A    -11.097049     6A    -11.064743
       7A    -11.028853     8A     -1.258164     9A     -1.131465
      10A     -1.019514    11A     -0.857619    12A     -0.835812
      13A     -0.687208    14A     -0.591898    15A     -0.530946
      16A     -0.504827    17A     -0.489460    18A     -0.441907
      19A     -0.415308    20A     -0.406917    21A     -0.372955
      22A     -0.355614    23A     -0.352878    24A     -0.342895
      25A     -0.308551    26A     -0.281889    27A     -0.162756
      28A     -0.157370    29A     -0.145971

    Virtual:

      30A      0.265741    31A      0.310609    32A      0.336832
      33A      0.341606    34A      0.355407    35A      0.400044
      36A      0.413112    37A      0.425132    38A      0.438617
      39A      0.474559    40A      0.489703    41A      0.569153
      42A      0.625982    43A      0.698994    44A      0.714992
      45A      0.719060    46A      0.727649    47A      0.773362
      48A      0.779824    49A      0.828035    50A      0.859268
      51A      0.911018    52A      0.939851    53A      0.969631
      54A      0.976156    55A      0.988970    56A      1.010663
      57A      1.013707    58A      1.031006    59A      1.043643
      60A      1.057805    61A      1.068957    62A      1.080173
      63A      1.095228    64A      1.142893    65A      1.159460
      66A      1.217080    67A      1.232892    68A      1.251308
      69A      1.269222    70A      1.316461    71A      1.318969
      72A      1.401006    73A      1.408830    74A      1.482578
      75A      1.510075    76A      1.529734    77A      1.561378
      78A      1.604086    79A      1.620791    80A      1.634816
      81A      1.650973    82A      1.690205    83A      1.706722
      84A      1.738097    85A      1.740333    86A      1.748642
      87A      1.763503    88A      1.837426    89A      1.848785
      90A      1.937599    91A      1.976169    92A      1.993095
      93A      1.999515    94A      2.040522    95A      2.048763
      96A      2.059272    97A      2.089079    98A      2.110395
      99A      2.119588   100A      2.131922   101A      2.148580
     102A      2.174885   103A      2.218648   104A      2.231343
     105A      2.273266   106A      2.311608   107A      2.350004
     108A      2.377683   109A      2.383880   110A      2.440318
     111A      2.456037   112A      2.468992   113A      2.513605
     114A      2.556622   115A      2.607556   116A      2.640936
     117A      2.703935   118A      2.745528   119A      2.774348
     120A      2.826583   121A      2.829962   122A      2.832128
     123A      2.849238   124A      2.918988   125A      3.002794
     126A      3.027965   127A      3.077710   128A      3.150225
     129A      3.261693   130A      3.298594   131A      3.315222
     132A      3.379015   133A      3.397281   134A      3.474847
     135A      3.549730   136A      3.644136   137A      3.683378
     138A      3.809566   139A      3.844590   140A      4.060153
     141A      4.099987   142A      4.180921   143A      4.206184

    Final Occupation by Irrep:
              A
    DOCC [    29 ]

  @RHF Final Energy:  -381.31957890483943

   => Energetics <=

    Nuclear Repulsion Energy =            286.7595885779828677
    One-Electron Energy =               -1102.1923285754571680
    Two-Electron Energy =                 434.1131610926348685
    Total Energy =                       -381.3195789048394317

Computation Completed

Properties will be evaluated at   0.000000,   0.000000,   0.000000 [a0]

Properties computed using the SCF density matrix

  Nuclear Dipole Moment: [e a0]
     X:     4.2516      Y:     3.1905      Z:    11.9881

  Electronic Dipole Moment: [e a0]
     X:    -3.7010      Y:    -2.6280      Z:    -7.3857

  Dipole Moment: [e a0]
     X:     0.5506      Y:     0.5625      Z:     4.6024     Total:     4.6692

  Dipole Moment: [D]
     X:     1.3995      Y:     1.4296      Z:    11.6981     Total:    11.8680

*** tstop() called on ds3 at Mon Apr 27 14:03:53 2020
Module time:
	user time   =      17.15 seconds =       0.29 minutes
	system time =       7.95 seconds =       0.13 minutes
	total time  =         24 seconds =       0.40 minutes
Total time:
	user time   =      17.15 seconds =       0.29 minutes
	system time =       7.95 seconds =       0.13 minutes
	total time  =         24 seconds =       0.40 minutes
                                     G D M A

                                 by Anthony Stone

                           version 2.2.06, 22 June 2011

               Distributed Multipoles from Gaussian wavefunctions

Starting at 14:3:53 on 27 Apr 2020

Using SCF density matrix from file ./SSI/SSI-040ASP-065THR-1-dimer.test.8650.fchk

                         Distributed Multipole Analysis

Standard DMA

Positions and radii in angstrom
Multipole moments in atomic units, ea_0^k for rank k

C          x =  0.687223  y = -0.319846  z = -0.452163 angstrom
           Maximum rank =  0   Radius =  0.650 angstrom
                   Q00  =  -0.102210

C          x =  1.926223  y =  0.528154  z = -0.714163 angstrom
           Maximum rank =  0   Radius =  0.650 angstrom
                   Q00  =  -0.205413

C          x = -0.250777  y = -0.362846  z = -1.651163 angstrom
           Maximum rank =  0   Radius =  0.650 angstrom
                   Q00  =   0.966125

O          x = -0.444777  y = -1.473846  z = -2.198163 angstrom
           Maximum rank =  0   Radius =  0.650 angstrom
                   Q00  =  -0.930480

O          x = -0.789777  y =  0.703154  z = -2.031163 angstrom
           Maximum rank =  0   Radius =  0.650 angstrom
                   Q00  =  -0.955155

H          x =  0.989223  y = -1.332846  z = -0.176163 angstrom
           Maximum rank =  0   Radius =  0.325 angstrom
                   Q00  =   0.009640

H          x =  0.134223  y =  0.118154  z =  0.364837 angstrom
           Maximum rank =  0   Radius =  0.325 angstrom
                   Q00  =   0.053845

H          x =  2.384223  y =  0.198154  z = -1.646163 angstrom
           Maximum rank =  0   Radius =  0.325 angstrom
                   Q00  =   0.059461

H          x =  2.637178  y =  0.441264  z =  0.120699 angstrom
           Maximum rank =  0   Radius =  0.325 angstrom
                   Q00  =   0.019743

H          x =  1.659882  y =  1.592074  z = -0.798613 angstrom
           Maximum rank =  0   Radius =  0.325 angstrom
                   Q00  =   0.072506

C          x = -0.681777  y =  0.826154  z =  3.810837 angstrom
           Maximum rank =  0   Radius =  0.650 angstrom
                   Q00  =  -0.028984

O          x = -0.312777  y =  0.052154  z =  2.677837 angstrom
           Maximum rank =  0   Radius =  0.650 angstrom
                   Q00  =  -0.563359

H          x = -0.932777  y = -0.683846  z =  2.607837 angstrom
           Maximum rank =  0   Radius =  0.325 angstrom
                   Q00  =   0.383922

H          x = -0.607777  y =  0.210154  z =  4.707837 angstrom
           Maximum rank =  0   Radius =  0.325 angstrom
                   Q00  =   0.048058

H          x = -0.002582  y =  1.685604  z =  3.911058 angstrom
           Maximum rank =  0   Radius =  0.325 angstrom
                   Q00  =   0.110186

H          x = -1.718454  y =  1.178234  z =  3.704344 angstrom
           Maximum rank =  0   Radius =  0.325 angstrom
                   Q00  =   0.062115

Total multipoles referred to origin at
           x =   0.000000,  y =    0.000000,  z =    0.000000 angstrom
                   Q00  =  -1.000000

Finished at 14:3:53 on 27 Apr 2020

  DMA results are available in the Python driver through the
	  variable('DMA DISTRIBUTED MULTIPOLES')
  and
	  variable('DMA TOTAL MULTIPOLES')
  commands.

    Psi4 stopped on: Monday, 27 April 2020 02:03PM
    Psi4 wall time for execution: 0:00:24.58

*** Psi4 exiting successfully. Buy a developer a beer!
