                               Psi4 1.3.2 release

  ==> Input File <==

--------------------------------------------------------------------------
import numpy as np
set {scf_type pk
basis cc-pvdz
d_convergence 10
gdma_switch   0
gdma_limit    0
gdma_origin   [ 0.0,  0.0,  0.0 ]
}
molecule test {
    units Angstrom
    0 1
    --
    0 1
    C                1.646909292679539    -2.329012997301116     1.344843826792644
    C                1.492909292679538    -3.755012997301116     1.863843826792644
    H                2.668909292679538    -2.156012997301116     1.006843826792644
    H                0.959909292679539    -2.163012997301117     0.514843826792644
    H                1.409909292679538    -1.620012997301116     2.137843826792645
    H                0.465909292679538    -3.887012997301116     2.202843826792644
    H                2.188009292679538    -3.910997997301116     2.701994826792644
    H                1.706819292679538    -4.472623997301116     1.058066826792644
    C               -1.329090707320461    -0.075012997301116     1.987843826792644
    C               -2.645090707320462     0.660987002698884     2.289843826792644
    C               -0.394090707320462     0.553987002698884     0.999843826792644
    C                0.738909292679538     1.258987002698884     1.278843826792644
    C               -0.448090707320462     0.430987002698884    -0.433156173207356
    C                0.708909292679538     1.073987002698884    -0.958156173207356
    C               -1.349090707320462    -0.167012997301116    -1.330156173207356
    C                0.978909292679538     1.134987002698884    -2.323156173207356
    C               -1.082090707320462    -0.106012997301116    -2.702156173207356
    C                0.072909292679538     0.538987002698884    -3.189156173207356
    N                1.405909292679538     1.564987002698884     0.113843826792644
    H               -0.791090707320462    -0.223012997301116     2.924843826792644
    H               -1.578090707320462    -1.056012997301116     1.605843826792644
    H               -3.158090707320461     0.105987002698884     3.074843826792644
    H                1.089909292679538     1.489987002698884     2.279843826792644
    H                2.289909292679539     2.059987002698884     0.076843826792644
    H               -2.229090707320462    -0.672012997301116    -0.963156173207356
    H                1.863909292679538     1.633987002698884    -2.693156173207356
    H               -1.768090707320462    -0.563012997301116    -3.400156173207356
    H                0.251909292679538     0.571987002698884    -4.255156173207356
    H               -3.288220707320462     0.722957002698884     1.399592826792644
    H               -2.469390707320462     1.671633002698884     2.686986826792644

}
e, wfn = energy('scf', return_wfn=True)
gdma(wfn)
dmavals = variable('DMA DISTRIBUTED MULTIPOLES')
charges = np.array(dmavals)
print(charges)
np.save('SSI-014LEU-070TRP-1-dimer.npy', np.array(charges))--------------------------------------------------------------------------

*** tstart() called on ds3
*** at Tue Apr 28 09:02:01 2020

   => Loading Basis Set <=

    Name: CC-PVDZ
    Role: ORBITAL
    Keyword: BASIS
    atoms 1-2, 9-18  entry C          line   138 file /theoryfs2/ds/metcalf/miniconda2/envs/tf2gpu/share/psi4/basis/cc-pvdz.gbs
    atoms 3-8, 20-30 entry H          line    22 file /theoryfs2/ds/metcalf/miniconda2/envs/tf2gpu/share/psi4/basis/cc-pvdz.gbs
    atoms 19         entry N          line   168 file /theoryfs2/ds/metcalf/miniconda2/envs/tf2gpu/share/psi4/basis/cc-pvdz.gbs

         ---------------------------------------------------------
                                   SCF
               by Justin Turney, Rob Parrish, Andy Simmonett
                          and Daniel G. A. Smith
                              RHF Reference
                        1 Threads,    500 MiB Core
         ---------------------------------------------------------

  ==> Geometry <==

    Molecular point group: c1
    Full point group: C1

    Geometry (in Angstrom), charge = 0, multiplicity = 1:

       Center              X                  Y                   Z               Mass
    ------------   -----------------  -----------------  -----------------  -----------------
         C            1.646909292680    -2.329012997301     1.344843826793    12.000000000000
         C            1.492909292680    -3.755012997301     1.863843826793    12.000000000000
         H            2.668909292680    -2.156012997301     1.006843826793     1.007825032230
         H            0.959909292680    -2.163012997301     0.514843826793     1.007825032230
         H            1.409909292680    -1.620012997301     2.137843826793     1.007825032230
         H            0.465909292680    -3.887012997301     2.202843826793     1.007825032230
         H            2.188009292680    -3.910997997301     2.701994826793     1.007825032230
         H            1.706819292680    -4.472623997301     1.058066826793     1.007825032230
         C           -1.329090707320    -0.075012997301     1.987843826793    12.000000000000
         C           -2.645090707320     0.660987002699     2.289843826793    12.000000000000
         C           -0.394090707320     0.553987002699     0.999843826793    12.000000000000
         C            0.738909292680     1.258987002699     1.278843826793    12.000000000000
         C           -0.448090707320     0.430987002699    -0.433156173207    12.000000000000
         C            0.708909292680     1.073987002699    -0.958156173207    12.000000000000
         C           -1.349090707320    -0.167012997301    -1.330156173207    12.000000000000
         C            0.978909292680     1.134987002699    -2.323156173207    12.000000000000
         C           -1.082090707320    -0.106012997301    -2.702156173207    12.000000000000
         C            0.072909292680     0.538987002699    -3.189156173207    12.000000000000
         N            1.405909292680     1.564987002699     0.113843826793    14.003074004430
         H           -0.791090707320    -0.223012997301     2.924843826793     1.007825032230
         H           -1.578090707320    -1.056012997301     1.605843826793     1.007825032230
         H           -3.158090707320     0.105987002699     3.074843826793     1.007825032230
         H            1.089909292680     1.489987002699     2.279843826793     1.007825032230
         H            2.289909292680     2.059987002699     0.076843826793     1.007825032230
         H           -2.229090707320    -0.672012997301    -0.963156173207     1.007825032230
         H            1.863909292680     1.633987002699    -2.693156173207     1.007825032230
         H           -1.768090707320    -0.563012997301    -3.400156173207     1.007825032230
         H            0.251909292680     0.571987002699    -4.255156173207     1.007825032230
         H           -3.288220707320     0.722957002699     1.399592826793     1.007825032230
         H           -2.469390707320     1.671633002699     2.686986826793     1.007825032230

  Running in c1 symmetry.

  Rotational constants: A =      0.02647  B =      0.01807  C =      0.01518 [cm^-1]
  Rotational constants: A =    793.66961  B =    541.79554  C =    455.22018 [MHz]
  Nuclear repulsion =  761.830066166219922

  Charge       = 0
  Multiplicity = 1
  Electrons    = 96
  Nalpha       = 48
  Nbeta        = 48

  ==> Algorithm <==

  SCF Algorithm Type is PK.
  DIIS enabled.
  MOM disabled.
  Fractional occupation disabled.
  Guess Type is SAD.
  Energy threshold   = 1.00e-06
  Density threshold  = 1.00e-10
  Integral threshold = 0.00e+00

  ==> Primary Basis <==

  Basis Set: CC-PVDZ
    Blend: CC-PVDZ
    Number of shells: 129
    Number of basis function: 267
    Number of Cartesian functions: 280
    Spherical Harmonics?: true
    Max angular momentum: 2

  ==> Pre-Iterations <==

   -------------------------------------------------------
    Irrep   Nso     Nmo     Nalpha   Nbeta   Ndocc  Nsocc
   -------------------------------------------------------
     A        267     267       0       0       0       0
   -------------------------------------------------------
    Total     267     267      48      48      48       0
   -------------------------------------------------------

  ==> Integral Setup <==

  Using integral reordering PK algorithm.
  Sizing the integral batches needed.
  Building batch lookup table.
   Calculation information:
      Number of atoms:                  30
      Number of AO shells:             129
      Number of primitives:            371
      Number of atomic orbitals:       280
      Number of basis functions:       267

      Integral cutoff                 1.00e-12
      Number of threads:                 1

	Batch   1 pq = [       0,    9405] index = [             0,44231715] size =     44231715
	Batch   2 pq = [    9405,   13301] index = [      44231715,88464951] size =     44233236
	Batch   3 pq = [   13301,   16290] index = [      88464951,132690195] size =     44225244
	Batch   4 pq = [   16290,   18810] index = [     132690195,176917455] size =     44227260
	Batch   5 pq = [   18810,   21030] index = [     176917455,221140965] size =     44223510
	Batch   6 pq = [   21030,   23037] index = [     221140965,265363203] size =     44222238
	Batch   7 pq = [   23037,   24883] index = [     265363203,309594286] size =     44231083
	Batch   8 pq = [   24883,   26601] index = [     309594286,353819901] size =     44225615
	Batch   9 pq = [   26601,   28214] index = [     353819901,398029005] size =     44209104
	Batch  10 pq = [   28214,   29740] index = [     398029005,442248670] size =     44219665
	Batch  11 pq = [   29740,   31191] index = [     442248670,486454836] size =     44206166
	Batch  12 pq = [   31191,   32578] index = [     486454836,530679331] size =     44224495
	Batch  13 pq = [   32578,   33908] index = [     530679331,574893186] size =     44213855
	Batch  14 pq = [   33908,   35188] index = [     574893186,619115266] size =     44222080
	Batch  15 pq = [   35188,   35778] index = [     619115266,640050531] size =     20935265
  Task number: 58
  Buffer size: 11059200
  Buffer per thread: 2
  We computed 37416560 shell quartets total.
  Whereas there are 35158305 unique shell quartets.
     6.42 percent of shell quartets recomputed by reordering.

  ==> DiskJK: Disk-Based J/K Matrices <==

    J tasked:                  Yes
    K tasked:                  Yes
    wK tasked:                  No
    Memory [MiB]:              375
    Schwarz Cutoff:          1E-12

    OpenMP threads:              1

  Minimum eigenvalue in the overlap matrix is 2.4148979538E-04.
  Using Symmetric Orthogonalization.

  SCF Guess: Superposition of Atomic Densities via on-the-fly atomic UHF.

  ==> Iterations <==

                        Total Energy        Delta E     RMS |[F,P]|

   @RHF iter SAD:  -517.96494588192672   -5.17965e+02   0.00000e+00
   @RHF iter   1:  -518.49663279789195   -5.31687e-01   2.48483e-03 DIIS
   @RHF iter   2:  -518.75144290236881   -2.54810e-01   1.11541e-03 DIIS
   @RHF iter   3:  -518.79818441296641   -4.67415e-02   2.97887e-04 DIIS
   @RHF iter   4:  -518.80252300535290   -4.33859e-03   1.40050e-04 DIIS
   @RHF iter   5:  -518.80331059406194   -7.87589e-04   1.87440e-05 DIIS
   @RHF iter   6:  -518.80334120129328   -3.06072e-05   8.53166e-06 DIIS
   @RHF iter   7:  -518.80334712244155   -5.92115e-06   3.54341e-06 DIIS
   @RHF iter   8:  -518.80334882187890   -1.69944e-06   1.40584e-06 DIIS
   @RHF iter   9:  -518.80334918141443   -3.59536e-07   6.33448e-07 DIIS
   @RHF iter  10:  -518.80334925501518   -7.36007e-08   2.89794e-07 DIIS
   @RHF iter  11:  -518.80334927197680   -1.69616e-08   1.11273e-07 DIIS
   @RHF iter  12:  -518.80334927457352   -2.59672e-09   4.32987e-08 DIIS
   @RHF iter  13:  -518.80334927480430   -2.30784e-10   1.36267e-08 DIIS
   @RHF iter  14:  -518.80334927481999   -1.56888e-11   4.68692e-09 DIIS
   @RHF iter  15:  -518.80334927482045   -4.54747e-13   2.01773e-09 DIIS
   @RHF iter  16:  -518.80334927482852   -8.07177e-12   9.13861e-10 DIIS
   @RHF iter  17:  -518.80334927482670    1.81899e-12   4.23249e-10 DIIS
   @RHF iter  18:  -518.80334927482249    4.20641e-12   1.64626e-10 DIIS
   @RHF iter  19:  -518.80334927482431   -1.81899e-12   6.15106e-11 DIIS
  Energy and wave function converged.

  ==> Post-Iterations <==

    Orbital Energies [Eh]
    ---------------------

    Doubly Occupied:

       1A    -15.602019     2A    -11.265061     3A    -11.264640
       4A    -11.232493     5A    -11.231777     6A    -11.230466
       7A    -11.227404     8A    -11.223124     9A    -11.221817
      10A    -11.219433    11A    -11.214971    12A    -11.212207
      13A    -11.205254    14A     -1.294393    15A     -1.125546
      16A     -1.081320    17A     -1.013294    18A     -1.010984
      19A     -0.991177    20A     -0.967680    21A     -0.858863
      22A     -0.838153    23A     -0.826580    24A     -0.803323
      25A     -0.746718    26A     -0.718070    27A     -0.664364
      28A     -0.642210    29A     -0.615886    30A     -0.596139
      31A     -0.591535    32A     -0.589963    33A     -0.586941
      34A     -0.581865    35A     -0.574507    36A     -0.544316
      37A     -0.517032    38A     -0.509558    39A     -0.500466
      40A     -0.489487    41A     -0.480234    42A     -0.477951
      43A     -0.476175    44A     -0.462972    45A     -0.459026
      46A     -0.371190    47A     -0.294003    48A     -0.274735

    Virtual:

      49A      0.123756    50A      0.165786    51A      0.172393
      52A      0.180251    53A      0.194352    54A      0.200635
      55A      0.214231    56A      0.224784    57A      0.239407
      58A      0.240198    59A      0.249658    60A      0.258395
      61A      0.260516    62A      0.268198    63A      0.275087
      64A      0.281932    65A      0.293351    66A      0.300498
      67A      0.321524    68A      0.335129    69A      0.376738
      70A      0.380351    71A      0.395051    72A      0.405032
      73A      0.422441    74A      0.429099    75A      0.445296
      76A      0.472337    77A      0.485883    78A      0.504638
      79A      0.511630    80A      0.575432    81A      0.587501
      82A      0.606395    83A      0.606933    84A      0.614822
      85A      0.627069    86A      0.633708    87A      0.654269
      88A      0.659452    89A      0.673515    90A      0.683755
      91A      0.703380    92A      0.712001    93A      0.720520
      94A      0.731103    95A      0.736647    96A      0.744229
      97A      0.752872    98A      0.759520    99A      0.764313
     100A      0.777854   101A      0.791347   102A      0.793463
     103A      0.797809   104A      0.848318   105A      0.852489
     106A      0.866102   107A      0.876478   108A      0.884782
     109A      0.887844   110A      0.890477   111A      0.899177
     112A      0.903314   113A      0.905463   114A      0.909051
     115A      0.912938   116A      0.924401   117A      0.929749
     118A      0.935248   119A      0.947240   120A      0.956445
     121A      0.972654   122A      0.972980   123A      0.982916
     124A      0.993962   125A      0.995999   126A      1.014096
     127A      1.019725   128A      1.041709   129A      1.067898
     130A      1.077711   131A      1.089085   132A      1.118744
     133A      1.128706   134A      1.135361   135A      1.142624
     136A      1.158914   137A      1.165522   138A      1.180746
     139A      1.199919   140A      1.219092   141A      1.224302
     142A      1.232049   143A      1.255028   144A      1.263619
     145A      1.269620   146A      1.285636   147A      1.295374
     148A      1.321998   149A      1.333981   150A      1.360498
     151A      1.370172   152A      1.387305   153A      1.425849
     154A      1.439610   155A      1.454994   156A      1.490837
     157A      1.492905   158A      1.504021   159A      1.547200
     160A      1.583427   161A      1.588359   162A      1.600669
     163A      1.640661   164A      1.649387   165A      1.652589
     166A      1.683117   167A      1.690485   168A      1.697786
     169A      1.728542   170A      1.738186   171A      1.752890
     172A      1.763084   173A      1.784989   174A      1.791514
     175A      1.811454   176A      1.853975   177A      1.863580
     178A      1.869389   179A      1.877397   180A      1.885944
     181A      1.889701   182A      1.903542   183A      1.909723
     184A      1.916991   185A      1.918980   186A      1.928175
     187A      1.940507   188A      1.944167   189A      1.949301
     190A      1.954506   191A      1.967021   192A      1.968053
     193A      1.976164   194A      1.977757   195A      1.984226
     196A      1.992993   197A      1.997000   198A      2.011210
     199A      2.018449   200A      2.038672   201A      2.055659
     202A      2.062878   203A      2.088535   204A      2.095469
     205A      2.100514   206A      2.112120   207A      2.113318
     208A      2.120210   209A      2.136245   210A      2.153435
     211A      2.156692   212A      2.158603   213A      2.165872
     214A      2.179983   215A      2.229727   216A      2.265113
     217A      2.268884   218A      2.286655   219A      2.306562
     220A      2.309211   221A      2.330130   222A      2.348273
     223A      2.350229   224A      2.362733   225A      2.380688
     226A      2.405025   227A      2.450742   228A      2.468273
     229A      2.476052   230A      2.482486   231A      2.522228
     232A      2.549466   233A      2.561277   234A      2.575384
     235A      2.581537   236A      2.584637   237A      2.597947
     238A      2.643684   239A      2.669432   240A      2.696785
     241A      2.717104   242A      2.765002   243A      2.770158
     244A      2.773404   245A      2.783729   246A      2.796406
     247A      2.802001   248A      2.808255   249A      2.837060
     250A      2.858713   251A      2.860562   252A      2.903740
     253A      2.912425   254A      2.926182   255A      2.955559
     256A      2.972244   257A      2.987931   258A      2.995059
     259A      3.047414   260A      3.060397   261A      3.100332
     262A      3.129278   263A      3.207434   264A      3.304275
     265A      3.378127   266A      3.743105   267A      3.934673

    Final Occupation by Irrep:
              A
    DOCC [    48 ]

  @RHF Final Energy:  -518.80334927482431

   => Energetics <=

    Nuclear Repulsion Energy =            761.8300661662199218
    One-Electron Energy =               -2213.4121870324534029
    Two-Electron Energy =                 932.7787715914091677
    Total Energy =                       -518.8033492748243134

Computation Completed

Properties will be evaluated at   0.000000,   0.000000,   0.000000 [a0]

Properties computed using the SCF density matrix

  Nuclear Dipole Moment: [e a0]
     X:    -0.3668      Y:   -11.6922      Z:    11.5864

  Electronic Dipole Moment: [e a0]
     X:     0.9702      Y:    12.0848      Z:   -11.2262

  Dipole Moment: [e a0]
     X:     0.6033      Y:     0.3927      Z:     0.3602     Total:     0.8050

  Dipole Moment: [D]
     X:     1.5336      Y:     0.9980      Z:     0.9156     Total:     2.0460

*** tstop() called on ds3 at Tue Apr 28 09:14:08 2020
Module time:
	user time   =     290.96 seconds =       4.85 minutes
	system time =     112.35 seconds =       1.87 minutes
	total time  =        727 seconds =      12.12 minutes
Total time:
	user time   =     290.96 seconds =       4.85 minutes
	system time =     112.35 seconds =       1.87 minutes
	total time  =        727 seconds =      12.12 minutes
                                     G D M A

                                 by Anthony Stone

                           version 2.2.06, 22 June 2011

               Distributed Multipoles from Gaussian wavefunctions

Starting at 9:14:8 on 28 Apr 2020

Using SCF density matrix from file ./SSI/SSI-014LEU-070TRP-1-dimer.test.9317.fchk

                         Distributed Multipole Analysis

Standard DMA

Positions and radii in angstrom
Multipole moments in atomic units, ea_0^k for rank k

C          x =  1.646909  y = -2.329013  z =  1.344844 angstrom
           Maximum rank =  0   Radius =  0.650 angstrom
                   Q00  =  -0.223668

C          x =  1.492909  y = -3.755013  z =  1.863844 angstrom
           Maximum rank =  0   Radius =  0.650 angstrom
                   Q00  =  -0.241412

H          x =  2.668909  y = -2.156013  z =  1.006844 angstrom
           Maximum rank =  0   Radius =  0.325 angstrom
                   Q00  =   0.072814

H          x =  0.959909  y = -2.163013  z =  0.514844 angstrom
           Maximum rank =  0   Radius =  0.325 angstrom
                   Q00  =   0.088951

H          x =  1.409909  y = -1.620013  z =  2.137844 angstrom
           Maximum rank =  0   Radius =  0.325 angstrom
                   Q00  =   0.072415

H          x =  0.465909  y = -3.887013  z =  2.202844 angstrom
           Maximum rank =  0   Radius =  0.325 angstrom
                   Q00  =   0.075976

H          x =  2.188009  y = -3.910998  z =  2.701995 angstrom
           Maximum rank =  0   Radius =  0.325 angstrom
                   Q00  =   0.072905

H          x =  1.706819  y = -4.472624  z =  1.058067 angstrom
           Maximum rank =  0   Radius =  0.325 angstrom
                   Q00  =   0.077899

C          x = -1.329091  y = -0.075013  z =  1.987844 angstrom
           Maximum rank =  0   Radius =  0.650 angstrom
                   Q00  =  -0.033684

C          x = -2.645091  y =  0.660987  z =  2.289844 angstrom
           Maximum rank =  0   Radius =  0.650 angstrom
                   Q00  =  -0.254027

C          x = -0.394091  y =  0.553987  z =  0.999844 angstrom
           Maximum rank =  0   Radius =  0.650 angstrom
                   Q00  =  -0.119603

C          x =  0.738909  y =  1.258987  z =  1.278844 angstrom
           Maximum rank =  0   Radius =  0.650 angstrom
                   Q00  =   0.072840

C          x = -0.448091  y =  0.430987  z = -0.433156 angstrom
           Maximum rank =  0   Radius =  0.650 angstrom
                   Q00  =  -0.053225

C          x =  0.708909  y =  1.073987  z = -0.958156 angstrom
           Maximum rank =  0   Radius =  0.650 angstrom
                   Q00  =   0.289685

C          x = -1.349091  y = -0.167013  z = -1.330156 angstrom
           Maximum rank =  0   Radius =  0.650 angstrom
                   Q00  =  -0.102067

C          x =  0.978909  y =  1.134987  z = -2.323156 angstrom
           Maximum rank =  0   Radius =  0.650 angstrom
                   Q00  =  -0.118220

C          x = -1.082091  y = -0.106013  z = -2.702156 angstrom
           Maximum rank =  0   Radius =  0.650 angstrom
                   Q00  =  -0.089625

C          x =  0.072909  y =  0.538987  z = -3.189156 angstrom
           Maximum rank =  0   Radius =  0.650 angstrom
                   Q00  =  -0.068441

N          x =  1.405909  y =  1.564987  z =  0.113844 angstrom
           Maximum rank =  0   Radius =  0.650 angstrom
                   Q00  =  -0.495920

H          x = -0.791091  y = -0.223013  z =  2.924844 angstrom
           Maximum rank =  0   Radius =  0.325 angstrom
                   Q00  =   0.067799

H          x = -1.578091  y = -1.056013  z =  1.605844 angstrom
           Maximum rank =  0   Radius =  0.325 angstrom
                   Q00  =   0.071013

H          x = -3.158091  y =  0.105987  z =  3.074844 angstrom
           Maximum rank =  0   Radius =  0.325 angstrom
                   Q00  =   0.079689

H          x =  1.089909  y =  1.489987  z =  2.279844 angstrom
           Maximum rank =  0   Radius =  0.325 angstrom
                   Q00  =   0.101498

H          x =  2.289909  y =  2.059987  z =  0.076844 angstrom
           Maximum rank =  0   Radius =  0.325 angstrom
                   Q00  =   0.216951

H          x = -2.229091  y = -0.672013  z = -0.963156 angstrom
           Maximum rank =  0   Radius =  0.325 angstrom
                   Q00  =   0.070063

H          x =  1.863909  y =  1.633987  z = -2.693156 angstrom
           Maximum rank =  0   Radius =  0.325 angstrom
                   Q00  =   0.073842

H          x = -1.768091  y = -0.563013  z = -3.400156 angstrom
           Maximum rank =  0   Radius =  0.325 angstrom
                   Q00  =   0.061833

H          x =  0.251909  y =  0.571987  z = -4.255156 angstrom
           Maximum rank =  0   Radius =  0.325 angstrom
                   Q00  =   0.066039

H          x = -3.288221  y =  0.722957  z =  1.399593 angstrom
           Maximum rank =  0   Radius =  0.325 angstrom
                   Q00  =   0.086096

H          x = -2.469391  y =  1.671633  z =  2.686987 angstrom
           Maximum rank =  0   Radius =  0.325 angstrom
                   Q00  =   0.081585

Total multipoles referred to origin at
           x =   0.000000,  y =    0.000000,  z =    0.000000 angstrom
                   Q00  =  -0.000000

Finished at 9:14:8 on 28 Apr 2020

  DMA results are available in the Python driver through the
	  variable('DMA DISTRIBUTED MULTIPOLES')
  and
	  variable('DMA TOTAL MULTIPOLES')
  commands.

    Psi4 stopped on: Tuesday, 28 April 2020 09:14AM
    Psi4 wall time for execution: 0:12:07.53

*** Psi4 exiting successfully. Buy a developer a beer!
