                               Psi4 1.3.2 release

  ==> Input File <==

--------------------------------------------------------------------------
import numpy as np
set {scf_type pk
basis cc-pvdz
d_convergence 10
gdma_switch   0
gdma_limit    0
gdma_origin   [ 0.0,  0.0,  0.0 ]
}
molecule test {
    units Angstrom
    0 1
    --
    0 1
    C               -1.288667453054497    -1.701368637429872    -1.980702467243178
    C               -2.205667453054496    -2.345368637429873    -3.015702467243178
    H               -1.366667453054497    -2.234368637429872    -1.031702467243178
    H               -0.254667453054497    -1.751368637429872    -2.321702467243178
    H               -1.568667453054497    -0.658368637429872    -1.825702467243178
    H               -2.122667453054497    -1.754368637429872    -3.927702467243178
    H               -3.247747453054497    -2.296363637429872    -2.666902467243178
    H               -1.891907453054497    -3.370467637429873    -3.262122467243178
    C               -1.138667453054497     1.489631362570128     2.926297532756823
    C                0.458332546945503     1.317631362570128    -0.505702467243178
    C               -0.296667453054497     1.724631362570128     0.585297532756822
    C                1.226332546945503     0.167631362570128    -0.366702467243178
    C               -0.313667453054497     0.976631362570128     1.770297532756822
    C                1.247332546945503    -0.584368637429872     0.818297532756822
    C                0.465332546945503    -0.171368637429872     1.900297532756822
    O                2.021332546945503    -0.275368637429872    -1.363702467243178
    H                0.432332546945503     1.882631362570128    -1.419702467243178
    H               -0.903667453054497     2.619631362570128     0.512297532756822
    H                2.490332546945503    -1.070368637429872    -1.092702467243178
    H                1.856332546945503    -1.474368637429872     0.907297532756822
    H               -1.474667453054497     0.663631362570128     3.555297532756822
    H               -2.020667453054497     1.980631362570128     2.516297532756822
    H                0.462332546945503    -0.738368637429872     2.820297532756822
    H               -0.489927453054497     2.169401362570128     3.498177532756822

}
e, wfn = energy('scf', return_wfn=True)
gdma(wfn)
dmavals = variable('DMA DISTRIBUTED MULTIPOLES')
charges = np.array(dmavals)
print(charges)
np.save('SSI-029LEU-095TYR-1-dimer.npy', np.array(charges))--------------------------------------------------------------------------

*** tstart() called on ds3
*** at Tue Apr 28 12:06:40 2020

   => Loading Basis Set <=

    Name: CC-PVDZ
    Role: ORBITAL
    Keyword: BASIS
    atoms 1-2, 9-15  entry C          line   138 file /theoryfs2/ds/metcalf/miniconda2/envs/tf2gpu/share/psi4/basis/cc-pvdz.gbs
    atoms 3-8, 17-24 entry H          line    22 file /theoryfs2/ds/metcalf/miniconda2/envs/tf2gpu/share/psi4/basis/cc-pvdz.gbs
    atoms 16         entry O          line   198 file /theoryfs2/ds/metcalf/miniconda2/envs/tf2gpu/share/psi4/basis/cc-pvdz.gbs

         ---------------------------------------------------------
                                   SCF
               by Justin Turney, Rob Parrish, Andy Simmonett
                          and Daniel G. A. Smith
                              RHF Reference
                        1 Threads,    500 MiB Core
         ---------------------------------------------------------

  ==> Geometry <==

    Molecular point group: c1
    Full point group: C1

    Geometry (in Angstrom), charge = 0, multiplicity = 1:

       Center              X                  Y                   Z               Mass
    ------------   -----------------  -----------------  -----------------  -----------------
         C           -1.288667453054    -1.701368637430    -1.980702467243    12.000000000000
         C           -2.205667453054    -2.345368637430    -3.015702467243    12.000000000000
         H           -1.366667453054    -2.234368637430    -1.031702467243     1.007825032230
         H           -0.254667453054    -1.751368637430    -2.321702467243     1.007825032230
         H           -1.568667453054    -0.658368637430    -1.825702467243     1.007825032230
         H           -2.122667453054    -1.754368637430    -3.927702467243     1.007825032230
         H           -3.247747453054    -2.296363637430    -2.666902467243     1.007825032230
         H           -1.891907453054    -3.370467637430    -3.262122467243     1.007825032230
         C           -1.138667453054     1.489631362570     2.926297532757    12.000000000000
         C            0.458332546946     1.317631362570    -0.505702467243    12.000000000000
         C           -0.296667453054     1.724631362570     0.585297532757    12.000000000000
         C            1.226332546946     0.167631362570    -0.366702467243    12.000000000000
         C           -0.313667453054     0.976631362570     1.770297532757    12.000000000000
         C            1.247332546946    -0.584368637430     0.818297532757    12.000000000000
         C            0.465332546946    -0.171368637430     1.900297532757    12.000000000000
         O            2.021332546946    -0.275368637430    -1.363702467243    15.994914619570
         H            0.432332546946     1.882631362570    -1.419702467243     1.007825032230
         H           -0.903667453054     2.619631362570     0.512297532757     1.007825032230
         H            2.490332546946    -1.070368637430    -1.092702467243     1.007825032230
         H            1.856332546946    -1.474368637430     0.907297532757     1.007825032230
         H           -1.474667453054     0.663631362570     3.555297532757     1.007825032230
         H           -2.020667453054     1.980631362570     2.516297532757     1.007825032230
         H            0.462332546946    -0.738368637430     2.820297532757     1.007825032230
         H           -0.489927453054     2.169401362570     3.498177532757     1.007825032230

  Running in c1 symmetry.

  Rotational constants: A =      0.05120  B =      0.02291  C =      0.01923 [cm^-1]
  Rotational constants: A =   1535.04245  B =    686.71249  C =    576.52897 [MHz]
  Nuclear repulsion =  499.749060984586890

  Charge       = 0
  Multiplicity = 1
  Electrons    = 76
  Nalpha       = 38
  Nbeta        = 38

  ==> Algorithm <==

  SCF Algorithm Type is PK.
  DIIS enabled.
  MOM disabled.
  Fractional occupation disabled.
  Guess Type is SAD.
  Energy threshold   = 1.00e-06
  Density threshold  = 1.00e-10
  Integral threshold = 0.00e+00

  ==> Primary Basis <==

  Basis Set: CC-PVDZ
    Blend: CC-PVDZ
    Number of shells: 102
    Number of basis function: 210
    Number of Cartesian functions: 220
    Spherical Harmonics?: true
    Max angular momentum: 2

  ==> Pre-Iterations <==

   -------------------------------------------------------
    Irrep   Nso     Nmo     Nalpha   Nbeta   Ndocc  Nsocc
   -------------------------------------------------------
     A        210     210       0       0       0       0
   -------------------------------------------------------
    Total     210     210      38      38      38       0
   -------------------------------------------------------

  ==> Integral Setup <==

  Using integral reordering PK algorithm.
  Sizing the integral batches needed.
  Building batch lookup table.
   Calculation information:
      Number of atoms:                  24
      Number of AO shells:             102
      Number of primitives:            290
      Number of atomic orbitals:       220
      Number of basis functions:       210

      Integral cutoff                 1.00e-12
      Number of threads:                 1

	Batch   1 pq = [       0,    9405] index = [             0,44231715] size =     44231715
	Batch   2 pq = [    9405,   13301] index = [      44231715,88464951] size =     44233236
	Batch   3 pq = [   13301,   16290] index = [      88464951,132690195] size =     44225244
	Batch   4 pq = [   16290,   18810] index = [     132690195,176917455] size =     44227260
	Batch   5 pq = [   18810,   21030] index = [     176917455,221140965] size =     44223510
	Batch   6 pq = [   21030,   22155] index = [     221140965,245433090] size =     24292125
  Task number: 23
  Buffer size: 11059200
  Buffer per thread: 2
  We computed 11916621 shell quartets total.
  Whereas there are 13799631 unique shell quartets.

  ==> DiskJK: Disk-Based J/K Matrices <==

    J tasked:                  Yes
    K tasked:                  Yes
    wK tasked:                  No
    Memory [MiB]:              375
    Schwarz Cutoff:          1E-12

    OpenMP threads:              1

  Minimum eigenvalue in the overlap matrix is 3.3391992950E-04.
  Using Symmetric Orthogonalization.

  SCF Guess: Superposition of Atomic Densities via on-the-fly atomic UHF.

  ==> Iterations <==

                        Total Energy        Delta E     RMS |[F,P]|

   @RHF iter SAD:  -422.70519760541487   -4.22705e+02   0.00000e+00
   @RHF iter   1:  -423.59640519733739   -8.91208e-01   2.98552e-03 DIIS
   @RHF iter   2:  -423.81390348486377   -2.17498e-01   1.25381e-03 DIIS
   @RHF iter   3:  -423.84862804195490   -3.47246e-02   2.83943e-04 DIIS
   @RHF iter   4:  -423.85147954523978   -2.85150e-03   1.17659e-04 DIIS
   @RHF iter   5:  -423.85183602705990   -3.56482e-04   2.04645e-05 DIIS
   @RHF iter   6:  -423.85185352477993   -1.74977e-05   6.59627e-06 DIIS
   @RHF iter   7:  -423.85185522894807   -1.70417e-06   2.12627e-06 DIIS
   @RHF iter   8:  -423.85185547290769   -2.43960e-07   8.17742e-07 DIIS
   @RHF iter   9:  -423.85185551492054   -4.20129e-08   3.28387e-07 DIIS
   @RHF iter  10:  -423.85185552339431   -8.47376e-09   1.40486e-07 DIIS
   @RHF iter  11:  -423.85185552598375   -2.58945e-09   6.65350e-08 DIIS
   @RHF iter  12:  -423.85185552649216   -5.08408e-10   2.98039e-08 DIIS
   @RHF iter  13:  -423.85185552657737   -8.52083e-11   8.42380e-09 DIIS
   @RHF iter  14:  -423.85185552658317   -5.79803e-12   2.19129e-09 DIIS
   @RHF iter  15:  -423.85185552658248    6.82121e-13   7.67628e-10 DIIS
   @RHF iter  16:  -423.85185552658294   -4.54747e-13   2.79734e-10 DIIS
   @RHF iter  17:  -423.85185552658459   -1.64846e-12   1.31471e-10 DIIS
   @RHF iter  18:  -423.85185552658362    9.66338e-13   6.77153e-11 DIIS
  Energy and wave function converged.

  ==> Post-Iterations <==

    Orbital Energies [Eh]
    ---------------------

    Doubly Occupied:

       1A    -20.581548     2A    -11.299180     3A    -11.239324
       4A    -11.238002     5A    -11.233543     6A    -11.231165
       7A    -11.230473     8A    -11.226722     9A    -11.211583
      10A    -11.205386    11A     -1.405962    12A     -1.148670
      13A     -1.034756    14A     -1.019794    15A     -1.010133
      16A     -0.921266    17A     -0.845193    18A     -0.826617
      19A     -0.802146    20A     -0.731443    21A     -0.668905
      22A     -0.642000    23A     -0.607363    24A     -0.594076
      25A     -0.592389    26A     -0.589532    27A     -0.585969
      28A     -0.575550    29A     -0.563588    30A     -0.525215
      31A     -0.493420    32A     -0.491578    33A     -0.484445
      34A     -0.479933    35A     -0.472537    36A     -0.463706
      37A     -0.340380    38A     -0.296277

    Virtual:

      39A      0.128143    40A      0.157217    41A      0.175018
      42A      0.186267    43A      0.197414    44A      0.214392
      45A      0.221380    46A      0.250145    47A      0.257968
      48A      0.260960    49A      0.266654    50A      0.273635
      51A      0.280671    52A      0.291920    53A      0.298577
      54A      0.308992    55A      0.369083    56A      0.371343
      57A      0.394328    58A      0.433503    59A      0.454376
      60A      0.476867    61A      0.495315    62A      0.506031
      63A      0.576057    64A      0.604049    65A      0.609678
      66A      0.615125    67A      0.638202    68A      0.649295
      69A      0.659705    70A      0.676966    71A      0.684946
      72A      0.691926    73A      0.701678    74A      0.725916
      75A      0.731457    76A      0.748741    77A      0.759832
      78A      0.762616    79A      0.786526    80A      0.798319
      81A      0.809519    82A      0.843417    83A      0.845177
      84A      0.857907    85A      0.878273    86A      0.884304
      87A      0.889003    88A      0.897212    89A      0.900242
      90A      0.902261    91A      0.917400    92A      0.922743
      93A      0.923794    94A      0.934742    95A      0.943073
      96A      0.949214    97A      0.951222    98A      0.985370
      99A      0.987740   100A      1.012670   101A      1.025054
     102A      1.067505   103A      1.114544   104A      1.136768
     105A      1.139517   106A      1.142751   107A      1.156876
     108A      1.170114   109A      1.207653   110A      1.224996
     111A      1.242953   112A      1.271687   113A      1.275876
     114A      1.287357   115A      1.309246   116A      1.310420
     117A      1.339010   118A      1.351234   119A      1.371669
     120A      1.395139   121A      1.471949   122A      1.483510
     123A      1.493296   124A      1.504527   125A      1.534881
     126A      1.583551   127A      1.588827   128A      1.611821
     129A      1.639119   130A      1.675182   131A      1.684356
     132A      1.700209   133A      1.703331   134A      1.734252
     135A      1.742910   136A      1.780170   137A      1.795862
     138A      1.802843   139A      1.849731   140A      1.867709
     141A      1.875034   142A      1.882758   143A      1.892920
     144A      1.905466   145A      1.914539   146A      1.924615
     147A      1.931294   148A      1.940752   149A      1.950025
     150A      1.958840   151A      1.966493   152A      1.970969
     153A      1.978644   154A      1.979878   155A      1.984566
     156A      2.025655   157A      2.038065   158A      2.055693
     159A      2.064526   160A      2.073382   161A      2.093660
     162A      2.107794   163A      2.134864   164A      2.136610
     165A      2.149573   166A      2.153644   167A      2.196519
     168A      2.238309   169A      2.255114   170A      2.262753
     171A      2.278721   172A      2.310056   173A      2.334005
     174A      2.340268   175A      2.408296   176A      2.430521
     177A      2.455117   178A      2.464705   179A      2.469123
     180A      2.472184   181A      2.486254   182A      2.523786
     183A      2.555651   184A      2.567982   185A      2.608595
     186A      2.614935   187A      2.659976   188A      2.752388
     189A      2.770837   190A      2.777783   191A      2.790099
     192A      2.798139   193A      2.802443   194A      2.823741
     195A      2.846379   196A      2.877851   197A      2.907864
     198A      2.956704   199A      2.967397   200A      2.972828
     201A      2.994983   202A      3.095824   203A      3.098626
     204A      3.263923   205A      3.269703   206A      3.347976
     207A      3.603497   208A      3.688670   209A      3.980566
     210A      4.192535

    Final Occupation by Irrep:
              A
    DOCC [    38 ]

  @RHF Final Energy:  -423.85185552658362

   => Energetics <=

    Nuclear Repulsion Energy =            499.7490609845868903
    One-Electron Energy =               -1565.3822930009523589
    Two-Electron Energy =                 641.7813764897820192
    Total Energy =                       -423.8518555265835630

Computation Completed

Properties will be evaluated at   0.000000,   0.000000,   0.000000 [a0]

Properties computed using the SCF density matrix

  Nuclear Dipole Moment: [e a0]
     X:    -9.4587      Y:    -5.6566      Z:    -3.5114

  Electronic Dipole Moment: [e a0]
     X:     9.5679      Y:     5.3880      Z:     3.9957

  Dipole Moment: [e a0]
     X:     0.1093      Y:    -0.2686      Z:     0.4843     Total:     0.5645

  Dipole Moment: [D]
     X:     0.2777      Y:    -0.6826      Z:     1.2310     Total:     1.4348

*** tstop() called on ds3 at Tue Apr 28 12:09:42 2020
Module time:
	user time   =      91.14 seconds =       1.52 minutes
	system time =      37.44 seconds =       0.62 minutes
	total time  =        182 seconds =       3.03 minutes
Total time:
	user time   =      91.14 seconds =       1.52 minutes
	system time =      37.44 seconds =       0.62 minutes
	total time  =        182 seconds =       3.03 minutes
                                     G D M A

                                 by Anthony Stone

                           version 2.2.06, 22 June 2011

               Distributed Multipoles from Gaussian wavefunctions

Starting at 12:9:42 on 28 Apr 2020

Using SCF density matrix from file ./SSI/SSI-029LEU-095TYR-1-dimer.test.4598.fchk

                         Distributed Multipole Analysis

Standard DMA

Positions and radii in angstrom
Multipole moments in atomic units, ea_0^k for rank k

C          x = -1.288667  y = -1.701369  z = -1.980702 angstrom
           Maximum rank =  0   Radius =  0.650 angstrom
                   Q00  =  -0.229109

C          x = -2.205667  y = -2.345369  z = -3.015702 angstrom
           Maximum rank =  0   Radius =  0.650 angstrom
                   Q00  =  -0.235274

H          x = -1.366667  y = -2.234369  z = -1.031702 angstrom
           Maximum rank =  0   Radius =  0.325 angstrom
                   Q00  =   0.073750

H          x = -0.254667  y = -1.751369  z = -2.321702 angstrom
           Maximum rank =  0   Radius =  0.325 angstrom
                   Q00  =   0.072194

H          x = -1.568667  y = -0.658369  z = -1.825702 angstrom
           Maximum rank =  0   Radius =  0.325 angstrom
                   Q00  =   0.084596

H          x = -2.122667  y = -1.754369  z = -3.927702 angstrom
           Maximum rank =  0   Radius =  0.325 angstrom
                   Q00  =   0.073403

H          x = -3.247747  y = -2.296364  z = -2.666902 angstrom
           Maximum rank =  0   Radius =  0.325 angstrom
                   Q00  =   0.076364

H          x = -1.891907  y = -3.370468  z = -3.262122 angstrom
           Maximum rank =  0   Radius =  0.325 angstrom
                   Q00  =   0.077112

C          x = -1.138667  y =  1.489631  z =  2.926298 angstrom
           Maximum rank =  0   Radius =  0.650 angstrom
                   Q00  =  -0.182189

C          x =  0.458333  y =  1.317631  z = -0.505702 angstrom
           Maximum rank =  0   Radius =  0.650 angstrom
                   Q00  =  -0.119261

C          x = -0.296667  y =  1.724631  z =  0.585298 angstrom
           Maximum rank =  0   Radius =  0.650 angstrom
                   Q00  =  -0.062775

C          x =  1.226333  y =  0.167631  z = -0.366702 angstrom
           Maximum rank =  0   Radius =  0.650 angstrom
                   Q00  =   0.387284

C          x = -0.313667  y =  0.976631  z =  1.770298 angstrom
           Maximum rank =  0   Radius =  0.650 angstrom
                   Q00  =  -0.103699

C          x =  1.247333  y = -0.584369  z =  0.818298 angstrom
           Maximum rank =  0   Radius =  0.650 angstrom
                   Q00  =  -0.200536

C          x =  0.465333  y = -0.171369  z =  1.900298 angstrom
           Maximum rank =  0   Radius =  0.650 angstrom
                   Q00  =  -0.066524

O          x =  2.021333  y = -0.275369  z = -1.363702 angstrom
           Maximum rank =  0   Radius =  0.650 angstrom
                   Q00  =  -0.623899

H          x =  0.432333  y =  1.882631  z = -1.419702 angstrom
           Maximum rank =  0   Radius =  0.325 angstrom
                   Q00  =   0.082027

H          x = -0.903667  y =  2.619631  z =  0.512298 angstrom
           Maximum rank =  0   Radius =  0.325 angstrom
                   Q00  =   0.063348

H          x =  2.490333  y = -1.070369  z = -1.092702 angstrom
           Maximum rank =  0   Radius =  0.325 angstrom
                   Q00  =   0.406508

H          x =  1.856333  y = -1.474369  z =  0.907298 angstrom
           Maximum rank =  0   Radius =  0.325 angstrom
                   Q00  =   0.069107

H          x = -1.474667  y =  0.663631  z =  3.555298 angstrom
           Maximum rank =  0   Radius =  0.325 angstrom
                   Q00  =   0.095137

H          x = -2.020667  y =  1.980631  z =  2.516298 angstrom
           Maximum rank =  0   Radius =  0.325 angstrom
                   Q00  =   0.094806

H          x =  0.462333  y = -0.738369  z =  2.820298 angstrom
           Maximum rank =  0   Radius =  0.325 angstrom
                   Q00  =   0.071284

H          x = -0.489927  y =  2.169401  z =  3.498178 angstrom
           Maximum rank =  0   Radius =  0.325 angstrom
                   Q00  =   0.096349

Total multipoles referred to origin at
           x =   0.000000,  y =    0.000000,  z =    0.000000 angstrom
                   Q00  =  -0.000000

Finished at 12:9:42 on 28 Apr 2020

  DMA results are available in the Python driver through the
	  variable('DMA DISTRIBUTED MULTIPOLES')
  and
	  variable('DMA TOTAL MULTIPOLES')
  commands.

    Psi4 stopped on: Tuesday, 28 April 2020 12:09PM
    Psi4 wall time for execution: 0:03:01.63

*** Psi4 exiting successfully. Buy a developer a beer!
