                               Psi4 1.3.2 release

  ==> Input File <==

--------------------------------------------------------------------------
import numpy as np
set {scf_type pk
basis cc-pvdz
d_convergence 10
gdma_switch   0
gdma_limit    0
gdma_origin   [ 0.0,  0.0,  0.0 ]
}
molecule test {
    units Angstrom
    0 1
    --
    0 1
    C                3.290178220333226    -1.656854428540871    -0.641164845329467
    C                1.005178220333226    -2.425854428540871    -1.351164845329467
    C                2.039178220333226    -2.459854428540871    -0.421164845329467
    C               -0.161821779666774    -3.162854428540871    -1.145164845329467
    C               -0.312821779666774    -3.938854428540870     0.005835154670533
    C                1.891178220333226    -3.235854428540871     0.724835154670533
    C                0.720178220333226    -3.980854428540871     0.939835154670533
    H                1.105178220333226    -1.822854428540871    -2.238164845329467
    H               -0.962821779666774    -3.114854428540871    -1.868164845329467
    H                3.706178220333226    -1.358854428540871     0.322835154670533
    H                3.001178220333226    -0.738854428540871    -1.159164845329467
    H               -1.221821779666774    -4.500854428540872     0.161835154670533
    H                2.681178220333226    -3.266854428540871     1.462835154670533
    H                0.619178220333226    -4.574854428540871     1.835835154670533
    H                4.063598220333226    -2.168144428540870    -1.233111845329467
    C               -2.132821779666774     1.500145571459129    -2.454164845329467
    C               -0.945821779666774     1.726145571459129    -0.109164845329467
    C               -1.706821779666774     2.234145571459129    -1.226164845329467
    C               -0.763821779666774     2.800145571459129     0.798835154670533
    C               -1.940821779666774     3.537145571459129    -0.958164845329467
    C               -0.386821779666774     0.480145571459129     0.224835154670533
    C                0.320178220333226     0.348145571459129     1.432835154670533
    C                0.480178220333226     1.435145571459129     2.300835154670533
    C               -0.068821779666774     2.666145571459130     1.993835154670533
    N               -1.395821779666774     3.881145571459129     0.249835154670533
    H               -0.509821779666774    -0.371854428540871    -0.422164845329467
    H                0.752178220333226    -0.609854428540871     1.692835154670533
    H                1.042178220333226     1.310145571459129     3.216835154670533
    H               -2.567821779666774     2.220145571459129    -3.149164845329467
    H               -2.916821779666774     0.794145571459129    -2.177164845329467
    H               -2.484821779666774     4.214145571459129    -1.610164845329467
    H               -1.423821779666774     4.814145571459130     0.642835154670533
    H                0.055178220333226     3.515145571459130     2.647835154670533
    H               -1.330921779666774     0.952875571459129    -2.971313845329467

}
e, wfn = energy('scf', return_wfn=True)
gdma(wfn)
dmavals = variable('DMA DISTRIBUTED MULTIPOLES')
charges = np.array(dmavals)
print(charges)
np.save('SSI-167PHE-170TRP-1-dimer.npy', np.array(charges))--------------------------------------------------------------------------

*** tstart() called on ds3
*** at Tue Apr 28 16:18:40 2020

   => Loading Basis Set <=

    Name: CC-PVDZ
    Role: ORBITAL
    Keyword: BASIS
    atoms 1-7, 16-24  entry C          line   138 file /theoryfs2/ds/metcalf/miniconda2/envs/tf2gpu/share/psi4/basis/cc-pvdz.gbs
    atoms 8-15, 26-34 entry H          line    22 file /theoryfs2/ds/metcalf/miniconda2/envs/tf2gpu/share/psi4/basis/cc-pvdz.gbs
    atoms 25          entry N          line   168 file /theoryfs2/ds/metcalf/miniconda2/envs/tf2gpu/share/psi4/basis/cc-pvdz.gbs

         ---------------------------------------------------------
                                   SCF
               by Justin Turney, Rob Parrish, Andy Simmonett
                          and Daniel G. A. Smith
                              RHF Reference
                        1 Threads,    500 MiB Core
         ---------------------------------------------------------

  ==> Geometry <==

    Molecular point group: c1
    Full point group: C1

    Geometry (in Angstrom), charge = 0, multiplicity = 1:

       Center              X                  Y                   Z               Mass
    ------------   -----------------  -----------------  -----------------  -----------------
         C            3.290178220333    -1.656854428541    -0.641164845329    12.000000000000
         C            1.005178220333    -2.425854428541    -1.351164845329    12.000000000000
         C            2.039178220333    -2.459854428541    -0.421164845329    12.000000000000
         C           -0.161821779667    -3.162854428541    -1.145164845329    12.000000000000
         C           -0.312821779667    -3.938854428541     0.005835154671    12.000000000000
         C            1.891178220333    -3.235854428541     0.724835154671    12.000000000000
         C            0.720178220333    -3.980854428541     0.939835154671    12.000000000000
         H            1.105178220333    -1.822854428541    -2.238164845329     1.007825032230
         H           -0.962821779667    -3.114854428541    -1.868164845329     1.007825032230
         H            3.706178220333    -1.358854428541     0.322835154671     1.007825032230
         H            3.001178220333    -0.738854428541    -1.159164845329     1.007825032230
         H           -1.221821779667    -4.500854428541     0.161835154671     1.007825032230
         H            2.681178220333    -3.266854428541     1.462835154671     1.007825032230
         H            0.619178220333    -4.574854428541     1.835835154671     1.007825032230
         H            4.063598220333    -2.168144428541    -1.233111845329     1.007825032230
         C           -2.132821779667     1.500145571459    -2.454164845329    12.000000000000
         C           -0.945821779667     1.726145571459    -0.109164845329    12.000000000000
         C           -1.706821779667     2.234145571459    -1.226164845329    12.000000000000
         C           -0.763821779667     2.800145571459     0.798835154671    12.000000000000
         C           -1.940821779667     3.537145571459    -0.958164845329    12.000000000000
         C           -0.386821779667     0.480145571459     0.224835154671    12.000000000000
         C            0.320178220333     0.348145571459     1.432835154671    12.000000000000
         C            0.480178220333     1.435145571459     2.300835154671    12.000000000000
         C           -0.068821779667     2.666145571459     1.993835154671    12.000000000000
         N           -1.395821779667     3.881145571459     0.249835154671    14.003074004430
         H           -0.509821779667    -0.371854428541    -0.422164845329     1.007825032230
         H            0.752178220333    -0.609854428541     1.692835154671     1.007825032230
         H            1.042178220333     1.310145571459     3.216835154671     1.007825032230
         H           -2.567821779667     2.220145571459    -3.149164845329     1.007825032230
         H           -2.916821779667     0.794145571459    -2.177164845329     1.007825032230
         H           -2.484821779667     4.214145571459    -1.610164845329     1.007825032230
         H           -1.423821779667     4.814145571459     0.642835154671     1.007825032230
         H            0.055178220333     3.515145571459     2.647835154671     1.007825032230
         H           -1.330921779667     0.952875571459    -2.971313845329     1.007825032230

  Running in c1 symmetry.

  Rotational constants: A =      0.02640  B =      0.00824  C =      0.00725 [cm^-1]
  Rotational constants: A =    791.37469  B =    247.10136  C =    217.44614 [MHz]
  Nuclear repulsion = 1077.604743474877978

  Charge       = 0
  Multiplicity = 1
  Electrons    = 120
  Nalpha       = 60
  Nbeta        = 60

  ==> Algorithm <==

  SCF Algorithm Type is PK.
  DIIS enabled.
  MOM disabled.
  Fractional occupation disabled.
  Guess Type is SAD.
  Energy threshold   = 1.00e-06
  Density threshold  = 1.00e-10
  Integral threshold = 0.00e+00

  ==> Primary Basis <==

  Basis Set: CC-PVDZ
    Blend: CC-PVDZ
    Number of shells: 153
    Number of basis function: 323
    Number of Cartesian functions: 340
    Spherical Harmonics?: true
    Max angular momentum: 2

  ==> Pre-Iterations <==

   -------------------------------------------------------
    Irrep   Nso     Nmo     Nalpha   Nbeta   Ndocc  Nsocc
   -------------------------------------------------------
     A        323     323       0       0       0       0
   -------------------------------------------------------
    Total     323     323      60      60      60       0
   -------------------------------------------------------

  ==> Integral Setup <==

  Using integral reordering PK algorithm.
  Sizing the integral batches needed.
  Building batch lookup table.
   Calculation information:
      Number of atoms:                  34
      Number of AO shells:             153
      Number of primitives:            459
      Number of atomic orbitals:       340
      Number of basis functions:       323

      Integral cutoff                 1.00e-12
      Number of threads:                 1

	Batch   1 pq = [       0,    9405] index = [             0,44231715] size =     44231715
	Batch   2 pq = [    9405,   13301] index = [      44231715,88464951] size =     44233236
	Batch   3 pq = [   13301,   16290] index = [      88464951,132690195] size =     44225244
	Batch   4 pq = [   16290,   18810] index = [     132690195,176917455] size =     44227260
	Batch   5 pq = [   18810,   21030] index = [     176917455,221140965] size =     44223510
	Batch   6 pq = [   21030,   23037] index = [     221140965,265363203] size =     44222238
	Batch   7 pq = [   23037,   24883] index = [     265363203,309594286] size =     44231083
	Batch   8 pq = [   24883,   26601] index = [     309594286,353819901] size =     44225615
	Batch   9 pq = [   26601,   28214] index = [     353819901,398029005] size =     44209104
	Batch  10 pq = [   28214,   29740] index = [     398029005,442248670] size =     44219665
	Batch  11 pq = [   29740,   31191] index = [     442248670,486454836] size =     44206166
	Batch  12 pq = [   31191,   32578] index = [     486454836,530679331] size =     44224495
	Batch  13 pq = [   32578,   33908] index = [     530679331,574893186] size =     44213855
	Batch  14 pq = [   33908,   35188] index = [     574893186,619115266] size =     44222080
	Batch  15 pq = [   35188,   36423] index = [     619115266,663335676] size =     44220410
	Batch  16 pq = [   36423,   37617] index = [     663335676,707538153] size =     44202477
	Batch  17 pq = [   37617,   38775] index = [     707538153,751769700] size =     44231547
	Batch  18 pq = [   38775,   39899] index = [     751769700,795985050] size =     44215350
	Batch  19 pq = [   39899,   40992] index = [     795985050,840192528] size =     44207478
	Batch  20 pq = [   40992,   42057] index = [     840192528,884416653] size =     44224125
	Batch  21 pq = [   42057,   43095] index = [     884416653,928611060] size =     44194407
	Batch  22 pq = [   43095,   44109] index = [     928611060,972823995] size =     44212935
	Batch  23 pq = [   44109,   45100] index = [     972823995,1017027550] size =     44203555
	Batch  24 pq = [   45100,   46070] index = [    1017027550,1061245485] size =     44217935
	Batch  25 pq = [   46070,   47020] index = [    1061245485,1105463710] size =     44218225
	Batch  26 pq = [   47020,   47951] index = [    1105463710,1149673176] size =     44209466
	Batch  27 pq = [   47951,   48864] index = [    1149673176,1193869680] size =     44196504
	Batch  28 pq = [   48864,   49761] index = [    1193869680,1238103441] size =     44233761
	Batch  29 pq = [   49761,   50642] index = [    1238103441,1282331403] size =     44227962
	Batch  30 pq = [   50642,   51508] index = [    1282331403,1326562786] size =     44231383
	Batch  31 pq = [   51508,   52326] index = [    1326562786,1369031301] size =     42468515
  Task number: 124
  Buffer size: 11059200
  Buffer per thread: 2
  We computed 75227455 shell quartets total.
  Whereas there are 69401871 unique shell quartets.
     8.39 percent of shell quartets recomputed by reordering.

  ==> DiskJK: Disk-Based J/K Matrices <==

    J tasked:                  Yes
    K tasked:                  Yes
    wK tasked:                  No
    Memory [MiB]:              375
    Schwarz Cutoff:          1E-12

    OpenMP threads:              1

  Minimum eigenvalue in the overlap matrix is 2.2460785346E-04.
  Using Symmetric Orthogonalization.

  SCF Guess: Superposition of Atomic Densities via on-the-fly atomic UHF.

  ==> Iterations <==

                        Total Energy        Delta E     RMS |[F,P]|

   @RHF iter SAD:  -669.55124572227953   -6.69551e+02   0.00000e+00
   @RHF iter   1:  -669.95108916032814   -3.99843e-01   2.14630e-03 DIIS
   @RHF iter   2:  -670.24138554397609   -2.90296e-01   9.26529e-04 DIIS
   @RHF iter   3:  -670.28913675031401   -4.77512e-02   2.52037e-04 DIIS
   @RHF iter   4:  -670.29368656527856   -4.54981e-03   1.12550e-04 DIIS
   @RHF iter   5:  -670.29442758525568   -7.41020e-04   1.66389e-05 DIIS
   @RHF iter   6:  -670.29445961459487   -3.20293e-05   7.40516e-06 DIIS
   @RHF iter   7:  -670.29446631675387   -6.70216e-06   2.91196e-06 DIIS
   @RHF iter   8:  -670.29446806903422   -1.75228e-06   1.23667e-06 DIIS
   @RHF iter   9:  -670.29446844108088   -3.72047e-07   5.51900e-07 DIIS
   @RHF iter  10:  -670.29446852179876   -8.07179e-08   2.44111e-07 DIIS
   @RHF iter  11:  -670.29446854063281   -1.88340e-08   9.76147e-08 DIIS
   @RHF iter  12:  -670.29446854320156   -2.56875e-09   3.92474e-08 DIIS
   @RHF iter  13:  -670.29446854347566   -2.74099e-10   1.15825e-08 DIIS
   @RHF iter  14:  -670.29446854348782   -1.21645e-11   4.63018e-09 DIIS
   @RHF iter  15:  -670.29446854349271   -4.88853e-12   1.94611e-09 DIIS
   @RHF iter  16:  -670.29446854348885    3.86535e-12   9.19958e-10 DIIS
   @RHF iter  17:  -670.29446854349362   -4.77485e-12   4.64717e-10 DIIS
   @RHF iter  18:  -670.29446854349681   -3.18323e-12   1.55625e-10 DIIS
   @RHF iter  19:  -670.29446854350147   -4.66116e-12   6.51609e-11 DIIS
  Energy and wave function converged.

  ==> Post-Iterations <==

    Orbital Energies [Eh]
    ---------------------

    Doubly Occupied:

       1A    -15.595867     2A    -11.259115     3A    -11.258346
       4A    -11.238799     5A    -11.236637     6A    -11.235857
       7A    -11.231911     8A    -11.230687     9A    -11.229349
      10A    -11.225524    11A    -11.224952    12A    -11.224461
      13A    -11.223684    14A    -11.223208    15A    -11.216053
      16A    -11.213880    17A    -11.213362    18A     -1.293834
      19A     -1.150833    20A     -1.120655    21A     -1.070656
      22A     -1.043140    23A     -1.009101    24A     -0.989398
      25A     -0.984516    26A     -0.928814    27A     -0.928230
      28A     -0.834938    29A     -0.824801    30A     -0.797152
      31A     -0.793811    32A     -0.748742    33A     -0.715327
      34A     -0.689752    35A     -0.659642    36A     -0.636380
      37A     -0.630286    38A     -0.628839    39A     -0.596165
      40A     -0.589317    41A     -0.584531    42A     -0.580346
      43A     -0.572822    44A     -0.562948    45A     -0.561746
      46A     -0.550244    47A     -0.536213    48A     -0.530336
      49A     -0.524614    50A     -0.489709    51A     -0.484593
      52A     -0.483788    53A     -0.480445    54A     -0.464164
      55A     -0.455161    56A     -0.367292    57A     -0.329557
      58A     -0.322194    59A     -0.288943    60A     -0.271664

    Virtual:

      61A      0.126346    62A      0.138583    63A      0.139652
      64A      0.172688    65A      0.175000    66A      0.183720
      67A      0.193790    68A      0.205480    69A      0.213583
      70A      0.214730    71A      0.232748    72A      0.238462
      73A      0.250122    74A      0.252193    75A      0.260062
      76A      0.265573    77A      0.279244    78A      0.285181
      79A      0.287433    80A      0.290589    81A      0.309056
      82A      0.316299    83A      0.365099    84A      0.378942
      85A      0.380584    86A      0.391862    87A      0.412606
      88A      0.424993    89A      0.444748    90A      0.452747
      91A      0.462250    92A      0.477804    93A      0.483922
      94A      0.487021    95A      0.494306    96A      0.498557
      97A      0.515876    98A      0.564411    99A      0.593445
     100A      0.599815   101A      0.613277   102A      0.633375
     103A      0.638448   104A      0.639838   105A      0.671756
     106A      0.678978   107A      0.687362   108A      0.698578
     109A      0.702288   110A      0.705370   111A      0.716172
     112A      0.721081   113A      0.728246   114A      0.735623
     115A      0.737920   116A      0.742610   117A      0.744870
     118A      0.748459   119A      0.752270   120A      0.761848
     121A      0.768194   122A      0.772234   123A      0.779078
     124A      0.783386   125A      0.789129   126A      0.793071
     127A      0.807089   128A      0.816397   129A      0.830024
     130A      0.835162   131A      0.849740   132A      0.863602
     133A      0.865603   134A      0.867816   135A      0.875205
     136A      0.881496   137A      0.890812   138A      0.894539
     139A      0.899419   140A      0.904377   141A      0.912681
     142A      0.919607   143A      0.924388   144A      0.927276
     145A      0.941914   146A      0.949509   147A      0.956511
     148A      0.966346   149A      0.980605   150A      0.986092
     151A      0.995157   152A      1.004295   153A      1.016441
     154A      1.025349   155A      1.044410   156A      1.060416
     157A      1.069268   158A      1.074776   159A      1.094429
     160A      1.116227   161A      1.135779   162A      1.138650
     163A      1.141085   164A      1.147195   165A      1.154581
     166A      1.159711   167A      1.184218   168A      1.197993
     169A      1.207495   170A      1.216708   171A      1.236837
     172A      1.239597   173A      1.241734   174A      1.244410
     175A      1.252714   176A      1.255447   177A      1.279123
     178A      1.291406   179A      1.300082   180A      1.305866
     181A      1.310598   182A      1.311373   183A      1.315821
     184A      1.329722   185A      1.334227   186A      1.338984
     187A      1.348969   188A      1.371551   189A      1.387283
     190A      1.413495   191A      1.438599   192A      1.462534
     193A      1.513535   194A      1.518469   195A      1.546101
     196A      1.559699   197A      1.566941   198A      1.593973
     199A      1.598427   200A      1.608630   201A      1.633157
     202A      1.645941   203A      1.660393   204A      1.679723
     205A      1.689893   206A      1.698028   207A      1.704931
     208A      1.739831   209A      1.742352   210A      1.750640
     211A      1.762467   212A      1.769588   213A      1.782350
     214A      1.791617   215A      1.803763   216A      1.811215
     217A      1.822360   218A      1.830922   219A      1.837510
     220A      1.857100   221A      1.879724   222A      1.892464
     223A      1.896722   224A      1.906289   225A      1.912728
     226A      1.918704   227A      1.924432   228A      1.927316
     229A      1.929085   230A      1.930635   231A      1.944175
     232A      1.951043   233A      1.957329   234A      1.959393
     235A      1.967379   236A      1.978235   237A      1.988928
     238A      1.991417   239A      1.995984   240A      2.013086
     241A      2.020456   242A      2.026759   243A      2.041652
     244A      2.047914   245A      2.061478   246A      2.074432
     247A      2.085385   248A      2.097162   249A      2.102597
     250A      2.108447   251A      2.110366   252A      2.115378
     253A      2.135533   254A      2.141919   255A      2.146526
     256A      2.152420   257A      2.163177   258A      2.169384
     259A      2.174062   260A      2.179405   261A      2.187341
     262A      2.203568   263A      2.239995   264A      2.248959
     265A      2.271024   266A      2.277113   267A      2.296843
     268A      2.301918   269A      2.305054   270A      2.311375
     271A      2.321407   272A      2.325721   273A      2.342152
     274A      2.350405   275A      2.373538   276A      2.401381
     277A      2.441847   278A      2.458898   279A      2.472617
     280A      2.478468   281A      2.492058   282A      2.503543
     283A      2.539331   284A      2.546456   285A      2.592305
     286A      2.611319   287A      2.620435   288A      2.651905
     289A      2.658823   290A      2.683818   291A      2.707437
     292A      2.743192   293A      2.761209   294A      2.771456
     295A      2.776838   296A      2.785549   297A      2.792111
     298A      2.796772   299A      2.811989   300A      2.817433
     301A      2.838148   302A      2.855860   303A      2.870406
     304A      2.874938   305A      2.891624   306A      2.921004
     307A      2.978705   308A      2.984794   309A      3.017677
     310A      3.036263   311A      3.050496   312A      3.061082
     313A      3.088159   314A      3.130489   315A      3.152622
     316A      3.198775   317A      3.216280   318A      3.294316
     319A      3.310408   320A      3.394485   321A      3.751396
     322A      3.950913   323A      3.961114

    Final Occupation by Irrep:
              A
    DOCC [    60 ]

  @RHF Final Energy:  -670.29446854350147

   => Energetics <=

    Nuclear Repulsion Energy =           1077.6047434748779779
    One-Electron Energy =               -3047.0237643536352152
    Two-Electron Energy =                1299.1245523352556575
    Total Energy =                       -670.2944685435015799

Computation Completed

Properties will be evaluated at   0.000000,   0.000000,   0.000000 [a0]

Properties computed using the SCF density matrix

  Nuclear Dipole Moment: [e a0]
     X:     3.3858      Y:    -4.4240      Z:    -4.5427

  Electronic Dipole Moment: [e a0]
     X:    -3.4912      Y:     5.1364      Z:     4.4415

  Dipole Moment: [e a0]
     X:    -0.1054      Y:     0.7123      Z:    -0.1011     Total:     0.7272

  Dipole Moment: [D]
     X:    -0.2679      Y:     1.8106      Z:    -0.2571     Total:     1.8483

*** tstop() called on ds3 at Tue Apr 28 16:51:10 2020
Module time:
	user time   =     685.43 seconds =      11.42 minutes
	system time =     218.09 seconds =       3.63 minutes
	total time  =       1950 seconds =      32.50 minutes
Total time:
	user time   =     685.43 seconds =      11.42 minutes
	system time =     218.09 seconds =       3.63 minutes
	total time  =       1950 seconds =      32.50 minutes
                                     G D M A

                                 by Anthony Stone

                           version 2.2.06, 22 June 2011

               Distributed Multipoles from Gaussian wavefunctions

Starting at 16:51:10 on 28 Apr 2020

Using SCF density matrix from file ./SSI/SSI-167PHE-170TRP-1-dimer.test.4537.fchk

                         Distributed Multipole Analysis

Standard DMA

Positions and radii in angstrom
Multipole moments in atomic units, ea_0^k for rank k

C          x =  3.290178  y = -1.656854  z = -0.641165 angstrom
           Maximum rank =  0   Radius =  0.650 angstrom
                   Q00  =  -0.198264

C          x =  1.005178  y = -2.425854  z = -1.351165 angstrom
           Maximum rank =  0   Radius =  0.650 angstrom
                   Q00  =  -0.010665

C          x =  2.039178  y = -2.459854  z = -0.421165 angstrom
           Maximum rank =  0   Radius =  0.650 angstrom
                   Q00  =  -0.096693

C          x = -0.161822  y = -3.162854  z = -1.145165 angstrom
           Maximum rank =  0   Radius =  0.650 angstrom
                   Q00  =  -0.085989

C          x = -0.312822  y = -3.938854  z =  0.005835 angstrom
           Maximum rank =  0   Radius =  0.650 angstrom
                   Q00  =  -0.077564

C          x =  1.891178  y = -3.235854  z =  0.724835 angstrom
           Maximum rank =  0   Radius =  0.650 angstrom
                   Q00  =  -0.061090

C          x =  0.720178  y = -3.980854  z =  0.939835 angstrom
           Maximum rank =  0   Radius =  0.650 angstrom
                   Q00  =  -0.077942

H          x =  1.105178  y = -1.822854  z = -2.238165 angstrom
           Maximum rank =  0   Radius =  0.325 angstrom
                   Q00  =   0.057228

H          x = -0.962822  y = -3.114854  z = -1.868165 angstrom
           Maximum rank =  0   Radius =  0.325 angstrom
                   Q00  =   0.064649

H          x =  3.706178  y = -1.358854  z =  0.322835 angstrom
           Maximum rank =  0   Radius =  0.325 angstrom
                   Q00  =   0.099587

H          x =  3.001178  y = -0.738854  z = -1.159165 angstrom
           Maximum rank =  0   Radius =  0.325 angstrom
                   Q00  =   0.101299

H          x = -1.221822  y = -4.500854  z =  0.161835 angstrom
           Maximum rank =  0   Radius =  0.325 angstrom
                   Q00  =   0.064296

H          x =  2.681178  y = -3.266854  z =  1.462835 angstrom
           Maximum rank =  0   Radius =  0.325 angstrom
                   Q00  =   0.057902

H          x =  0.619178  y = -4.574854  z =  1.835835 angstrom
           Maximum rank =  0   Radius =  0.325 angstrom
                   Q00  =   0.066880

H          x =  4.063598  y = -2.168144  z = -1.233112 angstrom
           Maximum rank =  0   Radius =  0.325 angstrom
                   Q00  =   0.103923

C          x = -2.132822  y =  1.500146  z = -2.454165 angstrom
           Maximum rank =  0   Radius =  0.650 angstrom
                   Q00  =  -0.204364

C          x = -0.945822  y =  1.726146  z = -0.109165 angstrom
           Maximum rank =  0   Radius =  0.650 angstrom
                   Q00  =  -0.064916

C          x = -1.706822  y =  2.234146  z = -1.226165 angstrom
           Maximum rank =  0   Radius =  0.650 angstrom
                   Q00  =  -0.119465

C          x = -0.763822  y =  2.800146  z =  0.798835 angstrom
           Maximum rank =  0   Radius =  0.650 angstrom
                   Q00  =   0.300004

C          x = -1.940822  y =  3.537146  z = -0.958165 angstrom
           Maximum rank =  0   Radius =  0.650 angstrom
                   Q00  =   0.072049

C          x = -0.386822  y =  0.480146  z =  0.224835 angstrom
           Maximum rank =  0   Radius =  0.650 angstrom
                   Q00  =  -0.092679

C          x =  0.320178  y =  0.348146  z =  1.432835 angstrom
           Maximum rank =  0   Radius =  0.650 angstrom
                   Q00  =  -0.092763

C          x =  0.480178  y =  1.435146  z =  2.300835 angstrom
           Maximum rank =  0   Radius =  0.650 angstrom
                   Q00  =  -0.063058

C          x = -0.068822  y =  2.666146  z =  1.993835 angstrom
           Maximum rank =  0   Radius =  0.650 angstrom
                   Q00  =  -0.127023

N          x = -1.395822  y =  3.881146  z =  0.249835 angstrom
           Maximum rank =  0   Radius =  0.650 angstrom
                   Q00  =  -0.494760

H          x = -0.509822  y = -0.371854  z = -0.422165 angstrom
           Maximum rank =  0   Radius =  0.325 angstrom
                   Q00  =   0.075667

H          x =  0.752178  y = -0.609854  z =  1.692835 angstrom
           Maximum rank =  0   Radius =  0.325 angstrom
                   Q00  =   0.067673

H          x =  1.042178  y =  1.310146  z =  3.216835 angstrom
           Maximum rank =  0   Radius =  0.325 angstrom
                   Q00  =   0.060601

H          x = -2.567822  y =  2.220146  z = -3.149165 angstrom
           Maximum rank =  0   Radius =  0.325 angstrom
                   Q00  =   0.100954

H          x = -2.916822  y =  0.794146  z = -2.177165 angstrom
           Maximum rank =  0   Radius =  0.325 angstrom
                   Q00  =   0.097372

H          x = -2.484822  y =  4.214146  z = -1.610165 angstrom
           Maximum rank =  0   Radius =  0.325 angstrom
                   Q00  =   0.098454

H          x = -1.423822  y =  4.814146  z =  0.642835 angstrom
           Maximum rank =  0   Radius =  0.325 angstrom
                   Q00  =   0.212757

H          x =  0.055178  y =  3.515146  z =  2.647835 angstrom
           Maximum rank =  0   Radius =  0.325 angstrom
                   Q00  =   0.069700

H          x = -1.330922  y =  0.952876  z = -2.971314 angstrom
           Maximum rank =  0   Radius =  0.325 angstrom
                   Q00  =   0.096240

Total multipoles referred to origin at
           x =   0.000000,  y =    0.000000,  z =    0.000000 angstrom
                   Q00  =  -0.000000

Finished at 16:51:10 on 28 Apr 2020

  DMA results are available in the Python driver through the
	  variable('DMA DISTRIBUTED MULTIPOLES')
  and
	  variable('DMA TOTAL MULTIPOLES')
  commands.

    Psi4 stopped on: Tuesday, 28 April 2020 04:51PM
    Psi4 wall time for execution: 0:32:30.06

*** Psi4 exiting successfully. Buy a developer a beer!
