                               Psi4 1.3.2 release

  ==> Input File <==

--------------------------------------------------------------------------
import numpy as np
set {scf_type pk
basis cc-pvdz
d_convergence 10
gdma_switch   0
gdma_limit    0
gdma_origin   [ 0.0,  0.0,  0.0 ]
}
molecule test {
    units Angstrom
    0 1
    --
    0 1
    C               -1.480280320511950    -1.077037121181260    -2.456801292906893
    C               -1.121280320511950    -1.489037121181260    -3.885801292906893
    C               -2.898280320511950    -1.508037121181260    -2.061801292906893
    H               -0.770280320511950    -1.512037121181260    -1.757801292906893
    H               -1.405280320511950     0.006962878818740    -2.367801292906893
    H               -1.933280320511950    -1.166037121181260    -4.540801292906893
    H               -3.623280320511950    -0.988037121181260    -2.686801292906893
    H               -3.024280320511950    -2.574037121181260    -2.235801292906893
    H               -1.023300320511950    -2.582610121181260    -3.952877292906893
    H               -0.213790320511950    -0.969031121181260    -4.226470292906892
    H               -3.119000320511950    -1.277881121181260    -1.009037292906893
    C               -0.772280320511950    -0.086037121181260     2.999198707093107
    C                0.423719679488050    -0.338037121181260     0.792198707093107
    C                0.235719679488050     0.380962878818740     1.974198707093108
    C                1.369719679488050     0.067962878818740    -0.143801292906893
    C                1.020719679488050     1.508962878818740     2.211198707093107
    C                2.136719679488051     1.205962878818740     0.093198707093107
    C                1.961719679488050     1.929962878818740     1.274198707093107
    H               -0.171280320511950    -1.216037121181260     0.602198707093107
    H                1.501719679488050    -0.493037121181260    -1.056801292906893
    H               -0.269280320511950    -0.748037121181260     3.696198707093107
    H               -1.543280320511950    -0.678037121181260     2.503198707093107
    H                0.951719679488050     2.069962878818740     3.127198707093107
    H                2.874719679488051     1.521962878818740    -0.632801292906893
    H                2.576719679488050     2.792962878818741     1.479198707093107
    H               -1.241270320511950     0.720917878818740     3.581318707093107

}
e, wfn = energy('scf', return_wfn=True)
gdma(wfn)
dmavals = variable('DMA DISTRIBUTED MULTIPOLES')
charges = np.array(dmavals)
print(charges)
np.save('SSI-052GLN-117PHE-1-dimer.npy', np.array(charges))--------------------------------------------------------------------------

*** tstart() called on ds3
*** at Tue Apr 28 14:36:46 2020

   => Loading Basis Set <=

    Name: CC-PVDZ
    Role: ORBITAL
    Keyword: BASIS
    atoms 1-3, 12-18  entry C          line   138 file /theoryfs2/ds/metcalf/miniconda2/envs/tf2gpu/share/psi4/basis/cc-pvdz.gbs
    atoms 4-11, 19-26 entry H          line    22 file /theoryfs2/ds/metcalf/miniconda2/envs/tf2gpu/share/psi4/basis/cc-pvdz.gbs

         ---------------------------------------------------------
                                   SCF
               by Justin Turney, Rob Parrish, Andy Simmonett
                          and Daniel G. A. Smith
                              RHF Reference
                        1 Threads,    500 MiB Core
         ---------------------------------------------------------

  ==> Geometry <==

    Molecular point group: c1
    Full point group: C1

    Geometry (in Angstrom), charge = 0, multiplicity = 1:

       Center              X                  Y                   Z               Mass
    ------------   -----------------  -----------------  -----------------  -----------------
         C           -1.480280320512    -1.077037121181    -2.456801292907    12.000000000000
         C           -1.121280320512    -1.489037121181    -3.885801292907    12.000000000000
         C           -2.898280320512    -1.508037121181    -2.061801292907    12.000000000000
         H           -0.770280320512    -1.512037121181    -1.757801292907     1.007825032230
         H           -1.405280320512     0.006962878819    -2.367801292907     1.007825032230
         H           -1.933280320512    -1.166037121181    -4.540801292907     1.007825032230
         H           -3.623280320512    -0.988037121181    -2.686801292907     1.007825032230
         H           -3.024280320512    -2.574037121181    -2.235801292907     1.007825032230
         H           -1.023300320512    -2.582610121181    -3.952877292907     1.007825032230
         H           -0.213790320512    -0.969031121181    -4.226470292907     1.007825032230
         H           -3.119000320512    -1.277881121181    -1.009037292907     1.007825032230
         C           -0.772280320512    -0.086037121181     2.999198707093    12.000000000000
         C            0.423719679488    -0.338037121181     0.792198707093    12.000000000000
         C            0.235719679488     0.380962878819     1.974198707093    12.000000000000
         C            1.369719679488     0.067962878819    -0.143801292907    12.000000000000
         C            1.020719679488     1.508962878819     2.211198707093    12.000000000000
         C            2.136719679488     1.205962878819     0.093198707093    12.000000000000
         C            1.961719679488     1.929962878819     1.274198707093    12.000000000000
         H           -0.171280320512    -1.216037121181     0.602198707093     1.007825032230
         H            1.501719679488    -0.493037121181    -1.056801292907     1.007825032230
         H           -0.269280320512    -0.748037121181     3.696198707093     1.007825032230
         H           -1.543280320512    -0.678037121181     2.503198707093     1.007825032230
         H            0.951719679488     2.069962878819     3.127198707093     1.007825032230
         H            2.874719679488     1.521962878819    -0.632801292907     1.007825032230
         H            2.576719679488     2.792962878819     1.479198707093     1.007825032230
         H           -1.241270320512     0.720917878819     3.581318707093     1.007825032230

  Running in c1 symmetry.

  Rotational constants: A =      0.06114  B =      0.01737  C =      0.01417 [cm^-1]
  Rotational constants: A =   1832.87897  B =    520.59590  C =    424.79553 [MHz]
  Nuclear repulsion =  477.315958890379761

  Charge       = 0
  Multiplicity = 1
  Electrons    = 76
  Nalpha       = 38
  Nbeta        = 38

  ==> Algorithm <==

  SCF Algorithm Type is PK.
  DIIS enabled.
  MOM disabled.
  Fractional occupation disabled.
  Guess Type is SAD.
  Energy threshold   = 1.00e-06
  Density threshold  = 1.00e-10
  Integral threshold = 0.00e+00

  ==> Primary Basis <==

  Basis Set: CC-PVDZ
    Blend: CC-PVDZ
    Number of shells: 108
    Number of basis function: 220
    Number of Cartesian functions: 230
    Spherical Harmonics?: true
    Max angular momentum: 2

  ==> Pre-Iterations <==

   -------------------------------------------------------
    Irrep   Nso     Nmo     Nalpha   Nbeta   Ndocc  Nsocc
   -------------------------------------------------------
     A        220     220       0       0       0       0
   -------------------------------------------------------
    Total     220     220      38      38      38       0
   -------------------------------------------------------

  ==> Integral Setup <==

  Using integral reordering PK algorithm.
  Sizing the integral batches needed.
  Building batch lookup table.
   Calculation information:
      Number of atoms:                  26
      Number of AO shells:             108
      Number of primitives:            300
      Number of atomic orbitals:       230
      Number of basis functions:       220

      Integral cutoff                 1.00e-12
      Number of threads:                 1

	Batch   1 pq = [       0,    9405] index = [             0,44231715] size =     44231715
	Batch   2 pq = [    9405,   13301] index = [      44231715,88464951] size =     44233236
	Batch   3 pq = [   13301,   16290] index = [      88464951,132690195] size =     44225244
	Batch   4 pq = [   16290,   18810] index = [     132690195,176917455] size =     44227260
	Batch   5 pq = [   18810,   21030] index = [     176917455,221140965] size =     44223510
	Batch   6 pq = [   21030,   23037] index = [     221140965,265363203] size =     44222238
	Batch   7 pq = [   23037,   24310] index = [     265363203,295500205] size =     30137002
  Task number: 27
  Buffer size: 11059200
  Buffer per thread: 2
  We computed 14159286 shell quartets total.
  Whereas there are 17325441 unique shell quartets.

  ==> DiskJK: Disk-Based J/K Matrices <==

    J tasked:                  Yes
    K tasked:                  Yes
    wK tasked:                  No
    Memory [MiB]:              375
    Schwarz Cutoff:          1E-12

    OpenMP threads:              1

  Minimum eigenvalue in the overlap matrix is 3.1173824470E-04.
  Using Symmetric Orthogonalization.

  SCF Guess: Superposition of Atomic Densities via on-the-fly atomic UHF.

  ==> Iterations <==

                        Total Energy        Delta E     RMS |[F,P]|

   @RHF iter SAD:  -386.84496935415882   -3.86845e+02   0.00000e+00
   @RHF iter   1:  -387.77351776868619   -9.28548e-01   2.74302e-03 DIIS
   @RHF iter   2:  -387.99189980233666   -2.18382e-01   1.14887e-03 DIIS
   @RHF iter   3:  -388.02665616958865   -3.47564e-02   2.48970e-04 DIIS
   @RHF iter   4:  -388.02952754810212   -2.87138e-03   5.05757e-05 DIIS
   @RHF iter   5:  -388.02961249741372   -8.49493e-05   1.58551e-05 DIIS
   @RHF iter   6:  -388.02962039428758   -7.89687e-06   4.69406e-06 DIIS
   @RHF iter   7:  -388.02962116171591   -7.67428e-07   1.19934e-06 DIIS
   @RHF iter   8:  -388.02962121603838   -5.43225e-08   2.52824e-07 DIIS
   @RHF iter   9:  -388.02962122004038   -4.00200e-09   8.74215e-08 DIIS
   @RHF iter  10:  -388.02962122051088   -4.70493e-10   3.67712e-08 DIIS
   @RHF iter  11:  -388.02962122062758   -1.16700e-10   1.44132e-08 DIIS
   @RHF iter  12:  -388.02962122065225   -2.46700e-11   6.90186e-09 DIIS
   @RHF iter  13:  -388.02962122066066   -8.41283e-12   2.76763e-09 DIIS
   @RHF iter  14:  -388.02962122066390   -3.24007e-12   8.59671e-10 DIIS
   @RHF iter  15:  -388.02962122066356    3.41061e-13   3.17962e-10 DIIS
   @RHF iter  16:  -388.02962122066401   -4.54747e-13   9.83842e-11 DIIS
  Energy and wave function converged.

  ==> Post-Iterations <==

    Orbital Energies [Eh]
    ---------------------

    Doubly Occupied:

       1A    -11.242021     2A    -11.234950     3A    -11.234785
       4A    -11.230888     5A    -11.229946     6A    -11.229467
       7A    -11.229285     8A    -11.218845     9A    -11.217998
      10A    -11.216054    11A     -1.150979    12A     -1.052434
      13A     -1.042045    14A     -1.011507    15A     -0.930828
      16A     -0.923048    17A     -0.823192    18A     -0.799879
      19A     -0.794436    20A     -0.690239    21A     -0.631538
      22A     -0.629257    23A     -0.625297    24A     -0.595805
      25A     -0.582222    26A     -0.573469    27A     -0.561986
      28A     -0.546939    29A     -0.537228    30A     -0.530848
      31A     -0.486155    32A     -0.485318    33A     -0.480613
      34A     -0.471940    35A     -0.469135    36A     -0.467541
      37A     -0.331495    38A     -0.320288

    Virtual:

      39A      0.136384    40A      0.140636    41A      0.167982
      42A      0.190777    43A      0.196492    44A      0.216749
      45A      0.221604    46A      0.231760    47A      0.243617
      48A      0.255108    49A      0.260321    50A      0.264161
      51A      0.275801    52A      0.280302    53A      0.296319
      54A      0.307628    55A      0.311044    56A      0.344117
      57A      0.364488    58A      0.371028    59A      0.394388
      60A      0.425512    61A      0.455317    62A      0.461973
      63A      0.478962    64A      0.498518    65A      0.560167
      66A      0.581620    67A      0.592988    68A      0.608098
      69A      0.612842    70A      0.614687    71A      0.628540
      72A      0.651330    73A      0.689283    74A      0.698486
      75A      0.700238    76A      0.718783    77A      0.738782
      78A      0.739257    79A      0.747520    80A      0.764126
      81A      0.771074    82A      0.780730    83A      0.788175
      84A      0.803009    85A      0.809369    86A      0.837311
      87A      0.847062    88A      0.858985    89A      0.864231
      90A      0.876924    91A      0.882625    92A      0.887116
      93A      0.892136    94A      0.898985    95A      0.901528
      96A      0.906942    97A      0.910305    98A      0.917705
      99A      0.920388   100A      0.929180   101A      0.946560
     102A      0.954247   103A      0.956817   104A      0.984114
     105A      0.996700   106A      1.002036   107A      1.019714
     108A      1.054427   109A      1.117280   110A      1.123981
     111A      1.131381   112A      1.142597   113A      1.155026
     114A      1.162024   115A      1.191822   116A      1.212020
     117A      1.237055   118A      1.250027   119A      1.251605
     120A      1.262621   121A      1.296021   122A      1.307274
     123A      1.319986   124A      1.327127   125A      1.389708
     126A      1.412385   127A      1.473361   128A      1.479925
     129A      1.503242   130A      1.526212   131A      1.558392
     132A      1.575109   133A      1.600801   134A      1.623739
     135A      1.667840   136A      1.672302   137A      1.690730
     138A      1.701498   139A      1.711300   140A      1.737878
     141A      1.747574   142A      1.761192   143A      1.792217
     144A      1.812477   145A      1.856156   146A      1.864511
     147A      1.869275   148A      1.884532   149A      1.890144
     150A      1.895551   151A      1.908829   152A      1.915831
     153A      1.918941   154A      1.927846   155A      1.930752
     156A      1.940089   157A      1.944276   158A      1.955108
     159A      1.964934   160A      1.966486   161A      1.978941
     162A      1.980545   163A      1.988189   164A      1.997904
     165A      2.000548   166A      2.016156   167A      2.031399
     168A      2.039520   169A      2.076698   170A      2.079534
     171A      2.117316   172A      2.136559   173A      2.145634
     174A      2.155383   175A      2.159415   176A      2.165379
     177A      2.178830   178A      2.186422   179A      2.263066
     180A      2.268490   181A      2.285642   182A      2.290403
     183A      2.302759   184A      2.310787   185A      2.318241
     186A      2.323522   187A      2.343104   188A      2.345345
     189A      2.456665   190A      2.471032   191A      2.482086
     192A      2.500157   193A      2.531501   194A      2.552064
     195A      2.586531   196A      2.613293   197A      2.630199
     198A      2.635016   199A      2.737588   200A      2.746908
     201A      2.752042   202A      2.762353   203A      2.773261
     204A      2.785529   205A      2.790560   206A      2.817625
     207A      2.820990   208A      2.854550   209A      2.859026
     210A      2.913373   211A      2.959831   212A      2.966276
     213A      2.985181   214A      3.021791   215A      3.025637
     216A      3.078470   217A      3.168560   218A      3.206317
     219A      3.300621   220A      3.962553

    Final Occupation by Irrep:
              A
    DOCC [    38 ]

  @RHF Final Energy:  -388.02962122066401

   => Energetics <=

    Nuclear Repulsion Energy =            477.3159588903797612
    One-Electron Energy =               -1469.0313555032171280
    Two-Electron Energy =                 603.6857753921733547
    Total Energy =                       -388.0296212206640121

Computation Completed

Properties will be evaluated at   0.000000,   0.000000,   0.000000 [a0]

Properties computed using the SCF density matrix

  Nuclear Dipole Moment: [e a0]
     X:    -9.7804      Y:    -6.6486      Z:    -8.8850

  Electronic Dipole Moment: [e a0]
     X:     9.7333      Y:     6.6341      Z:     9.0102

  Dipole Moment: [e a0]
     X:    -0.0471      Y:    -0.0145      Z:     0.1252     Total:     0.1345

  Dipole Moment: [D]
     X:    -0.1196      Y:    -0.0369      Z:     0.3181     Total:     0.3418

*** tstop() called on ds3 at Tue Apr 28 14:39:06 2020
Module time:
	user time   =      99.39 seconds =       1.66 minutes
	system time =      44.95 seconds =       0.75 minutes
	total time  =        140 seconds =       2.33 minutes
Total time:
	user time   =      99.39 seconds =       1.66 minutes
	system time =      44.95 seconds =       0.75 minutes
	total time  =        140 seconds =       2.33 minutes
                                     G D M A

                                 by Anthony Stone

                           version 2.2.06, 22 June 2011

               Distributed Multipoles from Gaussian wavefunctions

Starting at 14:39:6 on 28 Apr 2020

Using SCF density matrix from file ./SSI/SSI-052GLN-117PHE-1-dimer.test.4183.fchk

                         Distributed Multipole Analysis

Standard DMA

Positions and radii in angstrom
Multipole moments in atomic units, ea_0^k for rank k

C          x = -1.480280  y = -1.077037  z = -2.456801 angstrom
           Maximum rank =  0   Radius =  0.650 angstrom
                   Q00  =  -0.086014

C          x = -1.121280  y = -1.489037  z = -3.885801 angstrom
           Maximum rank =  0   Radius =  0.650 angstrom
                   Q00  =  -0.235926

C          x = -2.898280  y = -1.508037  z = -2.061801 angstrom
           Maximum rank =  0   Radius =  0.650 angstrom
                   Q00  =  -0.246465

H          x = -0.770280  y = -1.512037  z = -1.757801 angstrom
           Maximum rank =  0   Radius =  0.325 angstrom
                   Q00  =   0.041359

H          x = -1.405280  y =  0.006963  z = -2.367801 angstrom
           Maximum rank =  0   Radius =  0.325 angstrom
                   Q00  =   0.053782

H          x = -1.933280  y = -1.166037  z = -4.540801 angstrom
           Maximum rank =  0   Radius =  0.325 angstrom
                   Q00  =   0.073999

H          x = -3.623280  y = -0.988037  z = -2.686801 angstrom
           Maximum rank =  0   Radius =  0.325 angstrom
                   Q00  =   0.078518

H          x = -3.024280  y = -2.574037  z = -2.235801 angstrom
           Maximum rank =  0   Radius =  0.325 angstrom
                   Q00  =   0.074311

H          x = -1.023300  y = -2.582610  z = -3.952877 angstrom
           Maximum rank =  0   Radius =  0.325 angstrom
                   Q00  =   0.077972

H          x = -0.213790  y = -0.969031  z = -4.226470 angstrom
           Maximum rank =  0   Radius =  0.325 angstrom
                   Q00  =   0.084239

H          x = -3.119000  y = -1.277881  z = -1.009037 angstrom
           Maximum rank =  0   Radius =  0.325 angstrom
                   Q00  =   0.083920

C          x = -0.772280  y = -0.086037  z =  2.999199 angstrom
           Maximum rank =  0   Radius =  0.650 angstrom
                   Q00  =  -0.210825

C          x =  0.423720  y = -0.338037  z =  0.792199 angstrom
           Maximum rank =  0   Radius =  0.650 angstrom
                   Q00  =  -0.016042

C          x =  0.235720  y =  0.380963  z =  1.974199 angstrom
           Maximum rank =  0   Radius =  0.650 angstrom
                   Q00  =  -0.087577

C          x =  1.369720  y =  0.067963  z = -0.143801 angstrom
           Maximum rank =  0   Radius =  0.650 angstrom
                   Q00  =  -0.075927

C          x =  1.020720  y =  1.508963  z =  2.211199 angstrom
           Maximum rank =  0   Radius =  0.650 angstrom
                   Q00  =  -0.057916

C          x =  2.136720  y =  1.205963  z =  0.093199 angstrom
           Maximum rank =  0   Radius =  0.650 angstrom
                   Q00  =  -0.089609

C          x =  1.961720  y =  1.929963  z =  1.274199 angstrom
           Maximum rank =  0   Radius =  0.650 angstrom
                   Q00  =  -0.070185

H          x = -0.171280  y = -1.216037  z =  0.602199 angstrom
           Maximum rank =  0   Radius =  0.325 angstrom
                   Q00  =   0.056360

H          x =  1.501720  y = -0.493037  z = -1.056801 angstrom
           Maximum rank =  0   Radius =  0.325 angstrom
                   Q00  =   0.065736

H          x = -0.269280  y = -0.748037  z =  3.696199 angstrom
           Maximum rank =  0   Radius =  0.325 angstrom
                   Q00  =   0.105000

H          x = -1.543280  y = -0.678037  z =  2.503199 angstrom
           Maximum rank =  0   Radius =  0.325 angstrom
                   Q00  =   0.097974

H          x =  0.951720  y =  2.069963  z =  3.127199 angstrom
           Maximum rank =  0   Radius =  0.325 angstrom
                   Q00  =   0.054946

H          x =  2.874720  y =  1.521963  z = -0.632801 angstrom
           Maximum rank =  0   Radius =  0.325 angstrom
                   Q00  =   0.061256

H          x =  2.576720  y =  2.792963  z =  1.479199 angstrom
           Maximum rank =  0   Radius =  0.325 angstrom
                   Q00  =   0.065365

H          x = -1.241270  y =  0.720918  z =  3.581319 angstrom
           Maximum rank =  0   Radius =  0.325 angstrom
                   Q00  =   0.101749

Total multipoles referred to origin at
           x =   0.000000,  y =    0.000000,  z =    0.000000 angstrom
                   Q00  =  -0.000000

Finished at 14:39:6 on 28 Apr 2020

  DMA results are available in the Python driver through the
	  variable('DMA DISTRIBUTED MULTIPOLES')
  and
	  variable('DMA TOTAL MULTIPOLES')
  commands.

    Psi4 stopped on: Tuesday, 28 April 2020 02:39PM
    Psi4 wall time for execution: 0:02:20.58

*** Psi4 exiting successfully. Buy a developer a beer!
