                               Psi4 1.3.2 release

  ==> Input File <==

--------------------------------------------------------------------------
import numpy as np
set {scf_type pk
basis cc-pvdz
d_convergence 10
gdma_switch   0
gdma_limit    0
gdma_origin   [ 0.0,  0.0,  0.0 ]
}
molecule test {
    units Angstrom
    0 1
    --
    0 1
    C                1.221410745640776    -2.422569831069955    -1.366997286628063
    C                2.603410745640776    -1.799569831069955    -1.220997286628063
    C                0.543410745640776    -2.075569831069955    -2.686997286628063
    H                1.285410745640776    -3.507569831069955    -1.280997286628063
    H                0.592410745640776    -2.053569831069955    -0.554997286628063
    H                2.506410745640776    -0.721569831069955    -1.361997286628063
    H                3.228410745640776    -2.157569831069955    -1.992997286628063
    H               -0.510589254359224    -2.347569831069955    -2.590997286628063
    H                0.597410745640776    -0.998569831069955    -2.861997286628063
    H                3.053185745640776    -1.964369831069955    -0.230777286628063
    H                0.971410745640776    -2.621289831069955    -3.540817286628063
    C                0.764410745640776     1.287430168930045     3.285002713371937
    C                0.104410745640776     1.093430168930045    -0.459997286628063
    C               -1.217589254359224     0.654430168930045    -0.486997286628063
    C                0.741410745640776     1.298430168930045     0.764002713371937
    C                0.065410745640776     1.074430168930045     1.968002713371937
    C               -1.902589254359224     0.414430168930045     0.706002713371937
    C               -1.259589254359224     0.623430168930045     1.927002713371937
    O               -1.843589254359224     0.436430168930045    -1.681997286628063
    H                0.615410745640776     1.273430168930045    -1.390997286628063
    H                1.770410745640776     1.631430168930045     0.783002713371937
    H               -2.928589254359224     0.075430168930045     0.687002713371937
    H               -2.760589254359224     0.163430168930045    -1.564997286628063
    H                0.055410745640776     1.686430168930045     4.013002713371937
    H                1.544410745640776     2.036430168930045     3.142002713371937
    H               -1.795589254359224     0.445430168930045     2.850002713371937
    H                1.219920745640776     0.367801168930045     3.680973713371937

}
e, wfn = energy('scf', return_wfn=True)
gdma(wfn)
dmavals = variable('DMA DISTRIBUTED MULTIPOLES')
charges = np.array(dmavals)
print(charges)
np.save('SSI-085LYS-094TYR-1-dimer.npy', np.array(charges))--------------------------------------------------------------------------

*** tstart() called on ds3
*** at Mon Apr 27 22:42:13 2020

   => Loading Basis Set <=

    Name: CC-PVDZ
    Role: ORBITAL
    Keyword: BASIS
    atoms 1-3, 12-18  entry C          line   138 file /theoryfs2/ds/metcalf/miniconda2/envs/tf2gpu/share/psi4/basis/cc-pvdz.gbs
    atoms 4-11, 20-27 entry H          line    22 file /theoryfs2/ds/metcalf/miniconda2/envs/tf2gpu/share/psi4/basis/cc-pvdz.gbs
    atoms 19          entry O          line   198 file /theoryfs2/ds/metcalf/miniconda2/envs/tf2gpu/share/psi4/basis/cc-pvdz.gbs

         ---------------------------------------------------------
                                   SCF
               by Justin Turney, Rob Parrish, Andy Simmonett
                          and Daniel G. A. Smith
                              RHF Reference
                        1 Threads,    500 MiB Core
         ---------------------------------------------------------

  ==> Geometry <==

    Molecular point group: c1
    Full point group: C1

    Geometry (in Angstrom), charge = 0, multiplicity = 1:

       Center              X                  Y                   Z               Mass
    ------------   -----------------  -----------------  -----------------  -----------------
         C            1.221410745641    -2.422569831070    -1.366997286628    12.000000000000
         C            2.603410745641    -1.799569831070    -1.220997286628    12.000000000000
         C            0.543410745641    -2.075569831070    -2.686997286628    12.000000000000
         H            1.285410745641    -3.507569831070    -1.280997286628     1.007825032230
         H            0.592410745641    -2.053569831070    -0.554997286628     1.007825032230
         H            2.506410745641    -0.721569831070    -1.361997286628     1.007825032230
         H            3.228410745641    -2.157569831070    -1.992997286628     1.007825032230
         H           -0.510589254359    -2.347569831070    -2.590997286628     1.007825032230
         H            0.597410745641    -0.998569831070    -2.861997286628     1.007825032230
         H            3.053185745641    -1.964369831070    -0.230777286628     1.007825032230
         H            0.971410745641    -2.621289831070    -3.540817286628     1.007825032230
         C            0.764410745641     1.287430168930     3.285002713372    12.000000000000
         C            0.104410745641     1.093430168930    -0.459997286628    12.000000000000
         C           -1.217589254359     0.654430168930    -0.486997286628    12.000000000000
         C            0.741410745641     1.298430168930     0.764002713372    12.000000000000
         C            0.065410745641     1.074430168930     1.968002713372    12.000000000000
         C           -1.902589254359     0.414430168930     0.706002713372    12.000000000000
         C           -1.259589254359     0.623430168930     1.927002713372    12.000000000000
         O           -1.843589254359     0.436430168930    -1.681997286628    15.994914619570
         H            0.615410745641     1.273430168930    -1.390997286628     1.007825032230
         H            1.770410745641     1.631430168930     0.783002713372     1.007825032230
         H           -2.928589254359     0.075430168930     0.687002713372     1.007825032230
         H           -2.760589254359     0.163430168930    -1.564997286628     1.007825032230
         H            0.055410745641     1.686430168930     4.013002713372     1.007825032230
         H            1.544410745641     2.036430168930     3.142002713372     1.007825032230
         H           -1.795589254359     0.445430168930     2.850002713372     1.007825032230
         H            1.219920745641     0.367801168930     3.680973713372     1.007825032230

  Running in c1 symmetry.

  Rotational constants: A =      0.04274  B =      0.02150  C =      0.01639 [cm^-1]
  Rotational constants: A =   1281.43112  B =    644.61672  C =    491.39992 [MHz]
  Nuclear repulsion =  593.035310535432131

  Charge       = 0
  Multiplicity = 1
  Electrons    = 84
  Nalpha       = 42
  Nbeta        = 42

  ==> Algorithm <==

  SCF Algorithm Type is PK.
  DIIS enabled.
  MOM disabled.
  Fractional occupation disabled.
  Guess Type is SAD.
  Energy threshold   = 1.00e-06
  Density threshold  = 1.00e-10
  Integral threshold = 0.00e+00

  ==> Primary Basis <==

  Basis Set: CC-PVDZ
    Blend: CC-PVDZ
    Number of shells: 114
    Number of basis function: 234
    Number of Cartesian functions: 245
    Spherical Harmonics?: true
    Max angular momentum: 2

  ==> Pre-Iterations <==

   -------------------------------------------------------
    Irrep   Nso     Nmo     Nalpha   Nbeta   Ndocc  Nsocc
   -------------------------------------------------------
     A        234     234       0       0       0       0
   -------------------------------------------------------
    Total     234     234      42      42      42       0
   -------------------------------------------------------

  ==> Integral Setup <==

  Using integral reordering PK algorithm.
  Sizing the integral batches needed.
  Building batch lookup table.
   Calculation information:
      Number of atoms:                  27
      Number of AO shells:             114
      Number of primitives:            322
      Number of atomic orbitals:       245
      Number of basis functions:       234

      Integral cutoff                 1.00e-12
      Number of threads:                 1

	Batch   1 pq = [       0,    9405] index = [             0,44231715] size =     44231715
	Batch   2 pq = [    9405,   13301] index = [      44231715,88464951] size =     44233236
	Batch   3 pq = [   13301,   16290] index = [      88464951,132690195] size =     44225244
	Batch   4 pq = [   16290,   18810] index = [     132690195,176917455] size =     44227260
	Batch   5 pq = [   18810,   21030] index = [     176917455,221140965] size =     44223510
	Batch   6 pq = [   21030,   23037] index = [     221140965,265363203] size =     44222238
	Batch   7 pq = [   23037,   24883] index = [     265363203,309594286] size =     44231083
	Batch   8 pq = [   24883,   26601] index = [     309594286,353819901] size =     44225615
	Batch   9 pq = [   26601,   27495] index = [     353819901,378001260] size =     24181359
  Task number: 35
  Buffer size: 11059200
  Buffer per thread: 2
  We computed 21317286 shell quartets total.
  Whereas there are 21487290 unique shell quartets.

  ==> DiskJK: Disk-Based J/K Matrices <==

    J tasked:                  Yes
    K tasked:                  Yes
    wK tasked:                  No
    Memory [MiB]:              375
    Schwarz Cutoff:          1E-12

    OpenMP threads:              1

  Minimum eigenvalue in the overlap matrix is 3.2824933451E-04.
  Using Symmetric Orthogonalization.

  SCF Guess: Superposition of Atomic Densities via on-the-fly atomic UHF.

  ==> Iterations <==

                        Total Energy        Delta E     RMS |[F,P]|

   @RHF iter SAD:  -461.68351960021789   -4.61684e+02   0.00000e+00
   @RHF iter   1:  -462.60350200850070   -9.19982e-01   2.83419e-03 DIIS
   @RHF iter   2:  -462.84755543871688   -2.44053e-01   1.21481e-03 DIIS
   @RHF iter   3:  -462.88830263185480   -4.07472e-02   2.69180e-04 DIIS
   @RHF iter   4:  -462.89159019537937   -3.28756e-03   1.03211e-04 DIIS
   @RHF iter   5:  -462.89193074555953   -3.40550e-04   2.06579e-05 DIIS
   @RHF iter   6:  -462.89195039458059   -1.96490e-05   6.50363e-06 DIIS
   @RHF iter   7:  -462.89195239099342   -1.99641e-06   1.85330e-06 DIIS
   @RHF iter   8:  -462.89195262095899   -2.29966e-07   7.11433e-07 DIIS
   @RHF iter   9:  -462.89195265421847   -3.32595e-08   2.79814e-07 DIIS
   @RHF iter  10:  -462.89195266004225   -5.82378e-09   1.05386e-07 DIIS
   @RHF iter  11:  -462.89195266157475   -1.53250e-09   4.96134e-08 DIIS
   @RHF iter  12:  -462.89195266194923   -3.74484e-10   2.60068e-08 DIIS
   @RHF iter  13:  -462.89195266203012   -8.08882e-11   8.36566e-09 DIIS
   @RHF iter  14:  -462.89195266204246   -1.23350e-11   2.08990e-09 DIIS
   @RHF iter  15:  -462.89195266204337   -9.09495e-13   6.98932e-10 DIIS
   @RHF iter  16:  -462.89195266204086    2.50111e-12   2.35268e-10 DIIS
   @RHF iter  17:  -462.89195266204524   -4.37694e-12   9.79072e-11 DIIS
  Energy and wave function converged.

  ==> Post-Iterations <==

    Orbital Energies [Eh]
    ---------------------

    Doubly Occupied:

       1A    -20.584715     2A    -11.301509     3A    -11.241454
       4A    -11.240484     5A    -11.235983     6A    -11.235524
       7A    -11.232260     8A    -11.228982     9A    -11.207996
      10A    -11.205403    11A    -11.203629    12A     -1.399330
      13A     -1.150030    14A     -1.046027    15A     -1.037725
      16A     -1.018558    17A     -0.926345    18A     -0.917223
      19A     -0.845141    20A     -0.802629    21A     -0.787382
      22A     -0.732211    23A     -0.667906    24A     -0.643827
      25A     -0.619493    26A     -0.608018    27A     -0.589491
      28A     -0.586973    29A     -0.584461    30A     -0.572098
      31A     -0.566856    32A     -0.542076    33A     -0.527399
      34A     -0.522360    35A     -0.498712    36A     -0.486300
      37A     -0.468630    38A     -0.464168    39A     -0.459570
      40A     -0.454765    41A     -0.339662    42A     -0.302140

    Virtual:

      43A      0.127074    44A      0.151959    45A      0.173056
      46A      0.181403    47A      0.197405    48A      0.209854
      49A      0.222189    50A      0.236514    51A      0.246491
      52A      0.252120    53A      0.260356    54A      0.272223
      55A      0.281417    56A      0.287320    57A      0.289386
      58A      0.302278    59A      0.320103    60A      0.338778
      61A      0.372358    62A      0.376792    63A      0.379736
      64A      0.423451    65A      0.443450    66A      0.460893
      67A      0.486945    68A      0.493496    69A      0.506559
      70A      0.580821    71A      0.599001    72A      0.602878
      73A      0.611814    74A      0.622558    75A      0.636541
      76A      0.637687    77A      0.655296    78A      0.677371
      79A      0.685984    80A      0.706340    81A      0.719740
      82A      0.731807    83A      0.737398    84A      0.762805
      85A      0.764765    86A      0.779499    87A      0.784815
      88A      0.804807    89A      0.809338    90A      0.813468
      91A      0.839606    92A      0.854639    93A      0.865977
      94A      0.869808    95A      0.879711    96A      0.883213
      97A      0.887180    98A      0.888131    99A      0.897107
     100A      0.910753   101A      0.921153   102A      0.925689
     103A      0.930066   104A      0.934498   105A      0.936152
     106A      0.940856   107A      0.952312   108A      0.970919
     109A      0.990724   110A      1.001068   111A      1.009560
     112A      1.022531   113A      1.034007   114A      1.068841
     115A      1.117435   116A      1.131945   117A      1.141117
     118A      1.148228   119A      1.152754   120A      1.165559
     121A      1.209949   122A      1.222506   123A      1.240718
     124A      1.259480   125A      1.267950   126A      1.289241
     127A      1.298131   128A      1.305984   129A      1.309192
     130A      1.352669   131A      1.361064   132A      1.382038
     133A      1.390995   134A      1.465079   135A      1.488258
     136A      1.490175   137A      1.512039   138A      1.523888
     139A      1.544962   140A      1.560942   141A      1.609999
     142A      1.620104   143A      1.657772   144A      1.678284
     145A      1.685201   146A      1.699073   147A      1.709763
     148A      1.719918   149A      1.737745   150A      1.746157
     151A      1.781138   152A      1.803224   153A      1.808743
     154A      1.861192   155A      1.875026   156A      1.882577
     157A      1.887558   158A      1.892700   159A      1.906517
     160A      1.910834   161A      1.917948   162A      1.920227
     163A      1.934113   164A      1.941645   165A      1.948910
     166A      1.960721   167A      1.968340   168A      1.974433
     169A      1.980278   170A      1.986909   171A      1.999694
     172A      2.010995   173A      2.019164   174A      2.023024
     175A      2.043061   176A      2.046541   177A      2.057684
     178A      2.059852   179A      2.063964   180A      2.091379
     181A      2.134237   182A      2.141858   183A      2.146710
     184A      2.161018   185A      2.177207   186A      2.203635
     187A      2.228769   188A      2.257965   189A      2.274989
     190A      2.291792   191A      2.309769   192A      2.318550
     193A      2.322566   194A      2.334390   195A      2.361055
     196A      2.402264   197A      2.420471   198A      2.452464
     199A      2.471564   200A      2.484488   201A      2.500022
     202A      2.534381   203A      2.547077   204A      2.572127
     205A      2.595051   206A      2.602732   207A      2.627920
     208A      2.643580   209A      2.654193   210A      2.750294
     211A      2.768038   212A      2.784804   213A      2.786558
     214A      2.794349   215A      2.808538   216A      2.832272
     217A      2.834744   218A      2.838255   219A      2.899672
     220A      2.928340   221A      2.960953   222A      2.979100
     223A      3.000248   224A      3.021991   225A      3.073527
     226A      3.082654   227A      3.105181   228A      3.249104
     229A      3.276979   230A      3.343204   231A      3.574220
     232A      3.666733   233A      3.965817   234A      4.186277

    Final Occupation by Irrep:
              A
    DOCC [    42 ]

  @RHF Final Energy:  -462.89195266204524

   => Energetics <=

    Nuclear Repulsion Energy =            593.0353105354321315
    One-Electron Energy =               -1803.6836296656158538
    Two-Electron Energy =                 747.7563664681383671
    Total Energy =                       -462.8919526620452416

Computation Completed

Properties will be evaluated at   0.000000,   0.000000,   0.000000 [a0]

Properties computed using the SCF density matrix

  Nuclear Dipole Moment: [e a0]
     X:     8.8454      Y:    -8.1466      Z:    -2.0851

  Electronic Dipole Moment: [e a0]
     X:    -9.2947      Y:     8.1048      Z:     2.5779

  Dipole Moment: [e a0]
     X:    -0.4493      Y:    -0.0418      Z:     0.4928     Total:     0.6682

  Dipole Moment: [D]
     X:    -1.1421      Y:    -0.1063      Z:     1.2525     Total:     1.6983

*** tstop() called on ds3 at Mon Apr 27 22:47:14 2020
Module time:
	user time   =     158.77 seconds =       2.65 minutes
	system time =      59.87 seconds =       1.00 minutes
	total time  =        301 seconds =       5.02 minutes
Total time:
	user time   =     158.77 seconds =       2.65 minutes
	system time =      59.87 seconds =       1.00 minutes
	total time  =        301 seconds =       5.02 minutes
                                     G D M A

                                 by Anthony Stone

                           version 2.2.06, 22 June 2011

               Distributed Multipoles from Gaussian wavefunctions

Starting at 22:47:14 on 27 Apr 2020

Using SCF density matrix from file ./SSI/SSI-085LYS-094TYR-1-dimer.test.32581.fchk

                         Distributed Multipole Analysis

Standard DMA

Positions and radii in angstrom
Multipole moments in atomic units, ea_0^k for rank k

C          x =  1.221411  y = -2.422570  z = -1.366997 angstrom
           Maximum rank =  0   Radius =  0.650 angstrom
                   Q00  =  -0.067951

C          x =  2.603411  y = -1.799570  z = -1.220997 angstrom
           Maximum rank =  0   Radius =  0.650 angstrom
                   Q00  =  -0.240588

C          x =  0.543411  y = -2.075570  z = -2.686997 angstrom
           Maximum rank =  0   Radius =  0.650 angstrom
                   Q00  =  -0.248478

H          x =  1.285411  y = -3.507570  z = -1.280997 angstrom
           Maximum rank =  0   Radius =  0.325 angstrom
                   Q00  =   0.041309

H          x =  0.592411  y = -2.053570  z = -0.554997 angstrom
           Maximum rank =  0   Radius =  0.325 angstrom
                   Q00  =   0.054573

H          x =  2.506411  y = -0.721570  z = -1.361997 angstrom
           Maximum rank =  0   Radius =  0.325 angstrom
                   Q00  =   0.068230

H          x =  3.228411  y = -2.157570  z = -1.992997 angstrom
           Maximum rank =  0   Radius =  0.325 angstrom
                   Q00  =   0.075980

H          x = -0.510589  y = -2.347570  z = -2.590997 angstrom
           Maximum rank =  0   Radius =  0.325 angstrom
                   Q00  =   0.079864

H          x =  0.597411  y = -0.998570  z = -2.861997 angstrom
           Maximum rank =  0   Radius =  0.325 angstrom
                   Q00  =   0.080481

H          x =  3.053186  y = -1.964370  z = -0.230777 angstrom
           Maximum rank =  0   Radius =  0.325 angstrom
                   Q00  =   0.081685

H          x =  0.971411  y = -2.621290  z = -3.540817 angstrom
           Maximum rank =  0   Radius =  0.325 angstrom
                   Q00  =   0.071345

C          x =  0.764411  y =  1.287430  z =  3.285003 angstrom
           Maximum rank =  0   Radius =  0.650 angstrom
                   Q00  =  -0.190494

C          x =  0.104411  y =  1.093430  z = -0.459997 angstrom
           Maximum rank =  0   Radius =  0.650 angstrom
                   Q00  =  -0.130911

C          x = -1.217589  y =  0.654430  z = -0.486997 angstrom
           Maximum rank =  0   Radius =  0.650 angstrom
                   Q00  =   0.318948

C          x =  0.741411  y =  1.298430  z =  0.764003 angstrom
           Maximum rank =  0   Radius =  0.650 angstrom
                   Q00  =   0.029207

C          x =  0.065411  y =  1.074430  z =  1.968003 angstrom
           Maximum rank =  0   Radius =  0.650 angstrom
                   Q00  =  -0.136559

C          x = -1.902589  y =  0.414430  z =  0.706003 angstrom
           Maximum rank =  0   Radius =  0.650 angstrom
                   Q00  =  -0.175379

C          x = -1.259589  y =  0.623430  z =  1.927003 angstrom
           Maximum rank =  0   Radius =  0.650 angstrom
                   Q00  =  -0.027647

O          x = -1.843589  y =  0.436430  z = -1.681997 angstrom
           Maximum rank =  0   Radius =  0.650 angstrom
                   Q00  =  -0.675976

H          x =  0.615411  y =  1.273430  z = -1.390997 angstrom
           Maximum rank =  0   Radius =  0.325 angstrom
                   Q00  =   0.083860

H          x =  1.770411  y =  1.631430  z =  0.783003 angstrom
           Maximum rank =  0   Radius =  0.325 angstrom
                   Q00  =   0.066125

H          x = -2.928589  y =  0.075430  z =  0.687003 angstrom
           Maximum rank =  0   Radius =  0.325 angstrom
                   Q00  =   0.072407

H          x = -2.760589  y =  0.163430  z = -1.564997 angstrom
           Maximum rank =  0   Radius =  0.325 angstrom
                   Q00  =   0.408328

H          x =  0.055411  y =  1.686430  z =  4.013003 angstrom
           Maximum rank =  0   Radius =  0.325 angstrom
                   Q00  =   0.096213

H          x =  1.544411  y =  2.036430  z =  3.142003 angstrom
           Maximum rank =  0   Radius =  0.325 angstrom
                   Q00  =   0.095525

H          x = -1.795589  y =  0.445430  z =  2.850003 angstrom
           Maximum rank =  0   Radius =  0.325 angstrom
                   Q00  =   0.069285

H          x =  1.219921  y =  0.367801  z =  3.680974 angstrom
           Maximum rank =  0   Radius =  0.325 angstrom
                   Q00  =   0.100619

Total multipoles referred to origin at
           x =   0.000000,  y =    0.000000,  z =    0.000000 angstrom
                   Q00  =  -0.000000

Finished at 22:47:14 on 27 Apr 2020

  DMA results are available in the Python driver through the
	  variable('DMA DISTRIBUTED MULTIPOLES')
  and
	  variable('DMA TOTAL MULTIPOLES')
  commands.

    Psi4 stopped on: Monday, 27 April 2020 10:47PM
    Psi4 wall time for execution: 0:05:00.93

*** Psi4 exiting successfully. Buy a developer a beer!
