                               Psi4 1.3.2 release

  ==> Input File <==

--------------------------------------------------------------------------
import numpy as np
set {scf_type pk
basis cc-pvdz
d_convergence 10
gdma_switch   0
gdma_limit    0
gdma_origin   [ 0.0,  0.0,  0.0 ]
}
molecule test {
    units Angstrom
    0 1
    --
    0 1
    C               -0.668993001940491    -1.129637012267072     1.372868040167974
    C               -1.918993001940491    -1.589637012267072     2.137868040167974
    C               -0.952993001940491    -0.497637012267072     0.040868040167974
    C               -0.558993001940491    -0.867637012267072    -1.206131959832026
    C               -1.764993001940491     0.964362987732928    -1.387131959832026
    N               -1.696993001940491     0.653362987732928    -0.099131959832026
    N               -1.082993001940492     0.061362987732928    -2.080131959832026
    H               -0.122993001940491    -0.422637012267072     1.993868040167974
    H               -0.002993001940491    -1.963637012267072     1.200868040167974
    H               -1.581993001940491    -2.381637012267072     2.809868040167974
    H                0.042006998059509    -1.736637012267072    -1.451131959832026
    H               -2.314993001940491     1.795362987732928    -1.803131959832026
    H               -1.052993001940491     0.037362987732928    -3.089131959832026
    H               -2.696213001940491    -1.973727012267072     1.460818040167974
    H               -2.319563001940491    -0.798607012267072     2.788878040167974
    C                2.351006998059509     0.395362987732928     0.488868040167974
    C                3.868006998059509     0.195362987732928     0.566868040167974
    C                1.895006998059509     1.768362987732928    -0.015131959832026
    H                1.959006998059509    -0.365637012267072    -0.185131959832026
    H                1.918006998059509     0.225362987732928     1.470868040167974
    H                4.263006998059509     0.127362987732928    -0.433131959832026
    H                2.530006998059509     2.071362987732928    -0.848131959832026
    H                0.880006998059509     1.672362987732928    -0.401131959832026
    H                4.102687998059509    -0.736547012267072     1.102088040167974
    H                4.345344998059509     1.023282987732928     1.111568040167974
    H                1.898640998059508     2.558192987732928     0.750468040167974

}
e, wfn = energy('scf', return_wfn=True)
gdma(wfn)
dmavals = variable('DMA DISTRIBUTED MULTIPOLES')
charges = np.array(dmavals)
print(charges)
np.save('SSI-193HIE-301MET-1-dimer.npy', np.array(charges))--------------------------------------------------------------------------

*** tstart() called on ds3
*** at Mon Apr 27 09:47:58 2020

   => Loading Basis Set <=

    Name: CC-PVDZ
    Role: ORBITAL
    Keyword: BASIS
    atoms 1-5, 16-18  entry C          line   138 file /theoryfs2/ds/metcalf/miniconda2/envs/tf2gpu/share/psi4/basis/cc-pvdz.gbs
    atoms 6-7         entry N          line   168 file /theoryfs2/ds/metcalf/miniconda2/envs/tf2gpu/share/psi4/basis/cc-pvdz.gbs
    atoms 8-15, 19-26 entry H          line    22 file /theoryfs2/ds/metcalf/miniconda2/envs/tf2gpu/share/psi4/basis/cc-pvdz.gbs

         ---------------------------------------------------------
                                   SCF
               by Justin Turney, Rob Parrish, Andy Simmonett
                          and Daniel G. A. Smith
                              RHF Reference
                        1 Threads,    500 MiB Core
         ---------------------------------------------------------

  ==> Geometry <==

    Molecular point group: c1
    Full point group: C1

    Geometry (in Angstrom), charge = 0, multiplicity = 1:

       Center              X                  Y                   Z               Mass
    ------------   -----------------  -----------------  -----------------  -----------------
         C           -0.668993001940    -1.129637012267     1.372868040168    12.000000000000
         C           -1.918993001940    -1.589637012267     2.137868040168    12.000000000000
         C           -0.952993001940    -0.497637012267     0.040868040168    12.000000000000
         C           -0.558993001940    -0.867637012267    -1.206131959832    12.000000000000
         C           -1.764993001940     0.964362987733    -1.387131959832    12.000000000000
         N           -1.696993001940     0.653362987733    -0.099131959832    14.003074004430
         N           -1.082993001940     0.061362987733    -2.080131959832    14.003074004430
         H           -0.122993001940    -0.422637012267     1.993868040168     1.007825032230
         H           -0.002993001940    -1.963637012267     1.200868040168     1.007825032230
         H           -1.581993001940    -2.381637012267     2.809868040168     1.007825032230
         H            0.042006998060    -1.736637012267    -1.451131959832     1.007825032230
         H           -2.314993001940     1.795362987733    -1.803131959832     1.007825032230
         H           -1.052993001940     0.037362987733    -3.089131959832     1.007825032230
         H           -2.696213001940    -1.973727012267     1.460818040168     1.007825032230
         H           -2.319563001940    -0.798607012267     2.788878040168     1.007825032230
         C            2.351006998060     0.395362987733     0.488868040168    12.000000000000
         C            3.868006998060     0.195362987733     0.566868040168    12.000000000000
         C            1.895006998060     1.768362987733    -0.015131959832    12.000000000000
         H            1.959006998060    -0.365637012267    -0.185131959832     1.007825032230
         H            1.918006998060     0.225362987733     1.470868040168     1.007825032230
         H            4.263006998060     0.127362987733    -0.433131959832     1.007825032230
         H            2.530006998060     2.071362987733    -0.848131959832     1.007825032230
         H            0.880006998060     1.672362987733    -0.401131959832     1.007825032230
         H            4.102687998060    -0.736547012267     1.102088040168     1.007825032230
         H            4.345344998060     1.023282987733     1.111568040168     1.007825032230
         H            1.898640998060     2.558192987733     0.750468040168     1.007825032230

  Running in c1 symmetry.

  Rotational constants: A =      0.04769  B =      0.02614  C =      0.01989 [cm^-1]
  Rotational constants: A =   1429.63245  B =    783.69488  C =    596.27634 [MHz]
  Nuclear repulsion =  533.057759575293403

  Charge       = 0
  Multiplicity = 1
  Electrons    = 78
  Nalpha       = 39
  Nbeta        = 39

  ==> Algorithm <==

  SCF Algorithm Type is PK.
  DIIS enabled.
  MOM disabled.
  Fractional occupation disabled.
  Guess Type is SAD.
  Energy threshold   = 1.00e-06
  Density threshold  = 1.00e-10
  Integral threshold = 0.00e+00

  ==> Primary Basis <==

  Basis Set: CC-PVDZ
    Blend: CC-PVDZ
    Number of shells: 108
    Number of basis function: 220
    Number of Cartesian functions: 230
    Spherical Harmonics?: true
    Max angular momentum: 2

  ==> Pre-Iterations <==

   -------------------------------------------------------
    Irrep   Nso     Nmo     Nalpha   Nbeta   Ndocc  Nsocc
   -------------------------------------------------------
     A        220     220       0       0       0       0
   -------------------------------------------------------
    Total     220     220      39      39      39       0
   -------------------------------------------------------

  ==> Integral Setup <==

  Using integral reordering PK algorithm.
  Sizing the integral batches needed.
  Building batch lookup table.
   Calculation information:
      Number of atoms:                  26
      Number of AO shells:             108
      Number of primitives:            300
      Number of atomic orbitals:       230
      Number of basis functions:       220

      Integral cutoff                 1.00e-12
      Number of threads:                 1

	Batch   1 pq = [       0,    9405] index = [             0,44231715] size =     44231715
	Batch   2 pq = [    9405,   13301] index = [      44231715,88464951] size =     44233236
	Batch   3 pq = [   13301,   16290] index = [      88464951,132690195] size =     44225244
	Batch   4 pq = [   16290,   18810] index = [     132690195,176917455] size =     44227260
	Batch   5 pq = [   18810,   21030] index = [     176917455,221140965] size =     44223510
	Batch   6 pq = [   21030,   23037] index = [     221140965,265363203] size =     44222238
	Batch   7 pq = [   23037,   24310] index = [     265363203,295500205] size =     30137002
  Task number: 27
  Buffer size: 11059200
  Buffer per thread: 2
  We computed 16785846 shell quartets total.
  Whereas there are 17325441 unique shell quartets.

  ==> DiskJK: Disk-Based J/K Matrices <==

    J tasked:                  Yes
    K tasked:                  Yes
    wK tasked:                  No
    Memory [MiB]:              375
    Schwarz Cutoff:          1E-12

    OpenMP threads:              1

  Minimum eigenvalue in the overlap matrix is 1.1100734897E-03.
  Using Symmetric Orthogonalization.

  SCF Guess: Superposition of Atomic Densities via on-the-fly atomic UHF.

  ==> Iterations <==

                        Total Energy        Delta E     RMS |[F,P]|

   @RHF iter SAD:  -420.26190293268792   -4.20262e+02   0.00000e+00
   @RHF iter   1:  -420.89134890012747   -6.29446e-01   2.95395e-03 DIIS
   @RHF iter   2:  -421.11267925075714   -2.21330e-01   1.50050e-03 DIIS
   @RHF iter   3:  -421.16514698799915   -5.24677e-02   3.89095e-04 DIIS
   @RHF iter   4:  -421.16969101388162   -4.54403e-03   1.64514e-04 DIIS
   @RHF iter   5:  -421.17042545015903   -7.34436e-04   2.27158e-05 DIIS
   @RHF iter   6:  -421.17044930035001   -2.38502e-05   9.04593e-06 DIIS
   @RHF iter   7:  -421.17045256673941   -3.26639e-06   2.99912e-06 DIIS
   @RHF iter   8:  -421.17045315990077   -5.93161e-07   1.25481e-06 DIIS
   @RHF iter   9:  -421.17045330088206   -1.40981e-07   4.65027e-07 DIIS
   @RHF iter  10:  -421.17045331851779   -1.76357e-08   1.51874e-07 DIIS
   @RHF iter  11:  -421.17045332075327   -2.23548e-09   6.19246e-08 DIIS
   @RHF iter  12:  -421.17045332102430   -2.71029e-10   2.55786e-08 DIIS
   @RHF iter  13:  -421.17045332106835   -4.40536e-11   8.00133e-09 DIIS
   @RHF iter  14:  -421.17045332107756   -9.20863e-12   2.64215e-09 DIIS
   @RHF iter  15:  -421.17045332107631    1.25056e-12   1.01835e-09 DIIS
   @RHF iter  16:  -421.17045332107557    7.38964e-13   3.83142e-10 DIIS
   @RHF iter  17:  -421.17045332107710   -1.53477e-12   1.45922e-10 DIIS
   @RHF iter  18:  -421.17045332107551    1.59162e-12   4.23544e-11 DIIS
  Energy and wave function converged.

  ==> Post-Iterations <==

    Orbital Energies [Eh]
    ---------------------

    Doubly Occupied:

       1A    -15.622178     2A    -15.528038     3A    -11.293441
       4A    -11.252025     5A    -11.239065     6A    -11.222979
       7A    -11.213807     8A    -11.209825     9A    -11.208636
      10A    -11.203462    11A     -1.343803    12A     -1.155926
      13A     -1.049779    14A     -1.041242    15A     -0.985900
      16A     -0.917106    17A     -0.859362    18A     -0.819525
      19A     -0.787956    20A     -0.760695    21A     -0.736886
      22A     -0.622451    23A     -0.618483    24A     -0.610455
      25A     -0.597784    26A     -0.587337    27A     -0.577593
      28A     -0.561676    29A     -0.537004    30A     -0.528525
      31A     -0.509252    32A     -0.493848    33A     -0.478032
      34A     -0.464107    35A     -0.456679    36A     -0.455137
      37A     -0.409535    38A     -0.378147    39A     -0.310322

    Virtual:

      40A      0.169233    41A      0.180288    42A      0.188610
      43A      0.204316    44A      0.208997    45A      0.226332
      46A      0.235266    47A      0.239150    48A      0.243535
      49A      0.259909    50A      0.264543    51A      0.271794
      52A      0.288438    53A      0.292590    54A      0.301301
      55A      0.307466    56A      0.329348    57A      0.368725
      58A      0.382275    59A      0.392345    60A      0.397941
      61A      0.414372    62A      0.433808    63A      0.446870
      64A      0.481461    65A      0.512419    66A      0.583549
      67A      0.589668    68A      0.594678    69A      0.603338
      70A      0.616891    71A      0.626951    72A      0.652978
      73A      0.664523    74A      0.670412    75A      0.706472
      76A      0.727527    77A      0.740683    78A      0.763727
      79A      0.780667    80A      0.784526    81A      0.812247
      82A      0.826173    83A      0.832579    84A      0.842507
      85A      0.845195    86A      0.873057    87A      0.883358
      88A      0.891665    89A      0.897584    90A      0.902718
      91A      0.907357    92A      0.910428    93A      0.916737
      94A      0.921327    95A      0.925577    96A      0.932140
      97A      0.940974    98A      0.950401    99A      0.962422
     100A      0.973361   101A      0.979130   102A      1.000422
     103A      1.006210   104A      1.014921   105A      1.045409
     106A      1.057510   107A      1.069440   108A      1.096885
     109A      1.113568   110A      1.125797   111A      1.138023
     112A      1.171921   113A      1.175260   114A      1.198862
     115A      1.237189   116A      1.272255   117A      1.286530
     118A      1.317173   119A      1.333370   120A      1.369221
     121A      1.388726   122A      1.407093   123A      1.429056
     124A      1.449426   125A      1.458501   126A      1.471452
     127A      1.504963   128A      1.517745   129A      1.529714
     130A      1.552288   131A      1.578868   132A      1.601246
     133A      1.668618   134A      1.686639   135A      1.688880
     136A      1.694880   137A      1.701764   138A      1.721943
     139A      1.743760   140A      1.768114   141A      1.775416
     142A      1.818142   143A      1.830112   144A      1.861868
     145A      1.867679   146A      1.884834   147A      1.892516
     148A      1.911533   149A      1.919233   150A      1.928909
     151A      1.932738   152A      1.941439   153A      1.958162
     154A      1.962421   155A      1.968476   156A      1.975105
     157A      1.989371   158A      1.992008   159A      2.008839
     160A      2.015869   161A      2.021175   162A      2.030062
     163A      2.048732   164A      2.052310   165A      2.076784
     166A      2.083242   167A      2.097629   168A      2.131465
     169A      2.144150   170A      2.164937   171A      2.185082
     172A      2.192303   173A      2.199513   174A      2.218813
     175A      2.255963   176A      2.285154   177A      2.300336
     178A      2.324558   179A      2.338362   180A      2.352277
     181A      2.370728   182A      2.384983   183A      2.398978
     184A      2.433358   185A      2.459287   186A      2.474252
     187A      2.504753   188A      2.514260   189A      2.554990
     190A      2.585113   191A      2.586442   192A      2.592683
     193A      2.609067   194A      2.635342   195A      2.665317
     196A      2.699680   197A      2.734041   198A      2.763038
     199A      2.771299   200A      2.777825   201A      2.785323
     202A      2.807331   203A      2.814711   204A      2.840017
     205A      2.866267   206A      2.875143   207A      2.886021
     208A      2.905880   209A      2.925605   210A      2.951893
     211A      2.971384   212A      2.982031   213A      3.001083
     214A      3.010218   215A      3.071570   216A      3.080457
     217A      3.181847   218A      3.267292   219A      3.477972
     220A      3.804862

    Final Occupation by Irrep:
              A
    DOCC [    39 ]

  @RHF Final Energy:  -421.17045332107551

   => Energetics <=

    Nuclear Repulsion Energy =            533.0577595752934030
    One-Electron Energy =               -1627.1604219803139131
    Two-Electron Energy =                 672.9322090839450539
    Total Energy =                       -421.1704533210754562

Computation Completed

Properties will be evaluated at   0.000000,   0.000000,   0.000000 [a0]

Properties computed using the SCF density matrix

  Nuclear Dipole Moment: [e a0]
     X:    11.1143      Y:    -0.8162      Z:     6.0796

  Electronic Dipole Moment: [e a0]
     X:   -10.9710      Y:     0.4368      Z:    -7.3484

  Dipole Moment: [e a0]
     X:     0.1432      Y:    -0.3794      Z:    -1.2688     Total:     1.3321

  Dipole Moment: [D]
     X:     0.3640      Y:    -0.9643      Z:    -3.2250     Total:     3.3857

*** tstop() called on ds3 at Mon Apr 27 09:58:29 2020
Module time:
	user time   =     115.63 seconds =       1.93 minutes
	system time =      53.03 seconds =       0.88 minutes
	total time  =        631 seconds =      10.52 minutes
Total time:
	user time   =     115.63 seconds =       1.93 minutes
	system time =      53.03 seconds =       0.88 minutes
	total time  =        631 seconds =      10.52 minutes
                                     G D M A

                                 by Anthony Stone

                           version 2.2.06, 22 June 2011

               Distributed Multipoles from Gaussian wavefunctions

Starting at 9:58:29 on 27 Apr 2020

Using SCF density matrix from file ./SSI/SSI-193HIE-301MET-1-dimer.test.1970.fchk

                         Distributed Multipole Analysis

Standard DMA

Positions and radii in angstrom
Multipole moments in atomic units, ea_0^k for rank k

C          x = -0.668993  y = -1.129637  z =  1.372868 angstrom
           Maximum rank =  0   Radius =  0.650 angstrom
                   Q00  =  -0.024845

C          x = -1.918993  y = -1.589637  z =  2.137868 angstrom
           Maximum rank =  0   Radius =  0.650 angstrom
                   Q00  =  -0.247756

C          x = -0.952993  y = -0.497637  z =  0.040868 angstrom
           Maximum rank =  0   Radius =  0.650 angstrom
                   Q00  =   0.217958

C          x = -0.558993  y = -0.867637  z = -1.206132 angstrom
           Maximum rank =  0   Radius =  0.650 angstrom
                   Q00  =  -0.002044

C          x = -1.764993  y =  0.964363  z = -1.387132 angstrom
           Maximum rank =  0   Radius =  0.650 angstrom
                   Q00  =   0.465132

N          x = -1.696993  y =  0.653363  z = -0.099132 angstrom
           Maximum rank =  0   Radius =  0.650 angstrom
                   Q00  =  -0.784606

N          x = -1.082993  y =  0.061363  z = -2.080132 angstrom
           Maximum rank =  0   Radius =  0.650 angstrom
                   Q00  =  -0.477347

H          x = -0.122993  y = -0.422637  z =  1.993868 angstrom
           Maximum rank =  0   Radius =  0.325 angstrom
                   Q00  =   0.084914

H          x = -0.002993  y = -1.963637  z =  1.200868 angstrom
           Maximum rank =  0   Radius =  0.325 angstrom
                   Q00  =   0.064873

H          x = -1.581993  y = -2.381637  z =  2.809868 angstrom
           Maximum rank =  0   Radius =  0.325 angstrom
                   Q00  =   0.078523

H          x =  0.042007  y = -1.736637  z = -1.451132 angstrom
           Maximum rank =  0   Radius =  0.325 angstrom
                   Q00  =   0.105303

H          x = -2.314993  y =  1.795363  z = -1.803132 angstrom
           Maximum rank =  0   Radius =  0.325 angstrom
                   Q00  =   0.122827

H          x = -1.052993  y =  0.037363  z = -3.089132 angstrom
           Maximum rank =  0   Radius =  0.325 angstrom
                   Q00  =   0.219264

H          x = -2.696213  y = -1.973727  z =  1.460818 angstrom
           Maximum rank =  0   Radius =  0.325 angstrom
                   Q00  =   0.088101

H          x = -2.319563  y = -0.798607  z =  2.788878 angstrom
           Maximum rank =  0   Radius =  0.325 angstrom
                   Q00  =   0.095681

C          x =  2.351007  y =  0.395363  z =  0.488868 angstrom
           Maximum rank =  0   Radius =  0.650 angstrom
                   Q00  =  -0.074654

C          x =  3.868007  y =  0.195363  z =  0.566868 angstrom
           Maximum rank =  0   Radius =  0.650 angstrom
                   Q00  =  -0.228676

C          x =  1.895007  y =  1.768363  z = -0.015132 angstrom
           Maximum rank =  0   Radius =  0.650 angstrom
                   Q00  =  -0.270179

H          x =  1.959007  y = -0.365637  z = -0.185132 angstrom
           Maximum rank =  0   Radius =  0.325 angstrom
                   Q00  =   0.046050

H          x =  1.918007  y =  0.225363  z =  1.470868 angstrom
           Maximum rank =  0   Radius =  0.325 angstrom
                   Q00  =   0.044065

H          x =  4.263007  y =  0.127363  z = -0.433132 angstrom
           Maximum rank =  0   Radius =  0.325 angstrom
                   Q00  =   0.076279

H          x =  2.530007  y =  2.071363  z = -0.848132 angstrom
           Maximum rank =  0   Radius =  0.325 angstrom
                   Q00  =   0.062686

H          x =  0.880007  y =  1.672363  z = -0.401132 angstrom
           Maximum rank =  0   Radius =  0.325 angstrom
                   Q00  =   0.103988

H          x =  4.102688  y = -0.736547  z =  1.102088 angstrom
           Maximum rank =  0   Radius =  0.325 angstrom
                   Q00  =   0.078149

H          x =  4.345345  y =  1.023283  z =  1.111568 angstrom
           Maximum rank =  0   Radius =  0.325 angstrom
                   Q00  =   0.075067

H          x =  1.898641  y =  2.558193  z =  0.750468 angstrom
           Maximum rank =  0   Radius =  0.325 angstrom
                   Q00  =   0.081247

Total multipoles referred to origin at
           x =   0.000000,  y =    0.000000,  z =    0.000000 angstrom
                   Q00  =  -0.000000

Finished at 9:58:29 on 27 Apr 2020

  DMA results are available in the Python driver through the
	  variable('DMA DISTRIBUTED MULTIPOLES')
  and
	  variable('DMA TOTAL MULTIPOLES')
  commands.

    Psi4 stopped on: Monday, 27 April 2020 09:58AM
    Psi4 wall time for execution: 0:10:30.97

*** Psi4 exiting successfully. Buy a developer a beer!
