                               Psi4 1.3.2 release

  ==> Input File <==

--------------------------------------------------------------------------
import numpy as np
set {scf_type pk
basis cc-pvdz
d_convergence 10
gdma_switch   0
gdma_limit    0
gdma_origin   [ 0.0,  0.0,  0.0 ]
}
molecule test {
    units Angstrom
    0 1
    --
    0 1
    C                0.772208409679287    -0.660495801802641    -6.217747249132632
    C                0.445208409679288    -1.467495801802641    -2.521747249132632
    C                0.575208409679287    -2.855495801802642    -2.523747249132632
    C                0.520208409679287    -0.761495801802641    -3.720747249132633
    C                0.726208409679287    -1.428495801802641    -4.927747249132632
    C                0.784208409679288    -3.532495801802641    -3.725747249132632
    C                0.862208409679287    -2.821495801802641    -4.923747249132633
    H                0.281208409679288    -0.938495801802641    -1.598747249132632
    H                0.512208409679287    -3.407495801802641    -1.594747249132633
    H                0.401208409679288     0.310504198197359    -3.720747249132633
    H                0.887208409679287    -4.608495801802640    -3.727747249132632
    H                1.819208409679288    -0.569495801802641    -6.510747249132632
    H                0.372208409679287     0.339504198197359    -6.049747249132632
    H                1.058208409679288    -3.372495801802641    -5.829747249132632
    H                0.206898409679288    -1.138775801802641    -7.031187249132632
    C                1.297208409679288     2.786504198197359     4.786252750867368
    C               -1.406791590320712     1.196504198197359     2.725252750867367
    C               -0.027791590320712     1.430504198197359     2.981252750867367
    C                0.053208409679288     2.303504198197359     4.122252750867368
    C               -1.226791590320712     2.561504198197359     4.499252750867367
    C               -0.885791590320712    -0.205495801802641     0.877252750867368
    C               -1.845791590320712     0.385504198197359     1.682252750867367
    C                0.483208409679288     0.004504198197359     1.105252750867367
    C                0.922208409679288     0.816504198197359     2.152252750867367
    N               -2.104791590320712     1.902504198197359     3.670252750867367
    H               -1.202791590320712    -0.831495801802641     0.054252750867368
    H               -2.900791590320712     0.221504198197359     1.512252750867368
    H                1.211208409679288    -0.481495801802641     0.471252750867367
    H                1.977208409679288     0.947504198197359     2.341252750867367
    H               -3.113791590320712     1.927504198197359     3.772252750867367
    H               -1.513791590320712     3.184504198197359     5.341252750867367
    H                1.208208409679288     3.853504198197359     4.994252750867367
    H                2.125208409679288     2.655504198197359     4.089252750867367
    H                1.526518409679288     2.239904198197359     5.712882750867368

}
e, wfn = energy('scf', return_wfn=True)
gdma(wfn)
dmavals = variable('DMA DISTRIBUTED MULTIPOLES')
charges = np.array(dmavals)
print(charges)
np.save('SSI-146PHE-164TRP-1-dimer.npy', np.array(charges))--------------------------------------------------------------------------

*** tstart() called on ds3
*** at Mon Apr 27 21:01:14 2020

   => Loading Basis Set <=

    Name: CC-PVDZ
    Role: ORBITAL
    Keyword: BASIS
    atoms 1-7, 16-24  entry C          line   138 file /theoryfs2/ds/metcalf/miniconda2/envs/tf2gpu/share/psi4/basis/cc-pvdz.gbs
    atoms 8-15, 26-34 entry H          line    22 file /theoryfs2/ds/metcalf/miniconda2/envs/tf2gpu/share/psi4/basis/cc-pvdz.gbs
    atoms 25          entry N          line   168 file /theoryfs2/ds/metcalf/miniconda2/envs/tf2gpu/share/psi4/basis/cc-pvdz.gbs

         ---------------------------------------------------------
                                   SCF
               by Justin Turney, Rob Parrish, Andy Simmonett
                          and Daniel G. A. Smith
                              RHF Reference
                        1 Threads,    500 MiB Core
         ---------------------------------------------------------

  ==> Geometry <==

    Molecular point group: c1
    Full point group: C1

    Geometry (in Angstrom), charge = 0, multiplicity = 1:

       Center              X                  Y                   Z               Mass
    ------------   -----------------  -----------------  -----------------  -----------------
         C            0.772208409679    -0.660495801803    -6.217747249133    12.000000000000
         C            0.445208409679    -1.467495801803    -2.521747249133    12.000000000000
         C            0.575208409679    -2.855495801803    -2.523747249133    12.000000000000
         C            0.520208409679    -0.761495801803    -3.720747249133    12.000000000000
         C            0.726208409679    -1.428495801803    -4.927747249133    12.000000000000
         C            0.784208409679    -3.532495801803    -3.725747249133    12.000000000000
         C            0.862208409679    -2.821495801803    -4.923747249133    12.000000000000
         H            0.281208409679    -0.938495801803    -1.598747249133     1.007825032230
         H            0.512208409679    -3.407495801803    -1.594747249133     1.007825032230
         H            0.401208409679     0.310504198197    -3.720747249133     1.007825032230
         H            0.887208409679    -4.608495801803    -3.727747249133     1.007825032230
         H            1.819208409679    -0.569495801803    -6.510747249133     1.007825032230
         H            0.372208409679     0.339504198197    -6.049747249133     1.007825032230
         H            1.058208409679    -3.372495801803    -5.829747249133     1.007825032230
         H            0.206898409679    -1.138775801803    -7.031187249133     1.007825032230
         C            1.297208409679     2.786504198197     4.786252750867    12.000000000000
         C           -1.406791590321     1.196504198197     2.725252750867    12.000000000000
         C           -0.027791590321     1.430504198197     2.981252750867    12.000000000000
         C            0.053208409679     2.303504198197     4.122252750867    12.000000000000
         C           -1.226791590321     2.561504198197     4.499252750867    12.000000000000
         C           -0.885791590321    -0.205495801803     0.877252750867    12.000000000000
         C           -1.845791590321     0.385504198197     1.682252750867    12.000000000000
         C            0.483208409679     0.004504198197     1.105252750867    12.000000000000
         C            0.922208409679     0.816504198197     2.152252750867    12.000000000000
         N           -2.104791590321     1.902504198197     3.670252750867    14.003074004430
         H           -1.202791590321    -0.831495801803     0.054252750867     1.007825032230
         H           -2.900791590321     0.221504198197     1.512252750867     1.007825032230
         H            1.211208409679    -0.481495801803     0.471252750867     1.007825032230
         H            1.977208409679     0.947504198197     2.341252750867     1.007825032230
         H           -3.113791590321     1.927504198197     3.772252750867     1.007825032230
         H           -1.513791590321     3.184504198197     5.341252750867     1.007825032230
         H            1.208208409679     3.853504198197     4.994252750867     1.007825032230
         H            2.125208409679     2.655504198197     4.089252750867     1.007825032230
         H            1.526518409679     2.239904198197     5.712882750867     1.007825032230

  Running in c1 symmetry.

  Rotational constants: A =      0.04327  B =      0.00425  C =      0.00421 [cm^-1]
  Rotational constants: A =   1297.10967  B =    127.51247  C =    126.32418 [MHz]
  Nuclear repulsion = 1002.607805909501394

  Charge       = 0
  Multiplicity = 1
  Electrons    = 120
  Nalpha       = 60
  Nbeta        = 60

  ==> Algorithm <==

  SCF Algorithm Type is PK.
  DIIS enabled.
  MOM disabled.
  Fractional occupation disabled.
  Guess Type is SAD.
  Energy threshold   = 1.00e-06
  Density threshold  = 1.00e-10
  Integral threshold = 0.00e+00

  ==> Primary Basis <==

  Basis Set: CC-PVDZ
    Blend: CC-PVDZ
    Number of shells: 153
    Number of basis function: 323
    Number of Cartesian functions: 340
    Spherical Harmonics?: true
    Max angular momentum: 2

  ==> Pre-Iterations <==

   -------------------------------------------------------
    Irrep   Nso     Nmo     Nalpha   Nbeta   Ndocc  Nsocc
   -------------------------------------------------------
     A        323     323       0       0       0       0
   -------------------------------------------------------
    Total     323     323      60      60      60       0
   -------------------------------------------------------

  ==> Integral Setup <==

  Using integral reordering PK algorithm.
  Sizing the integral batches needed.
  Building batch lookup table.
   Calculation information:
      Number of atoms:                  34
      Number of AO shells:             153
      Number of primitives:            459
      Number of atomic orbitals:       340
      Number of basis functions:       323

      Integral cutoff                 1.00e-12
      Number of threads:                 1

	Batch   1 pq = [       0,    9405] index = [             0,44231715] size =     44231715
	Batch   2 pq = [    9405,   13301] index = [      44231715,88464951] size =     44233236
	Batch   3 pq = [   13301,   16290] index = [      88464951,132690195] size =     44225244
	Batch   4 pq = [   16290,   18810] index = [     132690195,176917455] size =     44227260
	Batch   5 pq = [   18810,   21030] index = [     176917455,221140965] size =     44223510
	Batch   6 pq = [   21030,   23037] index = [     221140965,265363203] size =     44222238
	Batch   7 pq = [   23037,   24883] index = [     265363203,309594286] size =     44231083
	Batch   8 pq = [   24883,   26601] index = [     309594286,353819901] size =     44225615
	Batch   9 pq = [   26601,   28214] index = [     353819901,398029005] size =     44209104
	Batch  10 pq = [   28214,   29740] index = [     398029005,442248670] size =     44219665
	Batch  11 pq = [   29740,   31191] index = [     442248670,486454836] size =     44206166
	Batch  12 pq = [   31191,   32578] index = [     486454836,530679331] size =     44224495
	Batch  13 pq = [   32578,   33908] index = [     530679331,574893186] size =     44213855
	Batch  14 pq = [   33908,   35188] index = [     574893186,619115266] size =     44222080
	Batch  15 pq = [   35188,   36423] index = [     619115266,663335676] size =     44220410
	Batch  16 pq = [   36423,   37617] index = [     663335676,707538153] size =     44202477
	Batch  17 pq = [   37617,   38775] index = [     707538153,751769700] size =     44231547
	Batch  18 pq = [   38775,   39899] index = [     751769700,795985050] size =     44215350
	Batch  19 pq = [   39899,   40992] index = [     795985050,840192528] size =     44207478
	Batch  20 pq = [   40992,   42057] index = [     840192528,884416653] size =     44224125
	Batch  21 pq = [   42057,   43095] index = [     884416653,928611060] size =     44194407
	Batch  22 pq = [   43095,   44109] index = [     928611060,972823995] size =     44212935
	Batch  23 pq = [   44109,   45100] index = [     972823995,1017027550] size =     44203555
	Batch  24 pq = [   45100,   46070] index = [    1017027550,1061245485] size =     44217935
	Batch  25 pq = [   46070,   47020] index = [    1061245485,1105463710] size =     44218225
	Batch  26 pq = [   47020,   47951] index = [    1105463710,1149673176] size =     44209466
	Batch  27 pq = [   47951,   48864] index = [    1149673176,1193869680] size =     44196504
	Batch  28 pq = [   48864,   49761] index = [    1193869680,1238103441] size =     44233761
	Batch  29 pq = [   49761,   50642] index = [    1238103441,1282331403] size =     44227962
	Batch  30 pq = [   50642,   51508] index = [    1282331403,1326562786] size =     44231383
	Batch  31 pq = [   51508,   52326] index = [    1326562786,1369031301] size =     42468515
  Task number: 124
  Buffer size: 11059200
  Buffer per thread: 2
  We computed 52383436 shell quartets total.
  Whereas there are 69401871 unique shell quartets.

  ==> DiskJK: Disk-Based J/K Matrices <==

    J tasked:                  Yes
    K tasked:                  Yes
    wK tasked:                  No
    Memory [MiB]:              375
    Schwarz Cutoff:          1E-12

    OpenMP threads:              1

  Minimum eigenvalue in the overlap matrix is 2.3932630491E-04.
  Using Symmetric Orthogonalization.

  SCF Guess: Superposition of Atomic Densities via on-the-fly atomic UHF.

  ==> Iterations <==

                        Total Energy        Delta E     RMS |[F,P]|

   @RHF iter SAD:  -669.53528463014982   -6.69535e+02   0.00000e+00
   @RHF iter   1:  -669.94915309064788   -4.13868e-01   2.14761e-03 DIIS
   @RHF iter   2:  -670.24042310041250   -2.91270e-01   9.27300e-04 DIIS
   @RHF iter   3:  -670.28821515593597   -4.77921e-02   2.51998e-04 DIIS
   @RHF iter   4:  -670.29278299680868   -4.56784e-03   1.11035e-04 DIIS
   @RHF iter   5:  -670.29349921431890   -7.16218e-04   1.63920e-05 DIIS
   @RHF iter   6:  -670.29353065569171   -3.14414e-05   7.20509e-06 DIIS
   @RHF iter   7:  -670.29353709972293   -6.44403e-06   2.90801e-06 DIIS
   @RHF iter   8:  -670.29353882299574   -1.72327e-06   1.23887e-06 DIIS
   @RHF iter   9:  -670.29353921212612   -3.89130e-07   5.47465e-07 DIIS
   @RHF iter  10:  -670.29353929040940   -7.82833e-08   2.39485e-07 DIIS
   @RHF iter  11:  -670.29353930930517   -1.88958e-08   9.01796e-08 DIIS
   @RHF iter  12:  -670.29353931163882   -2.33365e-09   3.53692e-08 DIIS
   @RHF iter  13:  -670.29353931186154   -2.22713e-10   1.02868e-08 DIIS
   @RHF iter  14:  -670.29353931188052   -1.89857e-11   4.38506e-09 DIIS
   @RHF iter  15:  -670.29353931188155   -1.02318e-12   1.83405e-09 DIIS
   @RHF iter  16:  -670.29353931188427   -2.72848e-12   8.82805e-10 DIIS
   @RHF iter  17:  -670.29353931188450   -2.27374e-13   3.99419e-10 DIIS
   @RHF iter  18:  -670.29353931188666   -2.16005e-12   1.52175e-10 DIIS
   @RHF iter  19:  -670.29353931188746   -7.95808e-13   6.14622e-11 DIIS
  Energy and wave function converged.

  ==> Post-Iterations <==

    Orbital Energies [Eh]
    ---------------------

    Doubly Occupied:

       1A    -15.601963     2A    -11.264911     3A    -11.263397
       4A    -11.238904     5A    -11.233506     6A    -11.232088
       7A    -11.231815     8A    -11.231456     9A    -11.229887
      10A    -11.228843    11A    -11.228488    12A    -11.227230
      13A    -11.227133    14A    -11.226024    15A    -11.222581
      16A    -11.222063    17A    -11.216941    18A     -1.294898
      19A     -1.148378    20A     -1.127734    21A     -1.074296
      22A     -1.041465    23A     -1.008568    24A     -0.997122
      25A     -0.987954    26A     -0.932167    27A     -0.928144
      28A     -0.840454    29A     -0.821487    30A     -0.804091
      31A     -0.792571    32A     -0.752063    33A     -0.719935
      34A     -0.687705    35A     -0.663185    36A     -0.645672
      37A     -0.629203    38A     -0.625199    39A     -0.603536
      40A     -0.592515    41A     -0.590810    42A     -0.580567
      43A     -0.575263    44A     -0.568098    45A     -0.559157
      46A     -0.553470    47A     -0.538773    48A     -0.533545
      49A     -0.525765    50A     -0.495572    51A     -0.484205
      52A     -0.481999    53A     -0.477328    54A     -0.471897
      55A     -0.461359    56A     -0.373335    57A     -0.329166
      58A     -0.317853    59A     -0.295328    60A     -0.274938

    Virtual:

      61A      0.123015    62A      0.135534    63A      0.144963
      64A      0.169429    65A      0.179977    66A      0.183038
      67A      0.191649    68A      0.200212    69A      0.213878
      70A      0.217808    71A      0.224151    72A      0.233027
      73A      0.238195    74A      0.250792    75A      0.257982
      76A      0.266669    77A      0.269912    78A      0.283357
      79A      0.294878    80A      0.296621    81A      0.310839
      82A      0.354717    83A      0.368693    84A      0.371092
      85A      0.377891    86A      0.382778    87A      0.403863
      88A      0.423275    89A      0.444119    90A      0.457740
      91A      0.461718    92A      0.474233    93A      0.476351
      94A      0.484043    95A      0.496802    96A      0.517261
      97A      0.542901    98A      0.573382    99A      0.594256
     100A      0.604301   101A      0.625270   102A      0.633666
     103A      0.641531   104A      0.649795   105A      0.663498
     106A      0.678343   107A      0.693849   108A      0.699592
     109A      0.700612   110A      0.713521   111A      0.715123
     112A      0.719624   113A      0.721707   114A      0.730793
     115A      0.737769   116A      0.742812   117A      0.743987
     118A      0.745265   119A      0.747161   120A      0.750550
     121A      0.752471   122A      0.760693   123A      0.766019
     124A      0.770806   125A      0.777013   126A      0.786822
     127A      0.790716   128A      0.794655   129A      0.817062
     130A      0.834894   131A      0.839545   132A      0.852058
     133A      0.855759   134A      0.865002   135A      0.870759
     136A      0.879204   137A      0.880425   138A      0.888175
     139A      0.894576   140A      0.899903   141A      0.906051
     142A      0.906813   143A      0.919636   144A      0.925913
     145A      0.940312   146A      0.943440   147A      0.951473
     148A      0.956067   149A      0.958861   150A      0.969790
     151A      0.974498   152A      0.993452   153A      0.997810
     154A      1.014717   155A      1.037032   156A      1.052606
     157A      1.072108   158A      1.081234   159A      1.109975
     160A      1.121345   161A      1.130843   162A      1.133456
     163A      1.141862   164A      1.151880   165A      1.156281
     166A      1.164885   167A      1.183227   168A      1.197903
     169A      1.202730   170A      1.214418   171A      1.228619
     172A      1.231491   173A      1.237359   174A      1.244918
     175A      1.248758   176A      1.258470   177A      1.263318
     178A      1.275114   179A      1.284597   180A      1.293818
     181A      1.300991   182A      1.306640   183A      1.313926
     184A      1.323400   185A      1.329006   186A      1.331757
     187A      1.355911   188A      1.364604   189A      1.379152
     190A      1.426270   191A      1.434299   192A      1.454239
     193A      1.508617   194A      1.518650   195A      1.544885
     196A      1.547964   197A      1.565222   198A      1.569712
     199A      1.602560   200A      1.616752   201A      1.625514
     202A      1.637641   203A      1.658389   204A      1.675575
     205A      1.692510   206A      1.695935   207A      1.703400
     208A      1.736731   209A      1.737834   210A      1.748827
     211A      1.752317   212A      1.758323   213A      1.760781
     214A      1.792293   215A      1.794077   216A      1.813866
     217A      1.818734   218A      1.826264   219A      1.835345
     220A      1.861545   221A      1.876295   222A      1.884921
     223A      1.887262   224A      1.892440   225A      1.895129
     226A      1.896340   227A      1.905515   228A      1.907787
     229A      1.919183   230A      1.925383   231A      1.934322
     232A      1.936775   233A      1.948892   234A      1.952104
     235A      1.965064   236A      1.973607   237A      1.983431
     238A      1.991603   239A      1.997337   240A      2.006192
     241A      2.013254   242A      2.013946   243A      2.028611
     244A      2.042644   245A      2.066322   246A      2.075114
     247A      2.077136   248A      2.078400   249A      2.088056
     250A      2.095417   251A      2.104792   252A      2.116309
     253A      2.127873   254A      2.133603   255A      2.141039
     256A      2.153023   257A      2.167473   258A      2.170418
     259A      2.177418   260A      2.189023   261A      2.189978
     262A      2.227395   263A      2.244266   264A      2.263552
     265A      2.266610   266A      2.272218   267A      2.279311
     268A      2.299258   269A      2.302686   270A      2.309761
     271A      2.318186   272A      2.329616   273A      2.343082
     274A      2.345154   275A      2.368790   276A      2.399109
     277A      2.416582   278A      2.448597   279A      2.454876
     280A      2.465758   281A      2.480709   282A      2.502351
     283A      2.539245   284A      2.548578   285A      2.589542
     286A      2.593938   287A      2.624467   288A      2.640278
     289A      2.667628   290A      2.681491   291A      2.728778
     292A      2.738009   293A      2.751008   294A      2.771276
     295A      2.771963   296A      2.781331   297A      2.783457
     298A      2.795058   299A      2.798203   300A      2.818740
     301A      2.834492   302A      2.847041   303A      2.857183
     304A      2.865018   305A      2.875479   306A      2.924006
     307A      2.973055   308A      2.983857   309A      3.022090
     310A      3.026210   311A      3.029312   312A      3.048374
     313A      3.068220   314A      3.116713   315A      3.164623
     316A      3.201136   317A      3.203747   318A      3.298719
     319A      3.309052   320A      3.378557   321A      3.738579
     322A      3.942685   323A      3.966355

    Final Occupation by Irrep:
              A
    DOCC [    60 ]

  @RHF Final Energy:  -670.29353931188746

   => Energetics <=

    Nuclear Repulsion Energy =           1002.6078059095013941
    One-Electron Energy =               -2896.7346881252315143
    Two-Electron Energy =                1223.8333429038425493
    Total Energy =                       -670.2935393118875709

Computation Completed

Properties will be evaluated at   0.000000,   0.000000,   0.000000 [a0]

Properties computed using the SCF density matrix

  Nuclear Dipole Moment: [e a0]
     X:     4.5580      Y:     0.3054      Z:    -7.2990

  Electronic Dipole Moment: [e a0]
     X:    -5.1809      Y:     0.0736      Z:     7.6710

  Dipole Moment: [e a0]
     X:    -0.6229      Y:     0.3790      Z:     0.3720     Total:     0.8185

  Dipole Moment: [D]
     X:    -1.5832      Y:     0.9633      Z:     0.9455     Total:     2.0805

*** tstop() called on ds3 at Mon Apr 27 21:21:03 2020
Module time:
	user time   =     522.73 seconds =       8.71 minutes
	system time =     225.04 seconds =       3.75 minutes
	total time  =       1189 seconds =      19.82 minutes
Total time:
	user time   =     522.73 seconds =       8.71 minutes
	system time =     225.04 seconds =       3.75 minutes
	total time  =       1189 seconds =      19.82 minutes
                                     G D M A

                                 by Anthony Stone

                           version 2.2.06, 22 June 2011

               Distributed Multipoles from Gaussian wavefunctions

Starting at 21:21:3 on 27 Apr 2020

Using SCF density matrix from file ./SSI/SSI-146PHE-164TRP-1-dimer.test.20954.fchk

                         Distributed Multipole Analysis

Standard DMA

Positions and radii in angstrom
Multipole moments in atomic units, ea_0^k for rank k

C          x =  0.772208  y = -0.660496  z = -6.217747 angstrom
           Maximum rank =  0   Radius =  0.650 angstrom
                   Q00  =  -0.202376

C          x =  0.445208  y = -1.467496  z = -2.521747 angstrom
           Maximum rank =  0   Radius =  0.650 angstrom
                   Q00  =  -0.065198

C          x =  0.575208  y = -2.855496  z = -2.523747 angstrom
           Maximum rank =  0   Radius =  0.650 angstrom
                   Q00  =  -0.094179

C          x =  0.520208  y = -0.761496  z = -3.720747 angstrom
           Maximum rank =  0   Radius =  0.650 angstrom
                   Q00  =   0.015915

C          x =  0.726208  y = -1.428496  z = -4.927747 angstrom
           Maximum rank =  0   Radius =  0.650 angstrom
                   Q00  =  -0.097310

C          x =  0.784208  y = -3.532496  z = -3.725747 angstrom
           Maximum rank =  0   Radius =  0.650 angstrom
                   Q00  =  -0.062032

C          x =  0.862208  y = -2.821496  z = -4.923747 angstrom
           Maximum rank =  0   Radius =  0.650 angstrom
                   Q00  =  -0.092696

H          x =  0.281208  y = -0.938496  z = -1.598747 angstrom
           Maximum rank =  0   Radius =  0.325 angstrom
                   Q00  =   0.060690

H          x =  0.512208  y = -3.407496  z = -1.594747 angstrom
           Maximum rank =  0   Radius =  0.325 angstrom
                   Q00  =   0.058726

H          x =  0.401208  y =  0.310504  z = -3.720747 angstrom
           Maximum rank =  0   Radius =  0.325 angstrom
                   Q00  =   0.057067

H          x =  0.887208  y = -4.608496  z = -3.727747 angstrom
           Maximum rank =  0   Radius =  0.325 angstrom
                   Q00  =   0.064459

H          x =  1.819208  y = -0.569496  z = -6.510747 angstrom
           Maximum rank =  0   Radius =  0.325 angstrom
                   Q00  =   0.102815

H          x =  0.372208  y =  0.339504  z = -6.049747 angstrom
           Maximum rank =  0   Radius =  0.325 angstrom
                   Q00  =   0.097366

H          x =  1.058208  y = -3.372496  z = -5.829747 angstrom
           Maximum rank =  0   Radius =  0.325 angstrom
                   Q00  =   0.055824

H          x =  0.206898  y = -1.138776  z = -7.031187 angstrom
           Maximum rank =  0   Radius =  0.325 angstrom
                   Q00  =   0.100524

C          x =  1.297208  y =  2.786504  z =  4.786253 angstrom
           Maximum rank =  0   Radius =  0.650 angstrom
                   Q00  =  -0.218986

C          x = -1.406792  y =  1.196504  z =  2.725253 angstrom
           Maximum rank =  0   Radius =  0.650 angstrom
                   Q00  =   0.297925

C          x = -0.027792  y =  1.430504  z =  2.981253 angstrom
           Maximum rank =  0   Radius =  0.650 angstrom
                   Q00  =  -0.049888

C          x =  0.053208  y =  2.303504  z =  4.122253 angstrom
           Maximum rank =  0   Radius =  0.650 angstrom
                   Q00  =  -0.117457

C          x = -1.226792  y =  2.561504  z =  4.499253 angstrom
           Maximum rank =  0   Radius =  0.650 angstrom
                   Q00  =   0.073012

C          x = -0.885792  y = -0.205496  z =  0.877253 angstrom
           Maximum rank =  0   Radius =  0.650 angstrom
                   Q00  =  -0.077273

C          x = -1.845792  y =  0.385504  z =  1.682253 angstrom
           Maximum rank =  0   Radius =  0.650 angstrom
                   Q00  =  -0.112426

C          x =  0.483208  y =  0.004504  z =  1.105253 angstrom
           Maximum rank =  0   Radius =  0.650 angstrom
                   Q00  =  -0.099873

C          x =  0.922208  y =  0.816504  z =  2.152253 angstrom
           Maximum rank =  0   Radius =  0.650 angstrom
                   Q00  =  -0.093990

N          x = -2.104792  y =  1.902504  z =  3.670253 angstrom
           Maximum rank =  0   Radius =  0.650 angstrom
                   Q00  =  -0.498182

H          x = -1.202792  y = -0.831496  z =  0.054253 angstrom
           Maximum rank =  0   Radius =  0.325 angstrom
                   Q00  =   0.063645

H          x = -2.900792  y =  0.221504  z =  1.512253 angstrom
           Maximum rank =  0   Radius =  0.325 angstrom
                   Q00  =   0.074563

H          x =  1.211208  y = -0.481496  z =  0.471253 angstrom
           Maximum rank =  0   Radius =  0.325 angstrom
                   Q00  =   0.059632

H          x =  1.977208  y =  0.947504  z =  2.341253 angstrom
           Maximum rank =  0   Radius =  0.325 angstrom
                   Q00  =   0.072293

H          x = -3.113792  y =  1.927504  z =  3.772253 angstrom
           Maximum rank =  0   Radius =  0.325 angstrom
                   Q00  =   0.216231

H          x = -1.513792  y =  3.184504  z =  5.341253 angstrom
           Maximum rank =  0   Radius =  0.325 angstrom
                   Q00  =   0.099298

H          x =  1.208208  y =  3.853504  z =  4.994253 angstrom
           Maximum rank =  0   Radius =  0.325 angstrom
                   Q00  =   0.104625

H          x =  2.125208  y =  2.655504  z =  4.089253 angstrom
           Maximum rank =  0   Radius =  0.325 angstrom
                   Q00  =   0.105981

H          x =  1.526518  y =  2.239904  z =  5.712883 angstrom
           Maximum rank =  0   Radius =  0.325 angstrom
                   Q00  =   0.101277

Total multipoles referred to origin at
           x =   0.000000,  y =    0.000000,  z =    0.000000 angstrom
                   Q00  =  -0.000000

Finished at 21:21:3 on 27 Apr 2020

  DMA results are available in the Python driver through the
	  variable('DMA DISTRIBUTED MULTIPOLES')
  and
	  variable('DMA TOTAL MULTIPOLES')
  commands.

    Psi4 stopped on: Monday, 27 April 2020 09:21PM
    Psi4 wall time for execution: 0:19:49.33

*** Psi4 exiting successfully. Buy a developer a beer!
