                               Psi4 1.3.2 release

  ==> Input File <==

--------------------------------------------------------------------------
import numpy as np
set {scf_type pk
basis cc-pvdz
d_convergence 10
gdma_switch   0
gdma_limit    0
gdma_origin   [ 0.0,  0.0,  0.0 ]
}
molecule test {
    units Angstrom
    0 1
    --
    0 1
    C                2.424450662139336     0.341957363730320     1.954914586138332
    C               -1.226549337860663    -0.048042636269680     1.020914586138332
    C               -1.177549337860663    -1.010042636269680     0.024914586138332
    C               -0.061549337860663     0.369957363730320     1.654914586138332
    C                1.166450662139337    -0.167042636269680     1.286914586138332
    C                0.033450662139337    -1.599042636269680    -0.312085413861668
    C                1.189450662139337    -1.177042636269680     0.317914586138332
    O               -2.350549337860663    -1.369042636269680    -0.580085413861668
    H               -2.181549337860663     0.342957363730320     1.328914586138332
    H               -0.119549337860663     1.104957363730320     2.443914586138332
    H                0.074450662139337    -2.382042636269680    -1.053085413861668
    H               -2.141549337860664    -1.893042636269680    -1.375085413861668
    H                2.893450662139337    -0.484042636269680     2.489914586138331
    H                2.141450662139337     1.086957363730320     2.699914586138331
    H                2.123450662139337    -1.653042636269680     0.063914586138332
    H                3.158455662139337     0.799727363730320     1.275444586138332
    C               -0.241549337860663     2.143957363730319    -1.658085413861668
    C                0.472450662139337     2.148957363730319    -3.003085413861668
    H               -0.684549337860663     3.119957363730320    -1.456085413861668
    H               -1.019549337860663     1.386957363730320    -1.672085413861668
    H                0.460450662139336     1.889957363730320    -0.862085413861668
    H               -0.169549337860663     2.647957363730319    -3.727085413861669
    H                1.425357662139337     2.693577363730320    -2.929895413861668
    H                0.635775662139337     1.116977363730320    -3.347075413861669

}
e, wfn = energy('scf', return_wfn=True)
gdma(wfn)
dmavals = variable('DMA DISTRIBUTED MULTIPOLES')
charges = np.array(dmavals)
print(charges)
np.save('SSI-094TYR-153VAL-1-dimer.npy', np.array(charges))--------------------------------------------------------------------------

*** tstart() called on ds3
*** at Mon Apr 27 14:01:26 2020

   => Loading Basis Set <=

    Name: CC-PVDZ
    Role: ORBITAL
    Keyword: BASIS
    atoms 1-7, 17-18  entry C          line   138 file /theoryfs2/ds/metcalf/miniconda2/envs/tf2gpu/share/psi4/basis/cc-pvdz.gbs
    atoms 8           entry O          line   198 file /theoryfs2/ds/metcalf/miniconda2/envs/tf2gpu/share/psi4/basis/cc-pvdz.gbs
    atoms 9-16, 19-24 entry H          line    22 file /theoryfs2/ds/metcalf/miniconda2/envs/tf2gpu/share/psi4/basis/cc-pvdz.gbs

         ---------------------------------------------------------
                                   SCF
               by Justin Turney, Rob Parrish, Andy Simmonett
                          and Daniel G. A. Smith
                              RHF Reference
                        1 Threads,    500 MiB Core
         ---------------------------------------------------------

  ==> Geometry <==

    Molecular point group: c1
    Full point group: C1

    Geometry (in Angstrom), charge = 0, multiplicity = 1:

       Center              X                  Y                   Z               Mass
    ------------   -----------------  -----------------  -----------------  -----------------
         C            2.424450662139     0.341957363730     1.954914586138    12.000000000000
         C           -1.226549337861    -0.048042636270     1.020914586138    12.000000000000
         C           -1.177549337861    -1.010042636270     0.024914586138    12.000000000000
         C           -0.061549337861     0.369957363730     1.654914586138    12.000000000000
         C            1.166450662139    -0.167042636270     1.286914586138    12.000000000000
         C            0.033450662139    -1.599042636270    -0.312085413862    12.000000000000
         C            1.189450662139    -1.177042636270     0.317914586138    12.000000000000
         O           -2.350549337861    -1.369042636270    -0.580085413862    15.994914619570
         H           -2.181549337861     0.342957363730     1.328914586138     1.007825032230
         H           -0.119549337861     1.104957363730     2.443914586138     1.007825032230
         H            0.074450662139    -2.382042636270    -1.053085413862     1.007825032230
         H           -2.141549337861    -1.893042636270    -1.375085413862     1.007825032230
         H            2.893450662139    -0.484042636270     2.489914586138     1.007825032230
         H            2.141450662139     1.086957363730     2.699914586138     1.007825032230
         H            2.123450662139    -1.653042636270     0.063914586138     1.007825032230
         H            3.158455662139     0.799727363730     1.275444586138     1.007825032230
         C           -0.241549337861     2.143957363730    -1.658085413862    12.000000000000
         C            0.472450662139     2.148957363730    -3.003085413862    12.000000000000
         H           -0.684549337861     3.119957363730    -1.456085413862     1.007825032230
         H           -1.019549337861     1.386957363730    -1.672085413862     1.007825032230
         H            0.460450662139     1.889957363730    -0.862085413862     1.007825032230
         H           -0.169549337861     2.647957363730    -3.727085413862     1.007825032230
         H            1.425357662139     2.693577363730    -2.929895413862     1.007825032230
         H            0.635775662139     1.116977363730    -3.347075413862     1.007825032230

  Running in c1 symmetry.

  Rotational constants: A =      0.03913  B =      0.03245  C =      0.02264 [cm^-1]
  Rotational constants: A =   1173.03591  B =    972.86093  C =    678.72035 [MHz]
  Nuclear repulsion =  508.619116643276016

  Charge       = 0
  Multiplicity = 1
  Electrons    = 76
  Nalpha       = 38
  Nbeta        = 38

  ==> Algorithm <==

  SCF Algorithm Type is PK.
  DIIS enabled.
  MOM disabled.
  Fractional occupation disabled.
  Guess Type is SAD.
  Energy threshold   = 1.00e-06
  Density threshold  = 1.00e-10
  Integral threshold = 0.00e+00

  ==> Primary Basis <==

  Basis Set: CC-PVDZ
    Blend: CC-PVDZ
    Number of shells: 102
    Number of basis function: 210
    Number of Cartesian functions: 220
    Spherical Harmonics?: true
    Max angular momentum: 2

  ==> Pre-Iterations <==

   -------------------------------------------------------
    Irrep   Nso     Nmo     Nalpha   Nbeta   Ndocc  Nsocc
   -------------------------------------------------------
     A        210     210       0       0       0       0
   -------------------------------------------------------
    Total     210     210      38      38      38       0
   -------------------------------------------------------

  ==> Integral Setup <==

  Using integral reordering PK algorithm.
  Sizing the integral batches needed.
  Building batch lookup table.
   Calculation information:
      Number of atoms:                  24
      Number of AO shells:             102
      Number of primitives:            290
      Number of atomic orbitals:       220
      Number of basis functions:       210

      Integral cutoff                 1.00e-12
      Number of threads:                 1

	Batch   1 pq = [       0,    9405] index = [             0,44231715] size =     44231715
	Batch   2 pq = [    9405,   13301] index = [      44231715,88464951] size =     44233236
	Batch   3 pq = [   13301,   16290] index = [      88464951,132690195] size =     44225244
	Batch   4 pq = [   16290,   18810] index = [     132690195,176917455] size =     44227260
	Batch   5 pq = [   18810,   21030] index = [     176917455,221140965] size =     44223510
	Batch   6 pq = [   21030,   22155] index = [     221140965,245433090] size =     24292125
  Task number: 23
  Buffer size: 11059200
  Buffer per thread: 2
  We computed 13196094 shell quartets total.
  Whereas there are 13799631 unique shell quartets.

  ==> DiskJK: Disk-Based J/K Matrices <==

    J tasked:                  Yes
    K tasked:                  Yes
    wK tasked:                  No
    Memory [MiB]:              375
    Schwarz Cutoff:          1E-12

    OpenMP threads:              1

  Minimum eigenvalue in the overlap matrix is 3.1505070516E-04.
  Using Symmetric Orthogonalization.

  SCF Guess: Superposition of Atomic Densities via on-the-fly atomic UHF.

  ==> Iterations <==

                        Total Energy        Delta E     RMS |[F,P]|

   @RHF iter SAD:  -422.72495398589291   -4.22725e+02   0.00000e+00
   @RHF iter   1:  -423.59688026566124   -8.71926e-01   2.99552e-03 DIIS
   @RHF iter   2:  -423.81524178047852   -2.18362e-01   1.26830e-03 DIIS
   @RHF iter   3:  -423.85058169207934   -3.53399e-02   2.82391e-04 DIIS
   @RHF iter   4:  -423.85343414351121   -2.85245e-03   1.16341e-04 DIIS
   @RHF iter   5:  -423.85377980991399   -3.45666e-04   2.11698e-05 DIIS
   @RHF iter   6:  -423.85379775046107   -1.79405e-05   6.46127e-06 DIIS
   @RHF iter   7:  -423.85379939814248   -1.64768e-06   2.04617e-06 DIIS
   @RHF iter   8:  -423.85379960062482   -2.02482e-07   7.48670e-07 DIIS
   @RHF iter   9:  -423.85379962942011   -2.87953e-08   2.70107e-07 DIIS
   @RHF iter  10:  -423.85379963376761   -4.34750e-09   1.03923e-07 DIIS
   @RHF iter  11:  -423.85379963486878   -1.10117e-09   4.76831e-08 DIIS
   @RHF iter  12:  -423.85379963514004   -2.71257e-10   2.58197e-08 DIIS
   @RHF iter  13:  -423.85379963520654   -6.65068e-11   8.24769e-09 DIIS
   @RHF iter  14:  -423.85379963521279   -6.25278e-12   2.25064e-09 DIIS
   @RHF iter  15:  -423.85379963521621   -3.41061e-12   7.04506e-10 DIIS
   @RHF iter  16:  -423.85379963521444    1.76215e-12   2.13341e-10 DIIS
   @RHF iter  17:  -423.85379963521291    1.53477e-12   7.95767e-11 DIIS
  Energy and wave function converged.

  ==> Post-Iterations <==

    Orbital Energies [Eh]
    ---------------------

    Doubly Occupied:

       1A    -20.586140     2A    -11.296946     3A    -11.239604
       4A    -11.236581     5A    -11.234768     6A    -11.234612
       7A    -11.229223     8A    -11.226517     9A    -11.211164
      10A    -11.203118    11A     -1.398075    12A     -1.153315
      13A     -1.037829    14A     -1.020442    15A     -1.010480
      16A     -0.926376    17A     -0.845454    18A     -0.826240
      19A     -0.801103    20A     -0.728920    21A     -0.669175
      22A     -0.641217    23A     -0.609952    24A     -0.595053
      25A     -0.590092    26A     -0.588365    27A     -0.584354
      28A     -0.570285    29A     -0.565852    30A     -0.526696
      31A     -0.501074    32A     -0.492070    33A     -0.484814
      34A     -0.479371    35A     -0.476110    36A     -0.462017
      37A     -0.340599    38A     -0.302870

    Virtual:

      39A      0.130602    40A      0.154652    41A      0.170915
      42A      0.181742    43A      0.201162    44A      0.214302
      45A      0.217830    46A      0.245876    47A      0.253934
      48A      0.259835    49A      0.269774    50A      0.270840
      51A      0.277792    52A      0.294516    53A      0.308523
      54A      0.324562    55A      0.369110    56A      0.373354
      57A      0.404622    58A      0.430104    59A      0.453932
      60A      0.489336    61A      0.495324    62A      0.514130
      63A      0.581452    64A      0.588254    65A      0.605193
      66A      0.620712    67A      0.636224    68A      0.648718
      69A      0.654038    70A      0.663903    71A      0.688287
      72A      0.697212    73A      0.710589    74A      0.731035
      75A      0.738876    76A      0.754079    77A      0.763894
      78A      0.774512    79A      0.794062    80A      0.799859
      81A      0.816274    82A      0.833048    83A      0.840661
      84A      0.871639    85A      0.879390    86A      0.886731
      87A      0.894233    88A      0.899325    89A      0.902265
      90A      0.904758    91A      0.913433    92A      0.922954
      93A      0.927751    94A      0.934386    95A      0.935943
      96A      0.943414    97A      0.947266    98A      0.990409
      99A      1.010314   100A      1.019928   101A      1.038848
     102A      1.085592   103A      1.124897   104A      1.129876
     105A      1.133909   106A      1.142188   107A      1.175928
     108A      1.178151   109A      1.207949   110A      1.229484
     111A      1.240382   112A      1.263348   113A      1.278197
     114A      1.289202   115A      1.297302   116A      1.310246
     117A      1.315749   118A      1.358676   119A      1.375303
     120A      1.385466   121A      1.470756   122A      1.485286
     123A      1.499338   124A      1.510296   125A      1.522095
     126A      1.553152   127A      1.595059   128A      1.611734
     129A      1.626014   130A      1.675878   131A      1.684974
     132A      1.688387   133A      1.719831   134A      1.733289
     135A      1.746225   136A      1.780526   137A      1.802058
     138A      1.819146   139A      1.869002   140A      1.875991
     141A      1.883153   142A      1.885223   143A      1.897895
     144A      1.899360   145A      1.917614   146A      1.924105
     147A      1.930499   148A      1.941918   149A      1.948622
     150A      1.954806   151A      1.963681   152A      1.966549
     153A      1.972611   154A      1.990018   155A      2.001994
     156A      2.010745   157A      2.032849   158A      2.052304
     159A      2.071127   160A      2.079971   161A      2.092157
     162A      2.120303   163A      2.139588   164A      2.154908
     165A      2.161952   166A      2.199992   167A      2.205307
     168A      2.219723   169A      2.255393   170A      2.274071
     171A      2.304592   172A      2.311764   173A      2.324892
     174A      2.360499   175A      2.376041   176A      2.400807
     177A      2.432001   178A      2.454798   179A      2.467813
     180A      2.475718   181A      2.512553   182A      2.533836
     183A      2.559082   184A      2.592312   185A      2.606667
     186A      2.615679   187A      2.640078   188A      2.742862
     189A      2.769307   190A      2.773613   191A      2.796038
     192A      2.806808   193A      2.815512   194A      2.848749
     195A      2.852591   196A      2.858923   197A      2.903026
     198A      2.951535   199A      2.963797   200A      3.007537
     201A      3.025201   202A      3.093430   203A      3.129438
     204A      3.267473   205A      3.291112   206A      3.336743
     207A      3.579094   208A      3.692674   209A      3.943343
     210A      4.176231

    Final Occupation by Irrep:
              A
    DOCC [    38 ]

  @RHF Final Energy:  -423.85379963521291

   => Energetics <=

    Nuclear Repulsion Energy =            508.6191166432760156
    One-Electron Energy =               -1583.0920827322406694
    Two-Electron Energy =                 650.6191664537518591
    Total Energy =                       -423.8537996352129085

Computation Completed

Properties will be evaluated at   0.000000,   0.000000,   0.000000 [a0]

Properties computed using the SCF density matrix

  Nuclear Dipole Moment: [e a0]
     X:     6.1728      Y:     9.1598      Z:    -5.7405

  Electronic Dipole Moment: [e a0]
     X:    -5.7219      Y:    -9.4271      Z:     5.5446

  Dipole Moment: [e a0]
     X:     0.4509      Y:    -0.2673      Z:    -0.1960     Total:     0.5596

  Dipole Moment: [D]
     X:     1.1461      Y:    -0.6793      Z:    -0.4981     Total:     1.4224

*** tstop() called on ds3 at Mon Apr 27 14:03:40 2020
Module time:
	user time   =      99.67 seconds =       1.66 minutes
	system time =      37.64 seconds =       0.63 minutes
	total time  =        134 seconds =       2.23 minutes
Total time:
	user time   =      99.67 seconds =       1.66 minutes
	system time =      37.64 seconds =       0.63 minutes
	total time  =        134 seconds =       2.23 minutes
                                     G D M A

                                 by Anthony Stone

                           version 2.2.06, 22 June 2011

               Distributed Multipoles from Gaussian wavefunctions

Starting at 14:3:40 on 27 Apr 2020

Using SCF density matrix from file ./SSI/SSI-094TYR-153VAL-1-dimer.test.8556.fchk

                         Distributed Multipole Analysis

Standard DMA

Positions and radii in angstrom
Multipole moments in atomic units, ea_0^k for rank k

C          x =  2.424451  y =  0.341957  z =  1.954915 angstrom
           Maximum rank =  0   Radius =  0.650 angstrom
                   Q00  =  -0.204748

C          x = -1.226549  y = -0.048043  z =  1.020915 angstrom
           Maximum rank =  0   Radius =  0.650 angstrom
                   Q00  =  -0.085141

C          x = -1.177549  y = -1.010043  z =  0.024915 angstrom
           Maximum rank =  0   Radius =  0.650 angstrom
                   Q00  =   0.311086

C          x = -0.061549  y =  0.369957  z =  1.654915 angstrom
           Maximum rank =  0   Radius =  0.650 angstrom
                   Q00  =  -0.053196

C          x =  1.166451  y = -0.167043  z =  1.286915 angstrom
           Maximum rank =  0   Radius =  0.650 angstrom
                   Q00  =  -0.138633

C          x =  0.033451  y = -1.599043  z = -0.312085 angstrom
           Maximum rank =  0   Radius =  0.650 angstrom
                   Q00  =  -0.188684

C          x =  1.189451  y = -1.177043  z =  0.317915 angstrom
           Maximum rank =  0   Radius =  0.650 angstrom
                   Q00  =   0.051380

O          x = -2.350549  y = -1.369043  z = -0.580085 angstrom
           Maximum rank =  0   Radius =  0.650 angstrom
                   Q00  =  -0.665009

H          x = -2.181549  y =  0.342957  z =  1.328915 angstrom
           Maximum rank =  0   Radius =  0.325 angstrom
                   Q00  =   0.079353

H          x = -0.119549  y =  1.104957  z =  2.443915 angstrom
           Maximum rank =  0   Radius =  0.325 angstrom
                   Q00  =   0.064714

H          x =  0.074451  y = -2.382043  z = -1.053085 angstrom
           Maximum rank =  0   Radius =  0.325 angstrom
                   Q00  =   0.073167

H          x = -2.141549  y = -1.893043  z = -1.375085 angstrom
           Maximum rank =  0   Radius =  0.325 angstrom
                   Q00  =   0.404753

H          x =  2.893451  y = -0.484043  z =  2.489915 angstrom
           Maximum rank =  0   Radius =  0.325 angstrom
                   Q00  =   0.097943

H          x =  2.141451  y =  1.086957  z =  2.699915 angstrom
           Maximum rank =  0   Radius =  0.325 angstrom
                   Q00  =   0.095159

H          x =  2.123451  y = -1.653043  z =  0.063915 angstrom
           Maximum rank =  0   Radius =  0.325 angstrom
                   Q00  =   0.066579

H          x =  3.158456  y =  0.799727  z =  1.275445 angstrom
           Maximum rank =  0   Radius =  0.325 angstrom
                   Q00  =   0.099920

C          x = -0.241549  y =  2.143957  z = -1.658085 angstrom
           Maximum rank =  0   Radius =  0.650 angstrom
                   Q00  =  -0.235480

C          x =  0.472451  y =  2.148957  z = -3.003085 angstrom
           Maximum rank =  0   Radius =  0.650 angstrom
                   Q00  =  -0.223637

H          x = -0.684549  y =  3.119957  z = -1.456085 angstrom
           Maximum rank =  0   Radius =  0.325 angstrom
                   Q00  =   0.070902

H          x = -1.019549  y =  1.386957  z = -1.672085 angstrom
           Maximum rank =  0   Radius =  0.325 angstrom
                   Q00  =   0.075825

H          x =  0.460451  y =  1.889957  z = -0.862085 angstrom
           Maximum rank =  0   Radius =  0.325 angstrom
                   Q00  =   0.083847

H          x = -0.169549  y =  2.647957  z = -3.727085 angstrom
           Maximum rank =  0   Radius =  0.325 angstrom
                   Q00  =   0.072807

H          x =  1.425358  y =  2.693577  z = -2.929895 angstrom
           Maximum rank =  0   Radius =  0.325 angstrom
                   Q00  =   0.075091

H          x =  0.635776  y =  1.116977  z = -3.347075 angstrom
           Maximum rank =  0   Radius =  0.325 angstrom
                   Q00  =   0.072002

Total multipoles referred to origin at
           x =   0.000000,  y =    0.000000,  z =    0.000000 angstrom
                   Q00  =  -0.000000

Finished at 14:3:40 on 27 Apr 2020

  DMA results are available in the Python driver through the
	  variable('DMA DISTRIBUTED MULTIPOLES')
  and
	  variable('DMA TOTAL MULTIPOLES')
  commands.

    Psi4 stopped on: Monday, 27 April 2020 02:03PM
    Psi4 wall time for execution: 0:02:14.26

*** Psi4 exiting successfully. Buy a developer a beer!
