                               Psi4 1.3.2 release

  ==> Input File <==

--------------------------------------------------------------------------
import numpy as np
set {scf_type pk
basis cc-pvdz
d_convergence 10
gdma_switch   0
gdma_limit    0
gdma_origin   [ 0.0,  0.0,  0.0 ]
}
molecule test {
    units Angstrom
    -1 1
    --
    -1 1
    C               -1.537019338438866     0.078382987253034    -0.206745540259571
    C               -1.556019338438865    -1.449617012746966    -0.219745540259571
    C               -0.705019338438866     0.629382987253034     0.932254459740429
    O               -1.261019338438866     1.374382987253034     1.768254459740429
    O                0.507980661561134     0.323382987253034     0.982254459740429
    H               -1.126019338438866     0.462382987253034    -1.137745540259571
    H               -2.565019338438866     0.441382987253034    -0.122745540259571
    H               -2.245019338438866    -1.790617012746966     0.551254459740429
    H               -0.567019338438866    -1.841617012746966     0.013254459740429
    H               -1.863969338438866    -1.858540012746966    -1.193370540259571
    C                2.762980661561134    -0.631617012746966    -1.481745540259571
    O                1.399980661561134    -0.238617012746966    -1.582745540259571
    H                1.105980661561135    -0.044617012746966    -0.667745540259571
    H                3.215980661561135    -0.119617012746966    -0.632745540259571
    H                2.805385661561134    -1.719781012746966    -1.326498540259571
    H                3.296749661561134    -0.333081012746966    -2.396057540259572

}
e, wfn = energy('scf', return_wfn=True)
gdma(wfn)
dmavals = variable('DMA DISTRIBUTED MULTIPOLES')
charges = np.array(dmavals)
print(charges)
np.save('SSI-012GLU-019THR-1-dimer.npy', np.array(charges))--------------------------------------------------------------------------

*** tstart() called on ds3
*** at Tue Apr 28 09:37:58 2020

   => Loading Basis Set <=

    Name: CC-PVDZ
    Role: ORBITAL
    Keyword: BASIS
    atoms 1-3, 11     entry C          line   138 file /theoryfs2/ds/metcalf/miniconda2/envs/tf2gpu/share/psi4/basis/cc-pvdz.gbs
    atoms 4-5, 12     entry O          line   198 file /theoryfs2/ds/metcalf/miniconda2/envs/tf2gpu/share/psi4/basis/cc-pvdz.gbs
    atoms 6-10, 13-16 entry H          line    22 file /theoryfs2/ds/metcalf/miniconda2/envs/tf2gpu/share/psi4/basis/cc-pvdz.gbs

         ---------------------------------------------------------
                                   SCF
               by Justin Turney, Rob Parrish, Andy Simmonett
                          and Daniel G. A. Smith
                              RHF Reference
                        1 Threads,    500 MiB Core
         ---------------------------------------------------------

  ==> Geometry <==

    Molecular point group: c1
    Full point group: C1

    Geometry (in Angstrom), charge = -1, multiplicity = 1:

       Center              X                  Y                   Z               Mass
    ------------   -----------------  -----------------  -----------------  -----------------
         C           -1.537019338439     0.078382987253    -0.206745540260    12.000000000000
         C           -1.556019338439    -1.449617012747    -0.219745540260    12.000000000000
         C           -0.705019338439     0.629382987253     0.932254459740    12.000000000000
         O           -1.261019338439     1.374382987253     1.768254459740    15.994914619570
         O            0.507980661561     0.323382987253     0.982254459740    15.994914619570
         H           -1.126019338439     0.462382987253    -1.137745540260     1.007825032230
         H           -2.565019338439     0.441382987253    -0.122745540260     1.007825032230
         H           -2.245019338439    -1.790617012747     0.551254459740     1.007825032230
         H           -0.567019338439    -1.841617012747     0.013254459740     1.007825032230
         H           -1.863969338439    -1.858540012747    -1.193370540260     1.007825032230
         C            2.762980661561    -0.631617012747    -1.481745540260    12.000000000000
         O            1.399980661561    -0.238617012747    -1.582745540260    15.994914619570
         H            1.105980661561    -0.044617012747    -0.667745540260     1.007825032230
         H            3.215980661561    -0.119617012747    -0.632745540260     1.007825032230
         H            2.805385661561    -1.719781012747    -1.326498540260     1.007825032230
         H            3.296749661561    -0.333081012747    -2.396057540260     1.007825032230

  Running in c1 symmetry.

  Rotational constants: A =      0.12184  B =      0.04382  C =      0.03544 [cm^-1]
  Rotational constants: A =   3652.58913  B =   1313.65747  C =   1062.43089 [MHz]
  Nuclear repulsion =  306.788690688868371

  Charge       = -1
  Multiplicity = 1
  Electrons    = 58
  Nalpha       = 29
  Nbeta        = 29

  ==> Algorithm <==

  SCF Algorithm Type is PK.
  DIIS enabled.
  MOM disabled.
  Fractional occupation disabled.
  Guess Type is SAD.
  Energy threshold   = 1.00e-06
  Density threshold  = 1.00e-10
  Integral threshold = 0.00e+00

  ==> Primary Basis <==

  Basis Set: CC-PVDZ
    Blend: CC-PVDZ
    Number of shells: 69
    Number of basis function: 143
    Number of Cartesian functions: 150
    Spherical Harmonics?: true
    Max angular momentum: 2

  ==> Pre-Iterations <==

   -------------------------------------------------------
    Irrep   Nso     Nmo     Nalpha   Nbeta   Ndocc  Nsocc
   -------------------------------------------------------
     A        143     143       0       0       0       0
   -------------------------------------------------------
    Total     143     143      29      29      29       0
   -------------------------------------------------------

  ==> Integral Setup <==

  Using integral reordering PK algorithm.
  Sizing the integral batches needed.
  Building batch lookup table.
   Calculation information:
      Number of atoms:                  16
      Number of AO shells:              69
      Number of primitives:            199
      Number of atomic orbitals:       150
      Number of basis functions:       143

      Integral cutoff                 1.00e-12
      Number of threads:                 1

	Batch   1 pq = [       0,    9405] index = [             0,44231715] size =     44231715
	Batch   2 pq = [    9405,   10296] index = [      44231715,53008956] size =      8777241
  Task number: 5
  Buffer size: 11059200
  Buffer per thread: 2
  We computed 2645518 shell quartets total.
  Whereas there are 2917320 unique shell quartets.

  ==> DiskJK: Disk-Based J/K Matrices <==

    J tasked:                  Yes
    K tasked:                  Yes
    wK tasked:                  No
    Memory [MiB]:              375
    Schwarz Cutoff:          1E-12

    OpenMP threads:              1

  Minimum eigenvalue in the overlap matrix is 4.3346771735E-03.
  Using Symmetric Orthogonalization.

  SCF Guess: Superposition of Atomic Densities via on-the-fly atomic UHF.

  ==> Iterations <==

                        Total Energy        Delta E     RMS |[F,P]|

   @RHF iter SAD:  -379.69854967740667   -3.79699e+02   0.00000e+00
   @RHF iter   1:  -381.09586519278844   -1.39732e+00   5.09919e-03 DIIS
   @RHF iter   2:  -381.28780780114630   -1.91943e-01   2.85062e-03 DIIS
   @RHF iter   3:  -381.34702758529426   -5.92198e-02   4.18316e-04 DIIS
   @RHF iter   4:  -381.34947436299063   -2.44678e-03   1.61350e-04 DIIS
   @RHF iter   5:  -381.34981031067321   -3.35948e-04   3.30394e-05 DIIS
   @RHF iter   6:  -381.34982657478861   -1.62641e-05   1.42727e-05 DIIS
   @RHF iter   7:  -381.34982894895955   -2.37417e-06   3.45132e-06 DIIS
   @RHF iter   8:  -381.34982925436441   -3.05405e-07   1.63129e-06 DIIS
   @RHF iter   9:  -381.34982930505407   -5.06897e-08   6.56459e-07 DIIS
   @RHF iter  10:  -381.34982931783821   -1.27841e-08   2.26830e-07 DIIS
   @RHF iter  11:  -381.34982931924236   -1.40415e-09   7.24673e-08 DIIS
   @RHF iter  12:  -381.34982931937702   -1.34662e-10   2.17635e-08 DIIS
   @RHF iter  13:  -381.34982931939044   -1.34150e-11   5.05392e-09 DIIS
   @RHF iter  14:  -381.34982931939186   -1.42109e-12   1.32374e-09 DIIS
   @RHF iter  15:  -381.34982931938941    2.44427e-12   4.22095e-10 DIIS
   @RHF iter  16:  -381.34982931939334   -3.92220e-12   1.79384e-10 DIIS
   @RHF iter  17:  -381.34982931939305    2.84217e-13   6.41237e-11 DIIS
  Energy and wave function converged.

  ==> Post-Iterations <==

    Orbital Energies [Eh]
    ---------------------

    Doubly Occupied:

       1A    -20.377981     2A    -20.288549     3A    -20.275518
       4A    -11.140430     5A    -11.130889     6A    -11.076284
       7A    -11.054663     8A     -1.184120     9A     -1.170067
      10A     -1.058874    11A     -0.876881    12A     -0.776200
      13A     -0.709684    14A     -0.535242    15A     -0.516288
      16A     -0.475211    17A     -0.463140    18A     -0.445650
      19A     -0.431272    20A     -0.402740    21A     -0.382721
      22A     -0.366554    23A     -0.345240    24A     -0.330532
      25A     -0.311742    26A     -0.284922    27A     -0.203897
      28A     -0.189765    29A     -0.183982

    Virtual:

      30A      0.315264    31A      0.333363    32A      0.373106
      33A      0.380203    34A      0.387590    35A      0.397446
      36A      0.421114    37A      0.429259    38A      0.461096
      39A      0.474537    40A      0.547343    41A      0.577963
      42A      0.622149    43A      0.680851    44A      0.732496
      45A      0.758755    46A      0.774206    47A      0.775803
      48A      0.808597    49A      0.832995    50A      0.880563
      51A      0.942894    52A      0.974954    53A      0.981398
      54A      0.991229    55A      1.001454    56A      1.004969
      57A      1.009416    58A      1.032397    59A      1.036100
      60A      1.048256    61A      1.072137    62A      1.086532
      63A      1.096759    64A      1.102872    65A      1.130401
      66A      1.228702    67A      1.269762    68A      1.295742
      69A      1.298577    70A      1.308200    71A      1.367550
      72A      1.398567    73A      1.475422    74A      1.498949
      75A      1.533052    76A      1.538667    77A      1.549178
      78A      1.603463    79A      1.613266    80A      1.643689
      81A      1.671573    82A      1.701197    83A      1.718329
      84A      1.792287    85A      1.795582    86A      1.814208
      87A      1.836511    88A      1.859168    89A      1.888409
      90A      1.952110    91A      1.978106    92A      2.023979
      93A      2.038013    94A      2.053498    95A      2.065894
      96A      2.070380    97A      2.090484    98A      2.105467
      99A      2.127048   100A      2.133657   101A      2.149043
     102A      2.193854   103A      2.206615   104A      2.242313
     105A      2.268553   106A      2.304709   107A      2.364593
     108A      2.379969   109A      2.430251   110A      2.454712
     111A      2.486071   112A      2.531627   113A      2.553664
     114A      2.555565   115A      2.588953   116A      2.655296
     117A      2.705256   118A      2.738081   119A      2.778608
     120A      2.863390   121A      2.890729   122A      2.900901
     123A      2.915022   124A      2.937605   125A      2.998627
     126A      3.003233   127A      3.053562   128A      3.137722
     129A      3.242690   130A      3.268774   131A      3.317835
     132A      3.397045   133A      3.480845   134A      3.540853
     135A      3.612491   136A      3.619404   137A      3.750364
     138A      3.779497   139A      3.813886   140A      4.038516
     141A      4.095103   142A      4.183722   143A      4.309261

    Final Occupation by Irrep:
              A
    DOCC [    29 ]

  @RHF Final Energy:  -381.34982931939305

   => Energetics <=

    Nuclear Repulsion Energy =            306.7886906888683711
    One-Electron Energy =               -1142.2989627212677988
    Two-Electron Energy =                 454.1604427130063186
    Total Energy =                       -381.3498293193930522

Computation Completed

Properties will be evaluated at   0.000000,   0.000000,   0.000000 [a0]

Properties computed using the SCF density matrix

  Nuclear Dipole Moment: [e a0]
     X:     1.9315      Y:    -6.3716      Z:    -6.4746

  Electronic Dipole Moment: [e a0]
     X:    -1.3919      Y:     5.0178      Z:     4.8167

  Dipole Moment: [e a0]
     X:     0.5396      Y:    -1.3538      Z:    -1.6579     Total:     2.2074

  Dipole Moment: [D]
     X:     1.3716      Y:    -3.4411      Z:    -4.2139     Total:     5.6107

*** tstop() called on ds3 at Tue Apr 28 09:38:28 2020
Module time:
	user time   =      22.29 seconds =       0.37 minutes
	system time =       8.47 seconds =       0.14 minutes
	total time  =         30 seconds =       0.50 minutes
Total time:
	user time   =      22.29 seconds =       0.37 minutes
	system time =       8.47 seconds =       0.14 minutes
	total time  =         30 seconds =       0.50 minutes
                                     G D M A

                                 by Anthony Stone

                           version 2.2.06, 22 June 2011

               Distributed Multipoles from Gaussian wavefunctions

Starting at 9:38:28 on 28 Apr 2020

Using SCF density matrix from file ./SSI/SSI-012GLU-019THR-1-dimer.test.10954.fchk

                         Distributed Multipole Analysis

Standard DMA

Positions and radii in angstrom
Multipole moments in atomic units, ea_0^k for rank k

C          x = -1.537019  y =  0.078383  z = -0.206746 angstrom
           Maximum rank =  0   Radius =  0.650 angstrom
                   Q00  =  -0.115832

C          x = -1.556019  y = -1.449617  z = -0.219746 angstrom
           Maximum rank =  0   Radius =  0.650 angstrom
                   Q00  =  -0.218512

C          x = -0.705019  y =  0.629383  z =  0.932254 angstrom
           Maximum rank =  0   Radius =  0.650 angstrom
                   Q00  =   0.954062

O          x = -1.261019  y =  1.374383  z =  1.768254 angstrom
           Maximum rank =  0   Radius =  0.650 angstrom
                   Q00  =  -0.908365

O          x =  0.507981  y =  0.323383  z =  0.982254 angstrom
           Maximum rank =  0   Radius =  0.650 angstrom
                   Q00  =  -0.960197

H          x = -1.126019  y =  0.462383  z = -1.137746 angstrom
           Maximum rank =  0   Radius =  0.325 angstrom
                   Q00  =   0.064927

H          x = -2.565019  y =  0.441383  z = -0.122746 angstrom
           Maximum rank =  0   Radius =  0.325 angstrom
                   Q00  =   0.024282

H          x = -2.245019  y = -1.790617  z =  0.551254 angstrom
           Maximum rank =  0   Radius =  0.325 angstrom
                   Q00  =   0.046387

H          x = -0.567019  y = -1.841617  z =  0.013254 angstrom
           Maximum rank =  0   Radius =  0.325 angstrom
                   Q00  =   0.087293

H          x = -1.863969  y = -1.858540  z = -1.193371 angstrom
           Maximum rank =  0   Radius =  0.325 angstrom
                   Q00  =   0.043153

C          x =  2.762981  y = -0.631617  z = -1.481746 angstrom
           Maximum rank =  0   Radius =  0.650 angstrom
                   Q00  =  -0.014038

O          x =  1.399981  y = -0.238617  z = -1.582746 angstrom
           Maximum rank =  0   Radius =  0.650 angstrom
                   Q00  =  -0.686469

H          x =  1.105981  y = -0.044617  z = -0.667746 angstrom
           Maximum rank =  0   Radius =  0.325 angstrom
                   Q00  =   0.518023

H          x =  3.215981  y = -0.119617  z = -0.632746 angstrom
           Maximum rank =  0   Radius =  0.325 angstrom
                   Q00  =   0.065978

H          x =  2.805386  y = -1.719781  z = -1.326499 angstrom
           Maximum rank =  0   Radius =  0.325 angstrom
                   Q00  =   0.042314

H          x =  3.296750  y = -0.333081  z = -2.396058 angstrom
           Maximum rank =  0   Radius =  0.325 angstrom
                   Q00  =   0.056992

Total multipoles referred to origin at
           x =   0.000000,  y =    0.000000,  z =    0.000000 angstrom
                   Q00  =  -1.000000

Finished at 9:38:28 on 28 Apr 2020

  DMA results are available in the Python driver through the
	  variable('DMA DISTRIBUTED MULTIPOLES')
  and
	  variable('DMA TOTAL MULTIPOLES')
  commands.

    Psi4 stopped on: Tuesday, 28 April 2020 09:38AM
    Psi4 wall time for execution: 0:00:30.66

*** Psi4 exiting successfully. Buy a developer a beer!
