                               Psi4 1.3.2 release

  ==> Input File <==

--------------------------------------------------------------------------
import numpy as np
set {scf_type pk
basis cc-pvdz
d_convergence 10
gdma_switch   0
gdma_limit    0
gdma_origin   [ 0.0,  0.0,  0.0 ]
}
molecule test {
    units Angstrom
    0 1
    --
    0 1
    C                0.986815996449115     2.867127409615332     1.258780046153258
    C               -0.156184003550885     0.191127409615332    -1.205219953846742
    C               -1.318184003550885    -0.268872590384668    -0.589219953846742
    C                0.597815996449115     1.200127409615332    -0.601219953846742
    C                0.185815996449115     1.766127409615332     0.604780046153258
    C               -1.741184003550885     0.293127409615332     0.611780046153258
    C               -0.992184003550885     1.309127409615332     1.196780046153258
    O               -2.049184003550885    -1.262872590384668    -1.162219953846743
    H                0.156815996449115    -0.231872590384668    -2.147219953846743
    H                1.502815996449115     1.550127409615332    -1.079219953846742
    H               -2.648184003550885    -0.053872590384668     1.088780046153258
    H               -2.799184003550885    -1.502872590384668    -0.599219953846742
    H                0.294815996449115     3.656127409615332     1.554780046153257
    H                1.672815996449115     3.292127409615332     0.525780046153258
    H               -1.327184003550885     1.748127409615332     2.128780046153257
    H                1.550233896449115     2.544147409615332     2.146612046153257
    C                2.345815996449115    -2.370872590384668    -0.687219953846743
    C                1.890815996449115    -2.903872590384668     0.663780046153258
    H                2.786815996449115    -3.176872590384667    -1.275219953846742
    H                1.491815996449115    -1.959872590384668    -1.218219953846742
    H                3.076815996449115    -1.577872590384668    -0.545219953846742
    H                1.532815996449115    -2.064872590384668     1.256780046153257
    H                2.748250996449115    -3.375032590384668     1.166588046153258
    H                1.058095966449115    -3.608482590384668     0.521994046153258

}
e, wfn = energy('scf', return_wfn=True)
gdma(wfn)
dmavals = variable('DMA DISTRIBUTED MULTIPOLES')
charges = np.array(dmavals)
print(charges)
np.save('SSI-060TYR-064LEU-1-dimer.npy', np.array(charges))--------------------------------------------------------------------------

*** tstart() called on ds3
*** at Tue Apr 28 10:46:44 2020

   => Loading Basis Set <=

    Name: CC-PVDZ
    Role: ORBITAL
    Keyword: BASIS
    atoms 1-7, 17-18  entry C          line   138 file /theoryfs2/ds/metcalf/miniconda2/envs/tf2gpu/share/psi4/basis/cc-pvdz.gbs
    atoms 8           entry O          line   198 file /theoryfs2/ds/metcalf/miniconda2/envs/tf2gpu/share/psi4/basis/cc-pvdz.gbs
    atoms 9-16, 19-24 entry H          line    22 file /theoryfs2/ds/metcalf/miniconda2/envs/tf2gpu/share/psi4/basis/cc-pvdz.gbs

         ---------------------------------------------------------
                                   SCF
               by Justin Turney, Rob Parrish, Andy Simmonett
                          and Daniel G. A. Smith
                              RHF Reference
                        1 Threads,    500 MiB Core
         ---------------------------------------------------------

  ==> Geometry <==

    Molecular point group: c1
    Full point group: C1

    Geometry (in Angstrom), charge = 0, multiplicity = 1:

       Center              X                  Y                   Z               Mass
    ------------   -----------------  -----------------  -----------------  -----------------
         C            0.986815996449     2.867127409615     1.258780046153    12.000000000000
         C           -0.156184003551     0.191127409615    -1.205219953847    12.000000000000
         C           -1.318184003551    -0.268872590385    -0.589219953847    12.000000000000
         C            0.597815996449     1.200127409615    -0.601219953847    12.000000000000
         C            0.185815996449     1.766127409615     0.604780046153    12.000000000000
         C           -1.741184003551     0.293127409615     0.611780046153    12.000000000000
         C           -0.992184003551     1.309127409615     1.196780046153    12.000000000000
         O           -2.049184003551    -1.262872590385    -1.162219953847    15.994914619570
         H            0.156815996449    -0.231872590385    -2.147219953847     1.007825032230
         H            1.502815996449     1.550127409615    -1.079219953847     1.007825032230
         H           -2.648184003551    -0.053872590385     1.088780046153     1.007825032230
         H           -2.799184003551    -1.502872590385    -0.599219953847     1.007825032230
         H            0.294815996449     3.656127409615     1.554780046153     1.007825032230
         H            1.672815996449     3.292127409615     0.525780046153     1.007825032230
         H           -1.327184003551     1.748127409615     2.128780046153     1.007825032230
         H            1.550233896449     2.544147409615     2.146612046153     1.007825032230
         C            2.345815996449    -2.370872590385    -0.687219953847    12.000000000000
         C            1.890815996449    -2.903872590385     0.663780046153    12.000000000000
         H            2.786815996449    -3.176872590385    -1.275219953847     1.007825032230
         H            1.491815996449    -1.959872590385    -1.218219953847     1.007825032230
         H            3.076815996449    -1.577872590385    -0.545219953847     1.007825032230
         H            1.532815996449    -2.064872590385     1.256780046153     1.007825032230
         H            2.748250996449    -3.375032590385     1.166588046153     1.007825032230
         H            1.058095966449    -3.608482590385     0.521994046153     1.007825032230

  Running in c1 symmetry.

  Rotational constants: A =      0.04315  B =      0.02814  C =      0.02075 [cm^-1]
  Rotational constants: A =   1293.49913  B =    843.57538  C =    622.09933 [MHz]
  Nuclear repulsion =  502.096848224046710

  Charge       = 0
  Multiplicity = 1
  Electrons    = 76
  Nalpha       = 38
  Nbeta        = 38

  ==> Algorithm <==

  SCF Algorithm Type is PK.
  DIIS enabled.
  MOM disabled.
  Fractional occupation disabled.
  Guess Type is SAD.
  Energy threshold   = 1.00e-06
  Density threshold  = 1.00e-10
  Integral threshold = 0.00e+00

  ==> Primary Basis <==

  Basis Set: CC-PVDZ
    Blend: CC-PVDZ
    Number of shells: 102
    Number of basis function: 210
    Number of Cartesian functions: 220
    Spherical Harmonics?: true
    Max angular momentum: 2

  ==> Pre-Iterations <==

   -------------------------------------------------------
    Irrep   Nso     Nmo     Nalpha   Nbeta   Ndocc  Nsocc
   -------------------------------------------------------
     A        210     210       0       0       0       0
   -------------------------------------------------------
    Total     210     210      38      38      38       0
   -------------------------------------------------------

  ==> Integral Setup <==

  Using integral reordering PK algorithm.
  Sizing the integral batches needed.
  Building batch lookup table.
   Calculation information:
      Number of atoms:                  24
      Number of AO shells:             102
      Number of primitives:            290
      Number of atomic orbitals:       220
      Number of basis functions:       210

      Integral cutoff                 1.00e-12
      Number of threads:                 1

	Batch   1 pq = [       0,    9405] index = [             0,44231715] size =     44231715
	Batch   2 pq = [    9405,   13301] index = [      44231715,88464951] size =     44233236
	Batch   3 pq = [   13301,   16290] index = [      88464951,132690195] size =     44225244
	Batch   4 pq = [   16290,   18810] index = [     132690195,176917455] size =     44227260
	Batch   5 pq = [   18810,   21030] index = [     176917455,221140965] size =     44223510
	Batch   6 pq = [   21030,   22155] index = [     221140965,245433090] size =     24292125
  Task number: 23
  Buffer size: 11059200
  Buffer per thread: 2
  We computed 12537984 shell quartets total.
  Whereas there are 13799631 unique shell quartets.

  ==> DiskJK: Disk-Based J/K Matrices <==

    J tasked:                  Yes
    K tasked:                  Yes
    wK tasked:                  No
    Memory [MiB]:              375
    Schwarz Cutoff:          1E-12

    OpenMP threads:              1

  Minimum eigenvalue in the overlap matrix is 3.2485968418E-04.
  Using Symmetric Orthogonalization.

  SCF Guess: Superposition of Atomic Densities via on-the-fly atomic UHF.

  ==> Iterations <==

                        Total Energy        Delta E     RMS |[F,P]|

   @RHF iter SAD:  -422.69414989181456   -4.22694e+02   0.00000e+00
   @RHF iter   1:  -423.59903471507607   -9.04885e-01   2.99165e-03 DIIS
   @RHF iter   2:  -423.81654266388944   -2.17508e-01   1.27042e-03 DIIS
   @RHF iter   3:  -423.85217950898488   -3.56368e-02   2.84498e-04 DIIS
   @RHF iter   4:  -423.85506697819937   -2.88747e-03   1.16683e-04 DIIS
   @RHF iter   5:  -423.85541767430294   -3.50696e-04   2.10636e-05 DIIS
   @RHF iter   6:  -423.85543541345538   -1.77392e-05   6.42846e-06 DIIS
   @RHF iter   7:  -423.85543702943392   -1.61598e-06   2.00436e-06 DIIS
   @RHF iter   8:  -423.85543722695149   -1.97518e-07   7.40181e-07 DIIS
   @RHF iter   9:  -423.85543725305899   -2.61075e-08   2.53100e-07 DIIS
   @RHF iter  10:  -423.85543725659585   -3.53685e-09   9.04489e-08 DIIS
   @RHF iter  11:  -423.85543725734527   -7.49424e-10   4.15241e-08 DIIS
   @RHF iter  12:  -423.85543725753530   -1.90028e-10   2.39891e-08 DIIS
   @RHF iter  13:  -423.85543725759885   -6.35509e-11   8.17086e-09 DIIS
   @RHF iter  14:  -423.85543725760454   -5.68434e-12   2.19075e-09 DIIS
   @RHF iter  15:  -423.85543725760505   -5.11591e-13   7.01305e-10 DIIS
   @RHF iter  16:  -423.85543725760596   -9.09495e-13   2.08521e-10 DIIS
   @RHF iter  17:  -423.85543725760641   -4.54747e-13   7.82929e-11 DIIS
  Energy and wave function converged.

  ==> Post-Iterations <==

    Orbital Energies [Eh]
    ---------------------

    Doubly Occupied:

       1A    -20.584971     2A    -11.300141     3A    -11.239824
       4A    -11.239487     5A    -11.234793     6A    -11.234191
       7A    -11.231135     8A    -11.228735     9A    -11.209762
      10A    -11.205533    11A     -1.401672    12A     -1.150929
      13A     -1.037182    14A     -1.018885    15A     -1.011586
      16A     -0.926119    17A     -0.845497    18A     -0.826065
      19A     -0.802375    20A     -0.731594    21A     -0.669910
      22A     -0.642212    23A     -0.607526    24A     -0.596134
      25A     -0.590839    26A     -0.588363    27A     -0.584353
      28A     -0.570361    29A     -0.568465    30A     -0.527666
      31A     -0.498299    32A     -0.489820    33A     -0.486813
      34A     -0.477722    35A     -0.476107    36A     -0.466403
      37A     -0.339069    38A     -0.301971

    Virtual:

      39A      0.127816    40A      0.155044    41A      0.175592
      42A      0.182164    43A      0.198991    44A      0.212698
      45A      0.222644    46A      0.248411    47A      0.252717
      48A      0.256682    49A      0.267959    50A      0.278205
      51A      0.281462    52A      0.293421    53A      0.297163
      54A      0.341630    55A      0.368818    56A      0.381591
      57A      0.402229    58A      0.432510    59A      0.453630
      60A      0.483548    61A      0.495047    62A      0.507893
      63A      0.589737    64A      0.600740    65A      0.611327
      66A      0.612916    67A      0.632068    68A      0.644075
      69A      0.655460    70A      0.675151    71A      0.682253
      72A      0.688646    73A      0.709667    74A      0.722779
      75A      0.729713    76A      0.738364    77A      0.762884
      78A      0.770389    79A      0.785670    80A      0.794766
      81A      0.806294    82A      0.837889    83A      0.842823
      84A      0.856167    85A      0.873221    86A      0.880326
      87A      0.882819    88A      0.892338    89A      0.896328
      90A      0.904742    91A      0.907266    92A      0.924813
      93A      0.929044    94A      0.935688    95A      0.939142
      96A      0.947085    97A      0.961938    98A      0.969933
      99A      1.001260   100A      1.011491   101A      1.027052
     102A      1.073545   103A      1.117019   104A      1.131561
     105A      1.137765   106A      1.143258   107A      1.159460
     108A      1.166176   109A      1.199250   110A      1.234590
     111A      1.248469   112A      1.268631   113A      1.279225
     114A      1.292125   115A      1.297526   116A      1.308419
     117A      1.310542   118A      1.356703   119A      1.367647
     120A      1.383259   121A      1.479337   122A      1.487987
     123A      1.498308   124A      1.513046   125A      1.523719
     126A      1.551731   127A      1.573277   128A      1.614254
     129A      1.619040   130A      1.684119   131A      1.686695
     132A      1.694308   133A      1.707965   134A      1.737238
     135A      1.747578   136A      1.781471   137A      1.805173
     138A      1.812308   139A      1.854224   140A      1.868623
     141A      1.872853   142A      1.894764   143A      1.897208
     144A      1.907816   145A      1.912419   146A      1.922890
     147A      1.928262   148A      1.941867   149A      1.952771
     150A      1.955459   151A      1.958477   152A      1.965569
     153A      1.968888   154A      1.984030   155A      1.995905
     156A      2.010346   157A      2.027426   158A      2.051435
     159A      2.058831   160A      2.066073   161A      2.070608
     162A      2.122721   163A      2.124653   164A      2.143002
     165A      2.148440   166A      2.173400   167A      2.197745
     168A      2.221394   169A      2.254819   170A      2.271312
     171A      2.293701   172A      2.301808   173A      2.317627
     174A      2.340896   175A      2.375672   176A      2.408799
     177A      2.448533   178A      2.464458   179A      2.474269
     180A      2.480022   181A      2.498789   182A      2.530693
     183A      2.543839   184A      2.585407   185A      2.596975
     186A      2.604009   187A      2.641824   188A      2.743163
     189A      2.768917   190A      2.776037   191A      2.789972
     192A      2.802143   193A      2.819989   194A      2.844911
     195A      2.850116   196A      2.865182   197A      2.898513
     198A      2.956127   199A      2.977647   200A      2.980787
     201A      3.001021   202A      3.085643   203A      3.114521
     204A      3.254906   205A      3.277480   206A      3.340557
     207A      3.580399   208A      3.676715   209A      3.963923
     210A      4.182543

    Final Occupation by Irrep:
              A
    DOCC [    38 ]

  @RHF Final Energy:  -423.85543725760641

   => Energetics <=

    Nuclear Repulsion Energy =            502.0968482240467097
    One-Electron Energy =               -1570.0195549015179495
    Two-Electron Energy =                 644.0672694198648287
    Total Energy =                       -423.8554372576064679

Computation Completed

Properties will be evaluated at   0.000000,   0.000000,   0.000000 [a0]

Properties computed using the SCF density matrix

  Nuclear Dipole Moment: [e a0]
     X:    10.3938      Y:    -4.4693      Z:     3.2997

  Electronic Dipole Moment: [e a0]
     X:   -10.6979      Y:     4.6888      Z:    -2.7974

  Dipole Moment: [e a0]
     X:    -0.3041      Y:     0.2195      Z:     0.5023     Total:     0.6269

  Dipole Moment: [D]
     X:    -0.7729      Y:     0.5578      Z:     1.2768     Total:     1.5933

*** tstop() called on ds3 at Tue Apr 28 10:50:16 2020
Module time:
	user time   =      91.15 seconds =       1.52 minutes
	system time =      33.42 seconds =       0.56 minutes
	total time  =        212 seconds =       3.53 minutes
Total time:
	user time   =      91.15 seconds =       1.52 minutes
	system time =      33.42 seconds =       0.56 minutes
	total time  =        212 seconds =       3.53 minutes
                                     G D M A

                                 by Anthony Stone

                           version 2.2.06, 22 June 2011

               Distributed Multipoles from Gaussian wavefunctions

Starting at 10:50:16 on 28 Apr 2020

Using SCF density matrix from file ./SSI/SSI-060TYR-064LEU-1-dimer.test.16631.fchk

                         Distributed Multipole Analysis

Standard DMA

Positions and radii in angstrom
Multipole moments in atomic units, ea_0^k for rank k

C          x =  0.986816  y =  2.867127  z =  1.258780 angstrom
           Maximum rank =  0   Radius =  0.650 angstrom
                   Q00  =  -0.196923

C          x = -0.156184  y =  0.191127  z = -1.205220 angstrom
           Maximum rank =  0   Radius =  0.650 angstrom
                   Q00  =  -0.106747

C          x = -1.318184  y = -0.268873  z = -0.589220 angstrom
           Maximum rank =  0   Radius =  0.650 angstrom
                   Q00  =   0.317496

C          x =  0.597816  y =  1.200127  z = -0.601220 angstrom
           Maximum rank =  0   Radius =  0.650 angstrom
                   Q00  =  -0.051299

C          x =  0.185816  y =  1.766127  z =  0.604780 angstrom
           Maximum rank =  0   Radius =  0.650 angstrom
                   Q00  =  -0.133532

C          x = -1.741184  y =  0.293127  z =  0.611780 angstrom
           Maximum rank =  0   Radius =  0.650 angstrom
                   Q00  =  -0.180602

C          x = -0.992184  y =  1.309127  z =  1.196780 angstrom
           Maximum rank =  0   Radius =  0.650 angstrom
                   Q00  =   0.040850

O          x = -2.049184  y = -1.262873  z = -1.162220 angstrom
           Maximum rank =  0   Radius =  0.650 angstrom
                   Q00  =  -0.675109

H          x =  0.156816  y = -0.231873  z = -2.147220 angstrom
           Maximum rank =  0   Radius =  0.325 angstrom
                   Q00  =   0.083767

H          x =  1.502816  y =  1.550127  z = -1.079220 angstrom
           Maximum rank =  0   Radius =  0.325 angstrom
                   Q00  =   0.066910

H          x = -2.648184  y = -0.053873  z =  1.088780 angstrom
           Maximum rank =  0   Radius =  0.325 angstrom
                   Q00  =   0.071708

H          x = -2.799184  y = -1.502873  z = -0.599220 angstrom
           Maximum rank =  0   Radius =  0.325 angstrom
                   Q00  =   0.407453

H          x =  0.294816  y =  3.656127  z =  1.554780 angstrom
           Maximum rank =  0   Radius =  0.325 angstrom
                   Q00  =   0.094976

H          x =  1.672816  y =  3.292127  z =  0.525780 angstrom
           Maximum rank =  0   Radius =  0.325 angstrom
                   Q00  =   0.096679

H          x = -1.327184  y =  1.748127  z =  2.128780 angstrom
           Maximum rank =  0   Radius =  0.325 angstrom
                   Q00  =   0.067481

H          x =  1.550234  y =  2.544147  z =  2.146612 angstrom
           Maximum rank =  0   Radius =  0.325 angstrom
                   Q00  =   0.099944

C          x =  2.345816  y = -2.370873  z = -0.687220 angstrom
           Maximum rank =  0   Radius =  0.650 angstrom
                   Q00  =  -0.238143

C          x =  1.890816  y = -2.903873  z =  0.663780 angstrom
           Maximum rank =  0   Radius =  0.650 angstrom
                   Q00  =  -0.227666

H          x =  2.786816  y = -3.176873  z = -1.275220 angstrom
           Maximum rank =  0   Radius =  0.325 angstrom
                   Q00  =   0.071065

H          x =  1.491816  y = -1.959873  z = -1.218220 angstrom
           Maximum rank =  0   Radius =  0.325 angstrom
                   Q00  =   0.085519

H          x =  3.076816  y = -1.577873  z = -0.545220 angstrom
           Maximum rank =  0   Radius =  0.325 angstrom
                   Q00  =   0.073620

H          x =  1.532816  y = -2.064873  z =  1.256780 angstrom
           Maximum rank =  0   Radius =  0.325 angstrom
                   Q00  =   0.083438

H          x =  2.748251  y = -3.375033  z =  1.166588 angstrom
           Maximum rank =  0   Radius =  0.325 angstrom
                   Q00  =   0.072403

H          x =  1.058096  y = -3.608483  z =  0.521994 angstrom
           Maximum rank =  0   Radius =  0.325 angstrom
                   Q00  =   0.076712

Total multipoles referred to origin at
           x =   0.000000,  y =    0.000000,  z =    0.000000 angstrom
                   Q00  =  -0.000000

Finished at 10:50:16 on 28 Apr 2020

  DMA results are available in the Python driver through the
	  variable('DMA DISTRIBUTED MULTIPOLES')
  and
	  variable('DMA TOTAL MULTIPOLES')
  commands.

    Psi4 stopped on: Tuesday, 28 April 2020 10:50AM
    Psi4 wall time for execution: 0:03:31.76

*** Psi4 exiting successfully. Buy a developer a beer!
