                               Psi4 1.3.2 release

  ==> Input File <==

--------------------------------------------------------------------------
import numpy as np
set {scf_type pk
basis cc-pvdz
d_convergence 10
gdma_switch   0
gdma_limit    0
gdma_origin   [ 0.0,  0.0,  0.0 ]
}
molecule test {
    units Angstrom
    0 1
    --
    0 1
    C               -1.661277185059369     0.209081125090746    -0.959861885939637
    C               -1.712277185059369     1.572081125090746    -1.677861885939637
    H               -1.842277185059369     0.314081125090746     0.099138114060363
    H               -2.404277185059369    -0.467918874909254    -1.383861885939637
    H               -0.674277185059369    -0.227918874909254    -1.103861885939637
    H               -1.454277185059369     1.421081125090746    -2.722861885939637
    H               -1.000007185059369     2.291144125090746    -1.247031885939637
    H               -2.723047185059368     2.005686125090746    -1.659551885939637
    C                1.568722814940632    -1.155918874909254     0.623138114060363
    C                1.810722814940632    -0.623918874909254     2.023138114060363
    H                2.152722814940632    -2.054918874909254     0.437138114060363
    H                0.514722814940632    -1.415918874909254     0.523138114060363
    H                1.819722814940631    -0.395918874909254    -0.117861885939637
    H                1.537722814940631    -1.385918874909254     2.751138114060363
    H                1.143722814940632     0.227081125090746     2.152138114060364
    H                2.859402814940632    -0.326330974909254     2.170508114060363

}
e, wfn = energy('scf', return_wfn=True)
gdma(wfn)
dmavals = variable('DMA DISTRIBUTED MULTIPOLES')
charges = np.array(dmavals)
print(charges)
np.save('SSI-037ALA-056ILE-1-dimer.npy', np.array(charges))--------------------------------------------------------------------------

*** tstart() called on ds3
*** at Sun Apr 26 23:08:04 2020

   => Loading Basis Set <=

    Name: CC-PVDZ
    Role: ORBITAL
    Keyword: BASIS
    atoms 1-2, 9-10  entry C          line   138 file /theoryfs2/ds/metcalf/miniconda2/envs/tf2gpu/share/psi4/basis/cc-pvdz.gbs
    atoms 3-8, 11-16 entry H          line    22 file /theoryfs2/ds/metcalf/miniconda2/envs/tf2gpu/share/psi4/basis/cc-pvdz.gbs

         ---------------------------------------------------------
                                   SCF
               by Justin Turney, Rob Parrish, Andy Simmonett
                          and Daniel G. A. Smith
                              RHF Reference
                        1 Threads,    500 MiB Core
         ---------------------------------------------------------

  ==> Geometry <==

    Molecular point group: c1
    Full point group: C1

    Geometry (in Angstrom), charge = 0, multiplicity = 1:

       Center              X                  Y                   Z               Mass
    ------------   -----------------  -----------------  -----------------  -----------------
         C           -1.661277185059     0.209081125091    -0.959861885940    12.000000000000
         C           -1.712277185059     1.572081125091    -1.677861885940    12.000000000000
         H           -1.842277185059     0.314081125091     0.099138114060     1.007825032230
         H           -2.404277185059    -0.467918874909    -1.383861885940     1.007825032230
         H           -0.674277185059    -0.227918874909    -1.103861885940     1.007825032230
         H           -1.454277185059     1.421081125091    -2.722861885940     1.007825032230
         H           -1.000007185059     2.291144125091    -1.247031885940     1.007825032230
         H           -2.723047185059     2.005686125091    -1.659551885940     1.007825032230
         C            1.568722814941    -1.155918874909     0.623138114060    12.000000000000
         C            1.810722814941    -0.623918874909     2.023138114060    12.000000000000
         H            2.152722814941    -2.054918874909     0.437138114060     1.007825032230
         H            0.514722814941    -1.415918874909     0.523138114060     1.007825032230
         H            1.819722814941    -0.395918874909    -0.117861885940     1.007825032230
         H            1.537722814941    -1.385918874909     2.751138114060     1.007825032230
         H            1.143722814941     0.227081125091     2.152138114060     1.007825032230
         H            2.859402814941    -0.326330974909     2.170508114060     1.007825032230

  Running in c1 symmetry.

  Rotational constants: A =      0.45000  B =      0.04718  C =      0.04616 [cm^-1]
  Rotational constants: A =  13490.61622  B =   1414.30636  C =   1383.80352 [MHz]
  Nuclear repulsion =  121.547597271347300

  Charge       = 0
  Multiplicity = 1
  Electrons    = 36
  Nalpha       = 18
  Nbeta        = 18

  ==> Algorithm <==

  SCF Algorithm Type is PK.
  DIIS enabled.
  MOM disabled.
  Fractional occupation disabled.
  Guess Type is SAD.
  Energy threshold   = 1.00e-06
  Density threshold  = 1.00e-10
  Integral threshold = 0.00e+00

  ==> Primary Basis <==

  Basis Set: CC-PVDZ
    Blend: CC-PVDZ
    Number of shells: 60
    Number of basis function: 116
    Number of Cartesian functions: 120
    Spherical Harmonics?: true
    Max angular momentum: 2

  ==> Pre-Iterations <==

   -------------------------------------------------------
    Irrep   Nso     Nmo     Nalpha   Nbeta   Ndocc  Nsocc
   -------------------------------------------------------
     A        116     116       0       0       0       0
   -------------------------------------------------------
    Total     116     116      18      18      18       0
   -------------------------------------------------------

  ==> Integral Setup <==

  Using integral reordering PK algorithm.
  Sizing the integral batches needed.
  Building batch lookup table.
   Calculation information:
      Number of atoms:                  16
      Number of AO shells:              60
      Number of primitives:            148
      Number of atomic orbitals:       120
      Number of basis functions:       116

      Integral cutoff                 1.00e-12
      Number of threads:                 1

	Batch   1 pq = [       0,    6786] index = [             0,23028291] size =     23028291
  Task number: 3
  Buffer size: 11059200
  Buffer per thread: 2
  We computed 1414288 shell quartets total.
  Whereas there are 1675365 unique shell quartets.

  ==> DiskJK: Disk-Based J/K Matrices <==

    J tasked:                  Yes
    K tasked:                  Yes
    wK tasked:                  No
    Memory [MiB]:              375
    Schwarz Cutoff:          1E-12

    OpenMP threads:              1

  Minimum eigenvalue in the overlap matrix is 7.2106367343E-03.
  Using Symmetric Orthogonalization.

  SCF Guess: Superposition of Atomic Densities via on-the-fly atomic UHF.

  ==> Iterations <==

                        Total Energy        Delta E     RMS |[F,P]|

   @RHF iter SAD:  -157.35818518559739   -1.57358e+02   0.00000e+00
   @RHF iter   1:  -158.30739484977877   -9.49210e-01   4.21773e-03 DIIS
   @RHF iter   2:  -158.44074132431811   -1.33346e-01   1.79779e-03 DIIS
   @RHF iter   3:  -158.46417674658875   -2.34354e-02   3.49920e-04 DIIS
   @RHF iter   4:  -158.46601148122113   -1.83473e-03   3.92121e-05 DIIS
   @RHF iter   5:  -158.46603578104720   -2.42998e-05   6.76325e-06 DIIS
   @RHF iter   6:  -158.46603644484986   -6.63803e-07   1.28005e-06 DIIS
   @RHF iter   7:  -158.46603646023274   -1.53829e-08   3.25980e-07 DIIS
   @RHF iter   8:  -158.46603646122782   -9.95072e-10   4.10040e-08 DIIS
   @RHF iter   9:  -158.46603646125405   -2.62332e-11   8.92025e-09 DIIS
   @RHF iter  10:  -158.46603646125556   -1.50635e-12   2.73341e-09 DIIS
   @RHF iter  11:  -158.46603646125527    2.84217e-13   7.47405e-10 DIIS
   @RHF iter  12:  -158.46603646125524    2.84217e-14   1.50272e-10 DIIS
   @RHF iter  13:  -158.46603646125536   -1.13687e-13   2.35561e-11 DIIS
  Energy and wave function converged.

  ==> Post-Iterations <==

    Orbital Energies [Eh]
    ---------------------

    Doubly Occupied:

       1A    -11.219802     2A    -11.217178     3A    -11.216651
       4A    -11.215033     5A     -1.022292     6A     -1.014781
       7A     -0.841328     8A     -0.834877     9A     -0.603413
      10A     -0.600345    11A     -0.596323    12A     -0.592623
      13A     -0.505246    14A     -0.498584    15A     -0.489912
      16A     -0.487700    17A     -0.485518    18A     -0.478421

    Virtual:

      19A      0.169575    20A      0.198710    21A      0.228508
      22A      0.231382    23A      0.244494    24A      0.258854
      25A      0.265081    26A      0.275571    27A      0.282598
      28A      0.289102    29A      0.305861    30A      0.320424
      31A      0.393370    32A      0.410306    33A      0.577068
      34A      0.593111    35A      0.601315    36A      0.608277
      37A      0.612952    38A      0.628831    39A      0.660085
      40A      0.681193    41A      0.685507    42A      0.802462
      43A      0.837814    44A      0.855279    45A      0.882937
      46A      0.890185    47A      0.891070    48A      0.895856
      49A      0.898811    50A      0.906924    51A      0.912897
      52A      0.916465    53A      0.936457    54A      0.952477
      55A      0.971772    56A      0.990639    57A      1.123842
      58A      1.128643    59A      1.134909    60A      1.166863
      61A      1.239113    62A      1.256476    63A      1.460346
      64A      1.467735    65A      1.472123    66A      1.488287
      67A      1.546797    68A      1.599050    69A      1.678403
      70A      1.688103    71A      1.693738    72A      1.702434
      73A      1.853498    74A      1.861986    75A      1.873026
      76A      1.878851    77A      1.900744    78A      1.926430
      79A      1.933923    80A      1.939163    81A      1.942341
      82A      1.947576    83A      1.953099    84A      1.962910
      85A      1.964526    86A      1.974632    87A      1.990233
      88A      1.996993    89A      2.089065    90A      2.106977
      91A      2.109902    92A      2.123712    93A      2.295409
      94A      2.305646    95A      2.319010    96A      2.322664
      97A      2.446428    98A      2.453836    99A      2.466651
     100A      2.490818   101A      2.554992   102A      2.566032
     103A      2.573599   104A      2.582789   105A      2.758837
     106A      2.770196   107A      2.791878   108A      2.798699
     109A      2.847299   110A      2.860245   111A      2.865989
     112A      2.870721   113A      2.938089   114A      2.948987
     115A      2.967961   116A      2.986865

    Final Occupation by Irrep:
              A
    DOCC [    18 ]

  @RHF Final Energy:  -158.46603646125536

   => Energetics <=

    Nuclear Repulsion Energy =            121.5475972713472999
    One-Electron Energy =                -452.1872111049719933
    Two-Electron Energy =                 172.1735773723693512
    Total Energy =                       -158.4660364612553565

Computation Completed

Properties will be evaluated at   0.000000,   0.000000,   0.000000 [a0]

Properties computed using the SCF density matrix

  Nuclear Dipole Moment: [e a0]
     X:    -0.0658      Y:    -0.0148      Z:    -0.0955

  Electronic Dipole Moment: [e a0]
     X:     0.0625      Y:    -0.0073      Z:     0.0899

  Dipole Moment: [e a0]
     X:    -0.0032      Y:    -0.0221      Z:    -0.0055     Total:     0.0230

  Dipole Moment: [D]
     X:    -0.0083      Y:    -0.0561      Z:    -0.0141     Total:     0.0585

*** tstop() called on ds3 at Sun Apr 26 23:08:15 2020
Module time:
	user time   =       7.64 seconds =       0.13 minutes
	system time =       3.31 seconds =       0.06 minutes
	total time  =         11 seconds =       0.18 minutes
Total time:
	user time   =       7.64 seconds =       0.13 minutes
	system time =       3.31 seconds =       0.06 minutes
	total time  =         11 seconds =       0.18 minutes
                                     G D M A

                                 by Anthony Stone

                           version 2.2.06, 22 June 2011

               Distributed Multipoles from Gaussian wavefunctions

Starting at 23:8:15 on 26 Apr 2020

Using SCF density matrix from file ./SSI/SSI-037ALA-056ILE-1-dimer.test.24617.fchk

                         Distributed Multipole Analysis

Standard DMA

Positions and radii in angstrom
Multipole moments in atomic units, ea_0^k for rank k

C          x = -1.661277  y =  0.209081  z = -0.959862 angstrom
           Maximum rank =  0   Radius =  0.650 angstrom
                   Q00  =  -0.240962

C          x = -1.712277  y =  1.572081  z = -1.677862 angstrom
           Maximum rank =  0   Radius =  0.650 angstrom
                   Q00  =  -0.244704

H          x = -1.842277  y =  0.314081  z =  0.099138 angstrom
           Maximum rank =  0   Radius =  0.325 angstrom
                   Q00  =   0.081077

H          x = -2.404277  y = -0.467919  z = -1.383862 angstrom
           Maximum rank =  0   Radius =  0.325 angstrom
                   Q00  =   0.081034

H          x = -0.674277  y = -0.227919  z = -1.103862 angstrom
           Maximum rank =  0   Radius =  0.325 angstrom
                   Q00  =   0.084551

H          x = -1.454277  y =  1.421081  z = -2.722862 angstrom
           Maximum rank =  0   Radius =  0.325 angstrom
                   Q00  =   0.079126

H          x = -1.000007  y =  2.291144  z = -1.247032 angstrom
           Maximum rank =  0   Radius =  0.325 angstrom
                   Q00  =   0.080617

H          x = -2.723047  y =  2.005686  z = -1.659552 angstrom
           Maximum rank =  0   Radius =  0.325 angstrom
                   Q00  =   0.079446

C          x =  1.568723  y = -1.155919  z =  0.623138 angstrom
           Maximum rank =  0   Radius =  0.650 angstrom
                   Q00  =  -0.242411

C          x =  1.810723  y = -0.623919  z =  2.023138 angstrom
           Maximum rank =  0   Radius =  0.650 angstrom
                   Q00  =  -0.224224

H          x =  2.152723  y = -2.054919  z =  0.437138 angstrom
           Maximum rank =  0   Radius =  0.325 angstrom
                   Q00  =   0.077498

H          x =  0.514723  y = -1.415919  z =  0.523138 angstrom
           Maximum rank =  0   Radius =  0.325 angstrom
                   Q00  =   0.079737

H          x =  1.819723  y = -0.395919  z = -0.117862 angstrom
           Maximum rank =  0   Radius =  0.325 angstrom
                   Q00  =   0.076338

H          x =  1.537723  y = -1.385919  z =  2.751138 angstrom
           Maximum rank =  0   Radius =  0.325 angstrom
                   Q00  =   0.078272

H          x =  1.143723  y =  0.227081  z =  2.152138 angstrom
           Maximum rank =  0   Radius =  0.325 angstrom
                   Q00  =   0.075318

H          x =  2.859403  y = -0.326331  z =  2.170508 angstrom
           Maximum rank =  0   Radius =  0.325 angstrom
                   Q00  =   0.079287

Total multipoles referred to origin at
           x =   0.000000,  y =    0.000000,  z =    0.000000 angstrom
                   Q00  =  -0.000000

Finished at 23:8:15 on 26 Apr 2020

  DMA results are available in the Python driver through the
	  variable('DMA DISTRIBUTED MULTIPOLES')
  and
	  variable('DMA TOTAL MULTIPOLES')
  commands.

    Psi4 stopped on: Sunday, 26 April 2020 11:08PM
    Psi4 wall time for execution: 0:00:10.91

*** Psi4 exiting successfully. Buy a developer a beer!
