                               Psi4 1.3.2 release

  ==> Input File <==

--------------------------------------------------------------------------
import numpy as np
set {scf_type pk
basis cc-pvdz
d_convergence 10
gdma_switch   0
gdma_limit    0
gdma_origin   [ 0.0,  0.0,  0.0 ]
}
molecule test {
    units Angstrom
    0 1
    --
    0 1
    C               -0.536884179395470    -1.148386139061641     0.254720573184039
    C               -0.296884179395470    -2.114386139061641    -0.901279426815961
    O               -1.367884179395469    -1.731386139061641     1.244720573184039
    H                0.418115820604530    -0.874386139061641     0.706720573184039
    H               -1.014884179395469    -0.245386139061641    -0.122279426815961
    H               -1.244884179395469    -2.299386139061641    -1.407279426815962
    H               -0.790884179395470    -2.263386139061641     1.818720573184039
    H                0.105258820604530    -3.068626139061641    -0.530186426815961
    H                0.419075820604530    -1.680926139061641    -1.615083426815962
    C                0.849115820604530     1.873613860938359    -0.378279426815961
    C                1.418115820604530     3.273613860938359    -0.346279426815961
    H                0.277115820604530     1.672613860938359     0.525720573184039
    H                0.175115820604530     1.781613860938359    -1.229279426815961
    H                1.653115820604530     1.143613860938359    -0.478279426815961
    H                0.604115820604530     3.985613860938359    -0.194279426815961
    H                1.851115820604530     3.464613860938359    -1.327279426815962
    H                2.188935820604530     3.424493860938359     0.423829573184039

}
e, wfn = energy('scf', return_wfn=True)
gdma(wfn)
dmavals = variable('DMA DISTRIBUTED MULTIPOLES')
charges = np.array(dmavals)
print(charges)
np.save('SSI-113SER-120ILE-1-dimer.npy', np.array(charges))--------------------------------------------------------------------------

*** tstart() called on ds3
*** at Mon Apr 27 07:59:40 2020

   => Loading Basis Set <=

    Name: CC-PVDZ
    Role: ORBITAL
    Keyword: BASIS
    atoms 1-2, 10-11 entry C          line   138 file /theoryfs2/ds/metcalf/miniconda2/envs/tf2gpu/share/psi4/basis/cc-pvdz.gbs
    atoms 3          entry O          line   198 file /theoryfs2/ds/metcalf/miniconda2/envs/tf2gpu/share/psi4/basis/cc-pvdz.gbs
    atoms 4-9, 12-17 entry H          line    22 file /theoryfs2/ds/metcalf/miniconda2/envs/tf2gpu/share/psi4/basis/cc-pvdz.gbs

         ---------------------------------------------------------
                                   SCF
               by Justin Turney, Rob Parrish, Andy Simmonett
                          and Daniel G. A. Smith
                              RHF Reference
                        1 Threads,    500 MiB Core
         ---------------------------------------------------------

  ==> Geometry <==

    Molecular point group: c1
    Full point group: C1

    Geometry (in Angstrom), charge = 0, multiplicity = 1:

       Center              X                  Y                   Z               Mass
    ------------   -----------------  -----------------  -----------------  -----------------
         C           -0.536884179395    -1.148386139062     0.254720573184    12.000000000000
         C           -0.296884179395    -2.114386139062    -0.901279426816    12.000000000000
         O           -1.367884179395    -1.731386139062     1.244720573184    15.994914619570
         H            0.418115820605    -0.874386139062     0.706720573184     1.007825032230
         H           -1.014884179395    -0.245386139062    -0.122279426816     1.007825032230
         H           -1.244884179395    -2.299386139062    -1.407279426816     1.007825032230
         H           -0.790884179395    -2.263386139062     1.818720573184     1.007825032230
         H            0.105258820605    -3.068626139062    -0.530186426816     1.007825032230
         H            0.419075820605    -1.680926139062    -1.615083426816     1.007825032230
         C            0.849115820605     1.873613860938    -0.378279426816    12.000000000000
         C            1.418115820605     3.273613860938    -0.346279426816    12.000000000000
         H            0.277115820605     1.672613860938     0.525720573184     1.007825032230
         H            0.175115820605     1.781613860938    -1.229279426816     1.007825032230
         H            1.653115820605     1.143613860938    -0.478279426816     1.007825032230
         H            0.604115820605     3.985613860938    -0.194279426816     1.007825032230
         H            1.851115820605     3.464613860938    -1.327279426816     1.007825032230
         H            2.188935820605     3.424493860938     0.423829573184     1.007825032230

  Running in c1 symmetry.

  Rotational constants: A =      0.27837  B =      0.03837  C =      0.03473 [cm^-1]
  Rotational constants: A =   8345.28652  B =   1150.42254  C =   1041.04735 [MHz]
  Nuclear repulsion =  178.084440558237986

  Charge       = 0
  Multiplicity = 1
  Electrons    = 44
  Nalpha       = 22
  Nbeta        = 22

  ==> Algorithm <==

  SCF Algorithm Type is PK.
  DIIS enabled.
  MOM disabled.
  Fractional occupation disabled.
  Guess Type is SAD.
  Energy threshold   = 1.00e-06
  Density threshold  = 1.00e-10
  Integral threshold = 0.00e+00

  ==> Primary Basis <==

  Basis Set: CC-PVDZ
    Blend: CC-PVDZ
    Number of shells: 66
    Number of basis function: 130
    Number of Cartesian functions: 135
    Spherical Harmonics?: true
    Max angular momentum: 2

  ==> Pre-Iterations <==

   -------------------------------------------------------
    Irrep   Nso     Nmo     Nalpha   Nbeta   Ndocc  Nsocc
   -------------------------------------------------------
     A        130     130       0       0       0       0
   -------------------------------------------------------
    Total     130     130      22      22      22       0
   -------------------------------------------------------

  ==> Integral Setup <==

  Using integral reordering PK algorithm.
  Sizing the integral batches needed.
  Building batch lookup table.
   Calculation information:
      Number of atoms:                  17
      Number of AO shells:              66
      Number of primitives:            170
      Number of atomic orbitals:       135
      Number of basis functions:       130

      Integral cutoff                 1.00e-12
      Number of threads:                 1

	Batch   1 pq = [       0,    8515] index = [             0,36256870] size =     36256870
  Task number: 4
  Buffer size: 11059200
  Buffer per thread: 2
  We computed 1957073 shell quartets total.
  Whereas there are 2445366 unique shell quartets.

  ==> DiskJK: Disk-Based J/K Matrices <==

    J tasked:                  Yes
    K tasked:                  Yes
    wK tasked:                  No
    Memory [MiB]:              375
    Schwarz Cutoff:          1E-12

    OpenMP threads:              1

  Minimum eigenvalue in the overlap matrix is 5.6239960887E-03.
  Using Symmetric Orthogonalization.

  SCF Guess: Superposition of Atomic Densities via on-the-fly atomic UHF.

  ==> Iterations <==

                        Total Energy        Delta E     RMS |[F,P]|

   @RHF iter SAD:  -232.13116168334051   -2.32131e+02   0.00000e+00
   @RHF iter   1:  -233.13722597360092   -1.00606e+00   4.24357e-03 DIIS
   @RHF iter   2:  -233.28958627179716   -1.52360e-01   1.96026e-03 DIIS
   @RHF iter   3:  -233.31852490733087   -2.89386e-02   3.85199e-04 DIIS
   @RHF iter   4:  -233.32064579991882   -2.12089e-03   1.25608e-04 DIIS
   @RHF iter   5:  -233.32079155608494   -1.45756e-04   2.51280e-05 DIIS
   @RHF iter   6:  -233.32080007907416   -8.52299e-06   4.56397e-06 DIIS
   @RHF iter   7:  -233.32080047952380   -4.00450e-07   1.06087e-06 DIIS
   @RHF iter   8:  -233.32080050156898   -2.20452e-08   3.54429e-07 DIIS
   @RHF iter   9:  -233.32080050404730   -2.47832e-09   9.85520e-08 DIIS
   @RHF iter  10:  -233.32080050428397   -2.36668e-10   2.19803e-08 DIIS
   @RHF iter  11:  -233.32080050429528   -1.13118e-11   5.73457e-09 DIIS
   @RHF iter  12:  -233.32080050429693   -1.64846e-12   1.63869e-09 DIIS
   @RHF iter  13:  -233.32080050429701   -8.52651e-14   4.30248e-10 DIIS
   @RHF iter  14:  -233.32080050429602    9.94760e-13   1.46271e-10 DIIS
   @RHF iter  15:  -233.32080050429721   -1.19371e-12   4.36659e-11 DIIS
  Energy and wave function converged.

  ==> Post-Iterations <==

    Orbital Energies [Eh]
    ---------------------

    Doubly Occupied:

       1A    -20.546907     2A    -11.272127     3A    -11.219657
       4A    -11.219330     5A    -11.218700     6A     -1.349125
       7A     -1.026540     8A     -1.005303     9A     -0.843811
      10A     -0.832123    11A     -0.686331    12A     -0.621538
      13A     -0.604310    14A     -0.602599    15A     -0.582486
      16A     -0.545297    17A     -0.519895    18A     -0.507004
      19A     -0.489813    20A     -0.485063    21A     -0.471925
      22A     -0.429845

    Virtual:

      23A      0.170294    24A      0.189106    25A      0.207758
      26A      0.229393    27A      0.231694    28A      0.252970
      29A      0.266456    30A      0.272369    31A      0.282550
      32A      0.285021    33A      0.307161    34A      0.314211
      35A      0.366233    36A      0.403678    37A      0.442308
      38A      0.593573    39A      0.597086    40A      0.601343
      41A      0.606670    42A      0.655979    43A      0.672442
      44A      0.704846    45A      0.715589    46A      0.732737
      47A      0.794621    48A      0.812399    49A      0.843979
      50A      0.882931    51A      0.889496    52A      0.892423
      53A      0.894498    54A      0.902391    55A      0.905288
      56A      0.915051    57A      0.917460    58A      0.929313
      59A      0.944428    60A      0.954354    61A      0.999927
      62A      1.120159    63A      1.129852    64A      1.148673
      65A      1.163931    66A      1.169346    67A      1.253975
      68A      1.275419    69A      1.345768    70A      1.385750
      71A      1.461655    72A      1.479350    73A      1.487940
      74A      1.559380    75A      1.589340    76A      1.607621
      77A      1.651853    78A      1.679105    79A      1.680374
      80A      1.691861    81A      1.733704    82A      1.848795
      83A      1.873994    84A      1.878643    85A      1.885000
      86A      1.899134    87A      1.910652    88A      1.932729
      89A      1.947330    90A      1.949169    91A      1.955153
      92A      1.964032    93A      1.973969    94A      1.986565
      95A      2.015728    96A      2.035130    97A      2.078643
      98A      2.088223    99A      2.104048   100A      2.131005
     101A      2.180123   102A      2.266923   103A      2.282572
     104A      2.308289   105A      2.333365   106A      2.429268
     107A      2.450754   108A      2.463210   109A      2.472299
     110A      2.528362   111A      2.537530   112A      2.554998
     113A      2.566786   114A      2.583767   115A      2.755163
     116A      2.765292   117A      2.768682   118A      2.787519
     119A      2.804958   120A      2.853829   121A      2.863096
     122A      2.897104   123A      2.915880   124A      2.951153
     125A      2.964426   126A      3.333132   127A      3.398573
     128A      3.477031   129A      3.649284   130A      4.090092

    Final Occupation by Irrep:
              A
    DOCC [    22 ]

  @RHF Final Energy:  -233.32080050429721

   => Energetics <=

    Nuclear Repulsion Energy =            178.0844405582379864
    One-Electron Energy =                -668.6510246762250063
    Two-Electron Energy =                 257.2457836136898095
    Total Energy =                       -233.3208005042972104

Computation Completed

Properties will be evaluated at   0.000000,   0.000000,   0.000000 [a0]

Properties computed using the SCF density matrix

  Nuclear Dipole Moment: [e a0]
     X:     4.3445      Y:     4.7170      Z:    -3.2086

  Electronic Dipole Moment: [e a0]
     X:    -3.6694      Y:    -4.7636      Z:     3.1505

  Dipole Moment: [e a0]
     X:     0.6751      Y:    -0.0467      Z:    -0.0580     Total:     0.6792

  Dipole Moment: [D]
     X:     1.7159      Y:    -0.1186      Z:    -0.1475     Total:     1.7263

*** tstop() called on ds3 at Mon Apr 27 08:00:12 2020
Module time:
	user time   =      12.02 seconds =       0.20 minutes
	system time =       5.34 seconds =       0.09 minutes
	total time  =         32 seconds =       0.53 minutes
Total time:
	user time   =      12.02 seconds =       0.20 minutes
	system time =       5.34 seconds =       0.09 minutes
	total time  =         32 seconds =       0.53 minutes
                                     G D M A

                                 by Anthony Stone

                           version 2.2.06, 22 June 2011

               Distributed Multipoles from Gaussian wavefunctions

Starting at 8:0:12 on 27 Apr 2020

Using SCF density matrix from file ./SSI/SSI-113SER-120ILE-1-dimer.test.426.fchk

                         Distributed Multipole Analysis

Standard DMA

Positions and radii in angstrom
Multipole moments in atomic units, ea_0^k for rank k

C          x = -0.536884  y = -1.148386  z =  0.254721 angstrom
           Maximum rank =  0   Radius =  0.650 angstrom
                   Q00  =   0.121121

C          x = -0.296884  y = -2.114386  z = -0.901279 angstrom
           Maximum rank =  0   Radius =  0.650 angstrom
                   Q00  =  -0.263324

O          x = -1.367884  y = -1.731386  z =  1.244721 angstrom
           Maximum rank =  0   Radius =  0.650 angstrom
                   Q00  =  -0.612493

H          x =  0.418116  y = -0.874386  z =  0.706721 angstrom
           Maximum rank =  0   Radius =  0.325 angstrom
                   Q00  =   0.032213

H          x = -1.014884  y = -0.245386  z = -0.122279 angstrom
           Maximum rank =  0   Radius =  0.325 angstrom
                   Q00  =   0.083058

H          x = -1.244884  y = -2.299386  z = -1.407279 angstrom
           Maximum rank =  0   Radius =  0.325 angstrom
                   Q00  =   0.092560

H          x = -0.790884  y = -2.263386  z =  1.818721 angstrom
           Maximum rank =  0   Radius =  0.325 angstrom
                   Q00  =   0.391552

H          x =  0.105259  y = -3.068626  z = -0.530186 angstrom
           Maximum rank =  0   Radius =  0.325 angstrom
                   Q00  =   0.078222

H          x =  0.419076  y = -1.680926  z = -1.615083 angstrom
           Maximum rank =  0   Radius =  0.325 angstrom
                   Q00  =   0.079151

C          x =  0.849116  y =  1.873614  z = -0.378279 angstrom
           Maximum rank =  0   Radius =  0.650 angstrom
                   Q00  =  -0.243061

C          x =  1.418116  y =  3.273614  z = -0.346279 angstrom
           Maximum rank =  0   Radius =  0.650 angstrom
                   Q00  =  -0.226631

H          x =  0.277116  y =  1.672614  z =  0.525721 angstrom
           Maximum rank =  0   Radius =  0.325 angstrom
                   Q00  =   0.078608

H          x =  0.175116  y =  1.781614  z = -1.229279 angstrom
           Maximum rank =  0   Radius =  0.325 angstrom
                   Q00  =   0.077435

H          x =  1.653116  y =  1.143614  z = -0.478279 angstrom
           Maximum rank =  0   Radius =  0.325 angstrom
                   Q00  =   0.075291

H          x =  0.604116  y =  3.985614  z = -0.194279 angstrom
           Maximum rank =  0   Radius =  0.325 angstrom
                   Q00  =   0.079287

H          x =  1.851116  y =  3.464614  z = -1.327279 angstrom
           Maximum rank =  0   Radius =  0.325 angstrom
                   Q00  =   0.075624

H          x =  2.188936  y =  3.424494  z =  0.423830 angstrom
           Maximum rank =  0   Radius =  0.325 angstrom
                   Q00  =   0.081388

Total multipoles referred to origin at
           x =   0.000000,  y =    0.000000,  z =    0.000000 angstrom
                   Q00  =  -0.000000

Finished at 8:0:12 on 27 Apr 2020

  DMA results are available in the Python driver through the
	  variable('DMA DISTRIBUTED MULTIPOLES')
  and
	  variable('DMA TOTAL MULTIPOLES')
  commands.

    Psi4 stopped on: Monday, 27 April 2020 08:00AM
    Psi4 wall time for execution: 0:00:32.35

*** Psi4 exiting successfully. Buy a developer a beer!
