                               Psi4 1.3.2 release

  ==> Input File <==

--------------------------------------------------------------------------
import numpy as np
set {scf_type pk
basis cc-pvdz
d_convergence 10
gdma_switch   0
gdma_limit    0
gdma_origin   [ 0.0,  0.0,  0.0 ]
}
molecule test {
    units Angstrom
    0 1
    --
    0 1
    C               -2.442629768578659     1.570396324491730    -0.297640083778353
    C                0.302370231421341    -1.672603675508270    -0.801640083778353
    C                0.505370231421341    -0.494603675508270    -1.474640083778354
    C               -0.770629768578659    -1.817603675508270     0.039359916221647
    C               -0.394629768578659     0.556396324491730    -1.303640083778353
    C               -1.684629768578659    -0.774603675508270     0.198359916221647
    C               -1.489629768578659     0.419396324491730    -0.467640083778353
    H                1.004370231421341    -2.478603675508270    -0.940640083778353
    H                1.351370231421341    -0.393603675508270    -2.137640083778353
    H               -0.918629768578659    -2.749603675508270     0.568359916221647
    H               -0.226629768578659     1.487396324491730    -1.827640083778353
    H               -2.534629768578659    -0.889603675508270     0.854359916221647
    H               -3.456629768578659     1.187396324491730    -0.298640083778353
    H               -2.349629768578660     2.211396324491731    -1.175640083778353
    H               -2.271242768578659     2.177396324491731     0.603569916221647
    C                2.734370231421341     0.567396324491730     1.105359916221647
    C                2.658370231421341     1.166396324491730     2.462359916221647
    H                3.426370231421341     1.150396324491730     0.500359916221647
    H                3.109370231421341    -0.455603675508270     1.155359916221647
    H                1.745370231421341     0.571396324491730     0.652359916221647
    H                3.689370231421340     1.264396324491730     2.802359916221646
    H                2.191470231421341     2.160796324491731     2.518669916221647
    H                2.165520231421341     0.464975324491730     3.151639916221647

}
e, wfn = energy('scf', return_wfn=True)
gdma(wfn)
dmavals = variable('DMA DISTRIBUTED MULTIPOLES')
charges = np.array(dmavals)
print(charges)
np.save('SSI-116PHE-165VAL-1-dimer.npy', np.array(charges))--------------------------------------------------------------------------

*** tstart() called on ds3
*** at Mon Apr 27 20:02:50 2020

   => Loading Basis Set <=

    Name: CC-PVDZ
    Role: ORBITAL
    Keyword: BASIS
    atoms 1-7, 16-17  entry C          line   138 file /theoryfs2/ds/metcalf/miniconda2/envs/tf2gpu/share/psi4/basis/cc-pvdz.gbs
    atoms 8-15, 18-23 entry H          line    22 file /theoryfs2/ds/metcalf/miniconda2/envs/tf2gpu/share/psi4/basis/cc-pvdz.gbs

         ---------------------------------------------------------
                                   SCF
               by Justin Turney, Rob Parrish, Andy Simmonett
                          and Daniel G. A. Smith
                              RHF Reference
                        1 Threads,    500 MiB Core
         ---------------------------------------------------------

  ==> Geometry <==

    Molecular point group: c1
    Full point group: C1

    Geometry (in Angstrom), charge = 0, multiplicity = 1:

       Center              X                  Y                   Z               Mass
    ------------   -----------------  -----------------  -----------------  -----------------
         C           -2.442629768579     1.570396324492    -0.297640083778    12.000000000000
         C            0.302370231421    -1.672603675508    -0.801640083778    12.000000000000
         C            0.505370231421    -0.494603675508    -1.474640083778    12.000000000000
         C           -0.770629768579    -1.817603675508     0.039359916222    12.000000000000
         C           -0.394629768579     0.556396324492    -1.303640083778    12.000000000000
         C           -1.684629768579    -0.774603675508     0.198359916222    12.000000000000
         C           -1.489629768579     0.419396324492    -0.467640083778    12.000000000000
         H            1.004370231421    -2.478603675508    -0.940640083778     1.007825032230
         H            1.351370231421    -0.393603675508    -2.137640083778     1.007825032230
         H           -0.918629768579    -2.749603675508     0.568359916222     1.007825032230
         H           -0.226629768579     1.487396324492    -1.827640083778     1.007825032230
         H           -2.534629768579    -0.889603675508     0.854359916222     1.007825032230
         H           -3.456629768579     1.187396324492    -0.298640083778     1.007825032230
         H           -2.349629768579     2.211396324492    -1.175640083778     1.007825032230
         H           -2.271242768579     2.177396324492     0.603569916222     1.007825032230
         C            2.734370231421     0.567396324492     1.105359916222    12.000000000000
         C            2.658370231421     1.166396324492     2.462359916222    12.000000000000
         H            3.426370231421     1.150396324492     0.500359916222     1.007825032230
         H            3.109370231421    -0.455603675508     1.155359916222     1.007825032230
         H            1.745370231421     0.571396324492     0.652359916222     1.007825032230
         H            3.689370231421     1.264396324492     2.802359916222     1.007825032230
         H            2.191470231421     2.160796324492     2.518669916222     1.007825032230
         H            2.165520231421     0.464975324492     3.151639916222     1.007825032230

  Running in c1 symmetry.

  Rotational constants: A =      0.06070  B =      0.02939  C =      0.02518 [cm^-1]
  Rotational constants: A =   1819.73868  B =    881.09930  C =    754.99851 [MHz]
  Nuclear repulsion =  414.710268768807566

  Charge       = 0
  Multiplicity = 1
  Electrons    = 68
  Nalpha       = 34
  Nbeta        = 34

  ==> Algorithm <==

  SCF Algorithm Type is PK.
  DIIS enabled.
  MOM disabled.
  Fractional occupation disabled.
  Guess Type is SAD.
  Energy threshold   = 1.00e-06
  Density threshold  = 1.00e-10
  Integral threshold = 0.00e+00

  ==> Primary Basis <==

  Basis Set: CC-PVDZ
    Blend: CC-PVDZ
    Number of shells: 96
    Number of basis function: 196
    Number of Cartesian functions: 205
    Spherical Harmonics?: true
    Max angular momentum: 2

  ==> Pre-Iterations <==

   -------------------------------------------------------
    Irrep   Nso     Nmo     Nalpha   Nbeta   Ndocc  Nsocc
   -------------------------------------------------------
     A        196     196       0       0       0       0
   -------------------------------------------------------
    Total     196     196      34      34      34       0
   -------------------------------------------------------

  ==> Integral Setup <==

  Using integral reordering PK algorithm.
  Sizing the integral batches needed.
  Building batch lookup table.
   Calculation information:
      Number of atoms:                  23
      Number of AO shells:              96
      Number of primitives:            268
      Number of atomic orbitals:       205
      Number of basis functions:       196

      Integral cutoff                 1.00e-12
      Number of threads:                 1

	Batch   1 pq = [       0,    9405] index = [             0,44231715] size =     44231715
	Batch   2 pq = [    9405,   13301] index = [      44231715,88464951] size =     44233236
	Batch   3 pq = [   13301,   16290] index = [      88464951,132690195] size =     44225244
	Batch   4 pq = [   16290,   18810] index = [     132690195,176917455] size =     44227260
	Batch   5 pq = [   18810,   19306] index = [     176917455,186370471] size =      9453016
  Task number: 17
  Buffer size: 11059200
  Buffer per thread: 2
  We computed 10014813 shell quartets total.
  Whereas there are 10841496 unique shell quartets.

  ==> DiskJK: Disk-Based J/K Matrices <==

    J tasked:                  Yes
    K tasked:                  Yes
    wK tasked:                  No
    Memory [MiB]:              375
    Schwarz Cutoff:          1E-12

    OpenMP threads:              1

  Minimum eigenvalue in the overlap matrix is 2.9363224339E-04.
  Using Symmetric Orthogonalization.

  SCF Guess: Superposition of Atomic Densities via on-the-fly atomic UHF.

  ==> Iterations <==

                        Total Energy        Delta E     RMS |[F,P]|

   @RHF iter SAD:  -348.06517535592451   -3.48065e+02   0.00000e+00
   @RHF iter   1:  -348.75467097947046   -6.89496e-01   2.96508e-03 DIIS
   @RHF iter   2:  -348.95277326613297   -1.98102e-01   1.25095e-03 DIIS
   @RHF iter   3:  -348.98514440789489   -3.23711e-02   2.61981e-04 DIIS
   @RHF iter   4:  -348.98766404242861   -2.51963e-03   5.38433e-05 DIIS
   @RHF iter   5:  -348.98774012412957   -7.60817e-05   1.75331e-05 DIIS
   @RHF iter   6:  -348.98774768498708   -7.56086e-06   4.86544e-06 DIIS
   @RHF iter   7:  -348.98774833554870   -6.50562e-07   1.24533e-06 DIIS
   @RHF iter   8:  -348.98774838025633   -4.47076e-08   2.62968e-07 DIIS
   @RHF iter   9:  -348.98774838333077   -3.07443e-09   9.24219e-08 DIIS
   @RHF iter  10:  -348.98774838374567   -4.14900e-10   3.55806e-08 DIIS
   @RHF iter  11:  -348.98774838384878   -1.03114e-10   1.29028e-08 DIIS
   @RHF iter  12:  -348.98774838386498   -1.62004e-11   6.27760e-09 DIIS
   @RHF iter  13:  -348.98774838387374   -8.75389e-12   3.12234e-09 DIIS
   @RHF iter  14:  -348.98774838387357    1.70530e-13   8.54669e-10 DIIS
   @RHF iter  15:  -348.98774838387328    2.84217e-13   3.07263e-10 DIIS
   @RHF iter  16:  -348.98774838387044    2.84217e-12   8.49186e-11 DIIS
  Energy and wave function converged.

  ==> Post-Iterations <==

    Orbital Energies [Eh]
    ---------------------

    Doubly Occupied:

       1A    -11.237640     2A    -11.233705     3A    -11.232013
       4A    -11.229544     5A    -11.228541     6A    -11.228155
       7A    -11.225456     8A    -11.208325     9A    -11.202472
      10A     -1.158957    11A     -1.049667    12A     -1.021337
      13A     -1.011980    14A     -0.933433    15A     -0.829831
      16A     -0.824513    17A     -0.794560    18A     -0.693933
      19A     -0.634459    20A     -0.629006    21A     -0.595984
      22A     -0.594354    23A     -0.582333    24A     -0.578961
      25A     -0.564316    26A     -0.533932    27A     -0.506533
      28A     -0.493830    29A     -0.486810    30A     -0.479663
      31A     -0.473043    32A     -0.463962    33A     -0.330870
      34A     -0.327118

    Virtual:

      35A      0.134760    36A      0.144804    37A      0.178347
      38A      0.198911    39A      0.199514    40A      0.216587
      41A      0.239323    42A      0.247536    43A      0.253134
      44A      0.260909    45A      0.265890    46A      0.277018
      47A      0.280517    48A      0.291805    49A      0.301799
      50A      0.317511    51A      0.369671    52A      0.377196
      53A      0.414979    54A      0.455426    55A      0.466639
      56A      0.478979    57A      0.494297    58A      0.565875
      59A      0.576532    60A      0.596463    61A      0.603980
      62A      0.619464    63A      0.638848    64A      0.646129
      65A      0.680728    66A      0.685220    67A      0.698084
      68A      0.703488    69A      0.730618    70A      0.745550
      71A      0.747068    72A      0.756260    73A      0.768616
      74A      0.778188    75A      0.799749    76A      0.828033
      77A      0.852354    78A      0.857084    79A      0.861623
      80A      0.871470    81A      0.879534    82A      0.891460
      83A      0.893347    84A      0.897828    85A      0.902184
      86A      0.910256    87A      0.920608    88A      0.927833
      89A      0.930308    90A      0.940593    91A      0.950692
      92A      0.961348    93A      0.984462    94A      1.012698
      95A      1.042976    96A      1.092722    97A      1.125627
      98A      1.135220    99A      1.139030   100A      1.147440
     101A      1.159575   102A      1.171786   103A      1.192176
     104A      1.233240   105A      1.245753   106A      1.256077
     107A      1.263495   108A      1.290794   109A      1.308985
     110A      1.314166   111A      1.328028   112A      1.344149
     113A      1.415350   114A      1.480617   115A      1.506722
     116A      1.512374   117A      1.528626   118A      1.557731
     119A      1.595665   120A      1.610854   121A      1.673139
     122A      1.691004   123A      1.699629   124A      1.705592
     125A      1.742439   126A      1.751179   127A      1.767005
     128A      1.795648   129A      1.829732   130A      1.865651
     131A      1.867574   132A      1.870738   133A      1.896475
     134A      1.897300   135A      1.910075   136A      1.917679
     137A      1.923724   138A      1.928190   139A      1.948530
     140A      1.952621   141A      1.954057   142A      1.964752
     143A      1.971353   144A      1.980961   145A      1.982820
     146A      1.995147   147A      2.011079   148A      2.040975
     149A      2.056416   150A      2.066342   151A      2.074069
     152A      2.092959   153A      2.116705   154A      2.144742
     155A      2.165320   156A      2.169730   157A      2.185562
     158A      2.194532   159A      2.205523   160A      2.254870
     161A      2.280283   162A      2.302932   163A      2.308139
     164A      2.321448   165A      2.324425   166A      2.332690
     167A      2.339789   168A      2.461604   169A      2.473490
     170A      2.477801   171A      2.490696   172A      2.516814
     173A      2.551022   174A      2.562032   175A      2.615605
     176A      2.628886   177A      2.741233   178A      2.769262
     179A      2.771574   180A      2.774463   181A      2.796984
     182A      2.814396   183A      2.819884   184A      2.860791
     185A      2.865309   186A      2.888604   187A      2.895713
     188A      2.961744   189A      2.990500   190A      3.006711
     191A      3.030636   192A      3.051705   193A      3.168462
     194A      3.220601   195A      3.318040   196A      4.004370

    Final Occupation by Irrep:
              A
    DOCC [    34 ]

  @RHF Final Energy:  -348.98774838387044

   => Energetics <=

    Nuclear Repulsion Energy =            414.7102687688075662
    One-Electron Energy =               -1292.1575669257099435
    Two-Electron Energy =                 528.4595497730319948
    Total Energy =                       -348.9877483838704393

Computation Completed

Properties will be evaluated at   0.000000,   0.000000,   0.000000 [a0]

Properties computed using the SCF density matrix

  Nuclear Dipole Moment: [e a0]
     X:     6.4927      Y:     5.3516      Z:     6.0250

  Electronic Dipole Moment: [e a0]
     X:    -6.6154      Y:    -5.2995      Z:    -6.0572

  Dipole Moment: [e a0]
     X:    -0.1227      Y:     0.0521      Z:    -0.0323     Total:     0.1371

  Dipole Moment: [D]
     X:    -0.3118      Y:     0.1324      Z:    -0.0820     Total:     0.3486

*** tstop() called on ds3 at Mon Apr 27 20:04:21 2020
Module time:
	user time   =      66.95 seconds =       1.12 minutes
	system time =      27.54 seconds =       0.46 minutes
	total time  =         91 seconds =       1.52 minutes
Total time:
	user time   =      66.95 seconds =       1.12 minutes
	system time =      27.54 seconds =       0.46 minutes
	total time  =         91 seconds =       1.52 minutes
                                     G D M A

                                 by Anthony Stone

                           version 2.2.06, 22 June 2011

               Distributed Multipoles from Gaussian wavefunctions

Starting at 20:4:21 on 27 Apr 2020

Using SCF density matrix from file ./SSI/SSI-116PHE-165VAL-1-dimer.test.12785.fchk

                         Distributed Multipole Analysis

Standard DMA

Positions and radii in angstrom
Multipole moments in atomic units, ea_0^k for rank k

C          x = -2.442630  y =  1.570396  z = -0.297640 angstrom
           Maximum rank =  0   Radius =  0.650 angstrom
                   Q00  =  -0.204477

C          x =  0.302370  y = -1.672604  z = -0.801640 angstrom
           Maximum rank =  0   Radius =  0.650 angstrom
                   Q00  =  -0.076657

C          x =  0.505370  y = -0.494604  z = -1.474640 angstrom
           Maximum rank =  0   Radius =  0.650 angstrom
                   Q00  =  -0.063769

C          x = -0.770630  y = -1.817604  z =  0.039360 angstrom
           Maximum rank =  0   Radius =  0.650 angstrom
                   Q00  =  -0.030182

C          x = -0.394630  y =  0.556396  z = -1.303640 angstrom
           Maximum rank =  0   Radius =  0.650 angstrom
                   Q00  =  -0.033920

C          x = -1.684630  y = -0.774604  z =  0.198360 angstrom
           Maximum rank =  0   Radius =  0.650 angstrom
                   Q00  =  -0.085105

C          x = -1.489630  y =  0.419396  z = -0.467640 angstrom
           Maximum rank =  0   Radius =  0.650 angstrom
                   Q00  =  -0.094675

H          x =  1.004370  y = -2.478604  z = -0.940640 angstrom
           Maximum rank =  0   Radius =  0.325 angstrom
                   Q00  =   0.055670

H          x =  1.351370  y = -0.393604  z = -2.137640 angstrom
           Maximum rank =  0   Radius =  0.325 angstrom
                   Q00  =   0.064009

H          x = -0.918630  y = -2.749604  z =  0.568360 angstrom
           Maximum rank =  0   Radius =  0.325 angstrom
                   Q00  =   0.062428

H          x = -0.226630  y =  1.487396  z = -1.827640 angstrom
           Maximum rank =  0   Radius =  0.325 angstrom
                   Q00  =   0.055487

H          x = -2.534630  y = -0.889604  z =  0.854360 angstrom
           Maximum rank =  0   Radius =  0.325 angstrom
                   Q00  =   0.056386

H          x = -3.456630  y =  1.187396  z = -0.298640 angstrom
           Maximum rank =  0   Radius =  0.325 angstrom
                   Q00  =   0.100052

H          x = -2.349630  y =  2.211396  z = -1.175640 angstrom
           Maximum rank =  0   Radius =  0.325 angstrom
                   Q00  =   0.094787

H          x = -2.271243  y =  2.177396  z =  0.603570 angstrom
           Maximum rank =  0   Radius =  0.325 angstrom
                   Q00  =   0.105837

C          x =  2.734370  y =  0.567396  z =  1.105360 angstrom
           Maximum rank =  0   Radius =  0.650 angstrom
                   Q00  =  -0.212094

C          x =  2.658370  y =  1.166396  z =  2.462360 angstrom
           Maximum rank =  0   Radius =  0.650 angstrom
                   Q00  =  -0.233936

H          x =  3.426370  y =  1.150396  z =  0.500360 angstrom
           Maximum rank =  0   Radius =  0.325 angstrom
                   Q00  =   0.063884

H          x =  3.109370  y = -0.455604  z =  1.155360 angstrom
           Maximum rank =  0   Radius =  0.325 angstrom
                   Q00  =   0.073651

H          x =  1.745370  y =  0.571396  z =  0.652360 angstrom
           Maximum rank =  0   Radius =  0.325 angstrom
                   Q00  =   0.091013

H          x =  3.689370  y =  1.264396  z =  2.802360 angstrom
           Maximum rank =  0   Radius =  0.325 angstrom
                   Q00  =   0.062147

H          x =  2.191470  y =  2.160796  z =  2.518670 angstrom
           Maximum rank =  0   Radius =  0.325 angstrom
                   Q00  =   0.077537

H          x =  2.165520  y =  0.464975  z =  3.151640 angstrom
           Maximum rank =  0   Radius =  0.325 angstrom
                   Q00  =   0.071928

Total multipoles referred to origin at
           x =   0.000000,  y =    0.000000,  z =    0.000000 angstrom
                   Q00  =  -0.000000

Finished at 20:4:21 on 27 Apr 2020

  DMA results are available in the Python driver through the
	  variable('DMA DISTRIBUTED MULTIPOLES')
  and
	  variable('DMA TOTAL MULTIPOLES')
  commands.

    Psi4 stopped on: Monday, 27 April 2020 08:04PM
    Psi4 wall time for execution: 0:01:31.41

*** Psi4 exiting successfully. Buy a developer a beer!
