                               Psi4 1.3.2 release

  ==> Input File <==

--------------------------------------------------------------------------
import numpy as np
set {scf_type pk
basis cc-pvdz
d_convergence 10
gdma_switch   0
gdma_limit    0
gdma_origin   [ 0.0,  0.0,  0.0 ]
}
molecule test {
    units Angstrom
    0 1
    --
    0 1
    C                0.101150788730673    -0.529179571671470    -3.531983887711510
    C                0.399150788730673    -1.603179571671471    -4.567983887711510
    H               -0.490849211269327    -0.939179571671471    -2.712983887711510
    H                1.035150788730673    -0.138179571671470    -3.130983887711510
    H               -0.441849211269327     0.293820428328530    -3.995983887711510
    H                0.894150788730673    -1.165179571671470    -5.434983887711510
    H               -0.530729211269327    -2.107079571671470    -4.870323887711510
    H                1.074980788730673    -2.319409571671470    -4.077813887711510
    C               -2.592849211269327     0.570820428328529    -0.494983887711510
    C               -0.243849211269327     0.409820428328530     0.545016112288490
    C               -1.643849211269327     0.139820428328530     0.530016112288490
    C                0.282150788730673    -0.150179571671470     1.734016112288490
    C               -1.922849211269327    -0.555179571671471     1.651016112288490
    C                0.624150788730673     1.084820428328529    -0.318983887711510
    C                1.977150788730673     1.186820428328530     0.006016112288490
    C                2.465150788730673     0.628820428328529     1.190016112288490
    C                1.633150788730673    -0.058179571671470     2.057016112288490
    N               -0.767849211269327    -0.742179571671470     2.385016112288490
    H                0.250150788730673     1.512820428328530    -1.236983887711510
    H                2.653150788730673     1.705820428328530    -0.660983887711510
    H                3.513150788730673     0.725820428328529     1.417016112288490
    H               -3.408849211269327    -0.153179571671470    -0.542983887711510
    H               -2.088849211269327     0.567820428328530    -1.461983887711510
    H               -2.910849211269327    -0.905179571671471     1.936016112288490
    H               -0.724849211269327    -1.235179571671470     3.270016112288490
    H                2.015150788730673    -0.496179571671470     2.968016112288490
    H               -3.013699211269327     1.569270428328530    -0.305313887711510

}
e, wfn = energy('scf', return_wfn=True)
gdma(wfn)
dmavals = variable('DMA DISTRIBUTED MULTIPOLES')
charges = np.array(dmavals)
print(charges)
np.save('SSI-040THR-044TRP-1-dimer.npy', np.array(charges))--------------------------------------------------------------------------

*** tstart() called on ds3
*** at Mon Apr 27 03:55:19 2020

   => Loading Basis Set <=

    Name: CC-PVDZ
    Role: ORBITAL
    Keyword: BASIS
    atoms 1-2, 9-17  entry C          line   138 file /theoryfs2/ds/metcalf/miniconda2/envs/tf2gpu/share/psi4/basis/cc-pvdz.gbs
    atoms 3-8, 19-27 entry H          line    22 file /theoryfs2/ds/metcalf/miniconda2/envs/tf2gpu/share/psi4/basis/cc-pvdz.gbs
    atoms 18         entry N          line   168 file /theoryfs2/ds/metcalf/miniconda2/envs/tf2gpu/share/psi4/basis/cc-pvdz.gbs

         ---------------------------------------------------------
                                   SCF
               by Justin Turney, Rob Parrish, Andy Simmonett
                          and Daniel G. A. Smith
                              RHF Reference
                        1 Threads,    500 MiB Core
         ---------------------------------------------------------

  ==> Geometry <==

    Molecular point group: c1
    Full point group: C1

    Geometry (in Angstrom), charge = 0, multiplicity = 1:

       Center              X                  Y                   Z               Mass
    ------------   -----------------  -----------------  -----------------  -----------------
         C            0.101150788731    -0.529179571671    -3.531983887712    12.000000000000
         C            0.399150788731    -1.603179571671    -4.567983887712    12.000000000000
         H           -0.490849211269    -0.939179571671    -2.712983887712     1.007825032230
         H            1.035150788731    -0.138179571671    -3.130983887712     1.007825032230
         H           -0.441849211269     0.293820428329    -3.995983887712     1.007825032230
         H            0.894150788731    -1.165179571671    -5.434983887712     1.007825032230
         H           -0.530729211269    -2.107079571671    -4.870323887712     1.007825032230
         H            1.074980788731    -2.319409571671    -4.077813887712     1.007825032230
         C           -2.592849211269     0.570820428329    -0.494983887712    12.000000000000
         C           -0.243849211269     0.409820428329     0.545016112288    12.000000000000
         C           -1.643849211269     0.139820428329     0.530016112288    12.000000000000
         C            0.282150788731    -0.150179571671     1.734016112288    12.000000000000
         C           -1.922849211269    -0.555179571671     1.651016112288    12.000000000000
         C            0.624150788731     1.084820428329    -0.318983887712    12.000000000000
         C            1.977150788731     1.186820428329     0.006016112288    12.000000000000
         C            2.465150788731     0.628820428329     1.190016112288    12.000000000000
         C            1.633150788731    -0.058179571671     2.057016112288    12.000000000000
         N           -0.767849211269    -0.742179571671     2.385016112288    14.003074004430
         H            0.250150788731     1.512820428329    -1.236983887712     1.007825032230
         H            2.653150788731     1.705820428329    -0.660983887712     1.007825032230
         H            3.513150788731     0.725820428329     1.417016112288     1.007825032230
         H           -3.408849211269    -0.153179571671    -0.542983887712     1.007825032230
         H           -2.088849211269     0.567820428329    -1.461983887712     1.007825032230
         H           -2.910849211269    -0.905179571671     1.936016112288     1.007825032230
         H           -0.724849211269    -1.235179571671     3.270016112288     1.007825032230
         H            2.015150788731    -0.496179571671     2.968016112288     1.007825032230
         H           -3.013699211269     1.569270428329    -0.305313887712     1.007825032230

  Running in c1 symmetry.

  Rotational constants: A =      0.03468  B =      0.01949  C =      0.01442 [cm^-1]
  Rotational constants: A =   1039.60104  B =    584.17462  C =    432.19970 [MHz]
  Nuclear repulsion =  654.109604595570090

  Charge       = 0
  Multiplicity = 1
  Electrons    = 88
  Nalpha       = 44
  Nbeta        = 44

  ==> Algorithm <==

  SCF Algorithm Type is PK.
  DIIS enabled.
  MOM disabled.
  Fractional occupation disabled.
  Guess Type is SAD.
  Energy threshold   = 1.00e-06
  Density threshold  = 1.00e-10
  Integral threshold = 0.00e+00

  ==> Primary Basis <==

  Basis Set: CC-PVDZ
    Blend: CC-PVDZ
    Number of shells: 117
    Number of basis function: 243
    Number of Cartesian functions: 255
    Spherical Harmonics?: true
    Max angular momentum: 2

  ==> Pre-Iterations <==

   -------------------------------------------------------
    Irrep   Nso     Nmo     Nalpha   Nbeta   Ndocc  Nsocc
   -------------------------------------------------------
     A        243     243       0       0       0       0
   -------------------------------------------------------
    Total     243     243      44      44      44       0
   -------------------------------------------------------

  ==> Integral Setup <==

  Using integral reordering PK algorithm.
  Sizing the integral batches needed.
  Building batch lookup table.
   Calculation information:
      Number of atoms:                  27
      Number of AO shells:             117
      Number of primitives:            339
      Number of atomic orbitals:       255
      Number of basis functions:       243

      Integral cutoff                 1.00e-12
      Number of threads:                 1

	Batch   1 pq = [       0,    9405] index = [             0,44231715] size =     44231715
	Batch   2 pq = [    9405,   13301] index = [      44231715,88464951] size =     44233236
	Batch   3 pq = [   13301,   16290] index = [      88464951,132690195] size =     44225244
	Batch   4 pq = [   16290,   18810] index = [     132690195,176917455] size =     44227260
	Batch   5 pq = [   18810,   21030] index = [     176917455,221140965] size =     44223510
	Batch   6 pq = [   21030,   23037] index = [     221140965,265363203] size =     44222238
	Batch   7 pq = [   23037,   24883] index = [     265363203,309594286] size =     44231083
	Batch   8 pq = [   24883,   26601] index = [     309594286,353819901] size =     44225615
	Batch   9 pq = [   26601,   28214] index = [     353819901,398029005] size =     44209104
	Batch  10 pq = [   28214,   29646] index = [     398029005,439457481] size =     41428476
  Task number: 40
  Buffer size: 11059200
  Buffer per thread: 2
  We computed 22966652 shell quartets total.
  Whereas there are 23829156 unique shell quartets.

  ==> DiskJK: Disk-Based J/K Matrices <==

    J tasked:                  Yes
    K tasked:                  Yes
    wK tasked:                  No
    Memory [MiB]:              375
    Schwarz Cutoff:          1E-12

    OpenMP threads:              1

  Minimum eigenvalue in the overlap matrix is 2.3261706563E-04.
  Using Symmetric Orthogonalization.

  SCF Guess: Superposition of Atomic Densities via on-the-fly atomic UHF.

  ==> Iterations <==

                        Total Energy        Delta E     RMS |[F,P]|

   @RHF iter SAD:  -479.15991565345007   -4.79160e+02   0.00000e+00
   @RHF iter   1:  -479.48147651441400   -3.21561e-01   2.63947e-03 DIIS
   @RHF iter   2:  -479.71753416642053   -2.36058e-01   1.19040e-03 DIIS
   @RHF iter   3:  -479.76150808216590   -4.39739e-02   3.09123e-04 DIIS
   @RHF iter   4:  -479.76542230376776   -3.91422e-03   1.42587e-04 DIIS
   @RHF iter   5:  -479.76610169255332   -6.79389e-04   2.02094e-05 DIIS
   @RHF iter   6:  -479.76613206942159   -3.03769e-05   9.33074e-06 DIIS
   @RHF iter   7:  -479.76613843619896   -6.36678e-06   4.00231e-06 DIIS
   @RHF iter   8:  -479.76614035008708   -1.91389e-06   1.60874e-06 DIIS
   @RHF iter   9:  -479.76614074929898   -3.99212e-07   7.10991e-07 DIIS
   @RHF iter  10:  -479.76614082730828   -7.80093e-08   3.20488e-07 DIIS
   @RHF iter  11:  -479.76614084481037   -1.75021e-08   1.15405e-07 DIIS
   @RHF iter  12:  -479.76614084699941   -2.18904e-09   3.59143e-08 DIIS
   @RHF iter  13:  -479.76614084714174   -1.42336e-10   9.19024e-09 DIIS
   @RHF iter  14:  -479.76614084714822   -6.48015e-12   3.32501e-09 DIIS
   @RHF iter  15:  -479.76614084714947   -1.25056e-12   1.71669e-09 DIIS
   @RHF iter  16:  -479.76614084715078   -1.30740e-12   8.93919e-10 DIIS
   @RHF iter  17:  -479.76614084715345   -2.67164e-12   3.30159e-10 DIIS
   @RHF iter  18:  -479.76614084715470   -1.25056e-12   1.38071e-10 DIIS
   @RHF iter  19:  -479.76614084714703    7.67386e-12   4.59363e-11 DIIS
  Energy and wave function converged.

  ==> Post-Iterations <==

    Orbital Energies [Eh]
    ---------------------

    Doubly Occupied:

       1A    -15.599873     2A    -11.263155     3A    -11.260948
       4A    -11.229474     5A    -11.229137     6A    -11.227432
       7A    -11.221824     8A    -11.219822     9A    -11.216951
      10A    -11.214243    11A    -11.211678    12A    -11.209707
      13A     -1.293970    14A     -1.127869    15A     -1.079630
      16A     -1.015579    17A     -0.996113    18A     -0.989162
      19A     -0.932547    20A     -0.839676    21A     -0.829713
      22A     -0.804378    23A     -0.750877    24A     -0.718303
      25A     -0.663138    26A     -0.643024    27A     -0.602531
      28A     -0.596646    29A     -0.594773    30A     -0.592551
      31A     -0.589295    32A     -0.568944    33A     -0.551619
      34A     -0.541922    35A     -0.525460    36A     -0.495704
      37A     -0.495138    38A     -0.481559    39A     -0.477481
      40A     -0.469451    41A     -0.460146    42A     -0.372156
      43A     -0.294583    44A     -0.275058

    Virtual:

      45A      0.126057    46A      0.169933    47A      0.181101
      48A      0.182520    49A      0.198898    50A      0.202841
      51A      0.220327    52A      0.224441    53A      0.228462
      54A      0.252127    55A      0.259350    56A      0.265670
      57A      0.272794    58A      0.284090    59A      0.295277
      60A      0.300310    61A      0.308677    62A      0.326432
      63A      0.375469    64A      0.380214    65A      0.411417
      66A      0.419147    67A      0.423976    68A      0.448499
      69A      0.475589    70A      0.483765    71A      0.504981
      72A      0.514839    73A      0.595565    74A      0.599989
      75A      0.606467    76A      0.612866    77A      0.629581
      78A      0.644034    79A      0.644775    80A      0.661153
      81A      0.678415    82A      0.696896    83A      0.701763
      84A      0.711739    85A      0.731685    86A      0.737758
      87A      0.740727    88A      0.744363    89A      0.748545
      90A      0.762882    91A      0.768720    92A      0.779391
      93A      0.791662    94A      0.800233    95A      0.807438
      96A      0.836923    97A      0.837987    98A      0.872456
      99A      0.878345   100A      0.886330   101A      0.887201
     102A      0.896820   103A      0.898672   104A      0.904331
     105A      0.915167   106A      0.917486   107A      0.922379
     108A      0.938023   109A      0.954638   110A      0.962105
     111A      0.968848   112A      0.979732   113A      0.990423
     114A      1.003005   115A      1.021842   116A      1.030426
     117A      1.058666   118A      1.079889   119A      1.092088
     120A      1.121734   121A      1.134040   122A      1.142152
     123A      1.144094   124A      1.160057   125A      1.161883
     126A      1.176105   127A      1.214730   128A      1.219391
     129A      1.237872   130A      1.241738   131A      1.251352
     132A      1.267390   133A      1.281798   134A      1.292514
     135A      1.308759   136A      1.328970   137A      1.338784
     138A      1.363126   139A      1.374991   140A      1.426865
     141A      1.445473   142A      1.481584   143A      1.490990
     144A      1.531344   145A      1.560844   146A      1.578444
     147A      1.591064   148A      1.606256   149A      1.626975
     150A      1.641562   151A      1.657935   152A      1.679035
     153A      1.691347   154A      1.702935   155A      1.710581
     156A      1.741680   157A      1.765866   158A      1.774944
     159A      1.791136   160A      1.809690   161A      1.827123
     162A      1.833384   163A      1.867289   164A      1.878003
     165A      1.889441   166A      1.893393   167A      1.905627
     168A      1.910066   169A      1.922748   170A      1.926495
     171A      1.937245   172A      1.942967   173A      1.948205
     174A      1.951218   175A      1.965582   176A      1.970559
     177A      1.979821   178A      1.982007   179A      2.004024
     180A      2.016244   181A      2.022389   182A      2.036578
     183A      2.055142   184A      2.078924   185A      2.089310
     186A      2.098223   187A      2.102425   188A      2.107144
     189A      2.118115   190A      2.128681   191A      2.141906
     192A      2.153562   193A      2.170043   194A      2.179526
     195A      2.183185   196A      2.234189   197A      2.272651
     198A      2.287156   199A      2.301057   200A      2.310033
     201A      2.316985   202A      2.335554   203A      2.349215
     204A      2.372042   205A      2.411378   206A      2.424591
     207A      2.453591   208A      2.458999   209A      2.474876
     210A      2.478074   211A      2.544971   212A      2.572124
     213A      2.587936   214A      2.598224   215A      2.610736
     216A      2.646899   217A      2.666138   218A      2.692158
     219A      2.717928   220A      2.768940   221A      2.772796
     222A      2.785604   223A      2.789452   224A      2.799897
     225A      2.806766   226A      2.833044   227A      2.837538
     228A      2.862940   229A      2.876343   230A      2.889136
     231A      2.919521   232A      2.955474   233A      2.968232
     234A      2.988662   235A      3.043055   236A      3.048836
     237A      3.085028   238A      3.126227   239A      3.213227
     240A      3.319110   241A      3.392780   242A      3.746761
     243A      3.960183

    Final Occupation by Irrep:
              A
    DOCC [    44 ]

  @RHF Final Energy:  -479.76614084714703

   => Energetics <=

    Nuclear Repulsion Energy =            654.1096045955700902
    One-Electron Energy =               -1946.2050129314070546
    Two-Electron Energy =                 812.3292674886898794
    Total Energy =                       -479.7661408471470850

Computation Completed

Properties will be evaluated at   0.000000,   0.000000,   0.000000 [a0]

Properties computed using the SCF density matrix

  Nuclear Dipole Moment: [e a0]
     X:    -2.0364      Y:    -2.8884      Z:   -17.6691

  Electronic Dipole Moment: [e a0]
     X:     1.6485      Y:     2.5030      Z:    18.2663

  Dipole Moment: [e a0]
     X:    -0.3880      Y:    -0.3854      Z:     0.5972     Total:     0.8098

  Dipole Moment: [D]
     X:    -0.9861      Y:    -0.9797      Z:     1.5179     Total:     2.0582

*** tstop() called on ds3 at Mon Apr 27 04:08:21 2020
Module time:
	user time   =     175.15 seconds =       2.92 minutes
	system time =      66.76 seconds =       1.11 minutes
	total time  =        782 seconds =      13.03 minutes
Total time:
	user time   =     175.15 seconds =       2.92 minutes
	system time =      66.76 seconds =       1.11 minutes
	total time  =        782 seconds =      13.03 minutes
                                     G D M A

                                 by Anthony Stone

                           version 2.2.06, 22 June 2011

               Distributed Multipoles from Gaussian wavefunctions

Starting at 4:8:21 on 27 Apr 2020

Using SCF density matrix from file ./SSI/SSI-040THR-044TRP-1-dimer.test.22496.fchk

                         Distributed Multipole Analysis

Standard DMA

Positions and radii in angstrom
Multipole moments in atomic units, ea_0^k for rank k

C          x =  0.101151  y = -0.529180  z = -3.531984 angstrom
           Maximum rank =  0   Radius =  0.650 angstrom
                   Q00  =  -0.246483

C          x =  0.399151  y = -1.603180  z = -4.567984 angstrom
           Maximum rank =  0   Radius =  0.650 angstrom
                   Q00  =  -0.221713

H          x = -0.490849  y = -0.939180  z = -2.712984 angstrom
           Maximum rank =  0   Radius =  0.325 angstrom
                   Q00  =   0.084363

H          x =  1.035151  y = -0.138180  z = -3.130984 angstrom
           Maximum rank =  0   Radius =  0.325 angstrom
                   Q00  =   0.082104

H          x = -0.441849  y =  0.293820  z = -3.995984 angstrom
           Maximum rank =  0   Radius =  0.325 angstrom
                   Q00  =   0.069110

H          x =  0.894151  y = -1.165180  z = -5.434984 angstrom
           Maximum rank =  0   Radius =  0.325 angstrom
                   Q00  =   0.079524

H          x = -0.530729  y = -2.107080  z = -4.870324 angstrom
           Maximum rank =  0   Radius =  0.325 angstrom
                   Q00  =   0.077341

H          x =  1.074981  y = -2.319410  z = -4.077814 angstrom
           Maximum rank =  0   Radius =  0.325 angstrom
                   Q00  =   0.076435

C          x = -2.592849  y =  0.570820  z = -0.494984 angstrom
           Maximum rank =  0   Radius =  0.650 angstrom
                   Q00  =  -0.215363

C          x = -0.243849  y =  0.409820  z =  0.545016 angstrom
           Maximum rank =  0   Radius =  0.650 angstrom
                   Q00  =  -0.053238

C          x = -1.643849  y =  0.139820  z =  0.530016 angstrom
           Maximum rank =  0   Radius =  0.650 angstrom
                   Q00  =  -0.105690

C          x =  0.282151  y = -0.150180  z =  1.734016 angstrom
           Maximum rank =  0   Radius =  0.650 angstrom
                   Q00  =   0.245650

C          x = -1.922849  y = -0.555180  z =  1.651016 angstrom
           Maximum rank =  0   Radius =  0.650 angstrom
                   Q00  =   0.066290

C          x =  0.624151  y =  1.084820  z = -0.318984 angstrom
           Maximum rank =  0   Radius =  0.650 angstrom
                   Q00  =  -0.103525

C          x =  1.977151  y =  1.186820  z =  0.006016 angstrom
           Maximum rank =  0   Radius =  0.650 angstrom
                   Q00  =  -0.100376

C          x =  2.465151  y =  0.628820  z =  1.190016 angstrom
           Maximum rank =  0   Radius =  0.650 angstrom
                   Q00  =   0.000447

C          x =  1.633151  y = -0.058180  z =  2.057016 angstrom
           Maximum rank =  0   Radius =  0.650 angstrom
                   Q00  =  -0.122324

N          x = -0.767849  y = -0.742180  z =  2.385016 angstrom
           Maximum rank =  0   Radius =  0.650 angstrom
                   Q00  =  -0.498596

H          x =  0.250151  y =  1.512820  z = -1.236984 angstrom
           Maximum rank =  0   Radius =  0.325 angstrom
                   Q00  =   0.073311

H          x =  2.653151  y =  1.705820  z = -0.660984 angstrom
           Maximum rank =  0   Radius =  0.325 angstrom
                   Q00  =   0.059762

H          x =  3.513151  y =  0.725820  z =  1.417016 angstrom
           Maximum rank =  0   Radius =  0.325 angstrom
                   Q00  =   0.063389

H          x = -3.408849  y = -0.153180  z = -0.542984 angstrom
           Maximum rank =  0   Radius =  0.325 angstrom
                   Q00  =   0.099895

H          x = -2.088849  y =  0.567820  z = -1.461984 angstrom
           Maximum rank =  0   Radius =  0.325 angstrom
                   Q00  =   0.103023

H          x = -2.910849  y = -0.905180  z =  1.936016 angstrom
           Maximum rank =  0   Radius =  0.325 angstrom
                   Q00  =   0.099577

H          x = -0.724849  y = -1.235180  z =  3.270016 angstrom
           Maximum rank =  0   Radius =  0.325 angstrom
                   Q00  =   0.216506

H          x =  2.015151  y = -0.496180  z =  2.968016 angstrom
           Maximum rank =  0   Radius =  0.325 angstrom
                   Q00  =   0.071567

H          x = -3.013699  y =  1.569270  z = -0.305314 angstrom
           Maximum rank =  0   Radius =  0.325 angstrom
                   Q00  =   0.099014

Total multipoles referred to origin at
           x =   0.000000,  y =    0.000000,  z =    0.000000 angstrom
                   Q00  =  -0.000000

Finished at 4:8:22 on 27 Apr 2020

  DMA results are available in the Python driver through the
	  variable('DMA DISTRIBUTED MULTIPOLES')
  and
	  variable('DMA TOTAL MULTIPOLES')
  commands.

    Psi4 stopped on: Monday, 27 April 2020 04:08AM
    Psi4 wall time for execution: 0:13:02.91

*** Psi4 exiting successfully. Buy a developer a beer!
