                               Psi4 1.3.2 release

  ==> Input File <==

--------------------------------------------------------------------------
import numpy as np
set {scf_type pk
basis cc-pvdz
d_convergence 10
gdma_switch   0
gdma_limit    0
gdma_origin   [ 0.0,  0.0,  0.0 ]
}
molecule test {
    units Angstrom
    -1 1
    --
    -1 1
    C                1.569583744189803    -1.717387520135446     1.051838692146022
    C                0.595583744189803    -0.632387520135446     1.538838692146022
    O                0.737583744189804     0.555612479864554     1.164838692146022
    O               -0.332416255810197    -1.000387520135446     2.303838692146021
    H                1.011583744189803    -2.345387520135446     0.357838692146022
    H                1.880583744189803    -2.339387520135446     1.894838692146021
    H                2.470033744189803    -1.322087520135446     0.558968692146022
    C               -0.617416255810196     1.325612479864554    -1.678161307853978
    C                0.105583744189803     0.686612479864554    -2.871161307853979
    C               -2.053416255810197     0.825612479864554    -1.512161307853978
    H               -0.045416255810197     1.120612479864554    -0.807161307853978
    H               -0.641416255810196     2.408612479864555    -1.815161307853978
    H               -0.423416255810197     0.945612479864554    -3.790161307853979
    H                0.118583744189803    -0.398387520135446    -2.752161307853978
    H               -2.650416255810196     1.162612479864554    -2.367161307853979
    H               -2.036416255810197    -0.262387520135446    -1.521161307853978
    H                1.133797744189803     1.075532479864554    -2.910125307853979
    H               -2.484104255810196     1.202282479864554    -0.572681307853978

}
e, wfn = energy('scf', return_wfn=True)
gdma(wfn)
dmavals = variable('DMA DISTRIBUTED MULTIPOLES')
charges = np.array(dmavals)
print(charges)
np.save('SSI-159GLU-170LYS-1-dimer.npy', np.array(charges))--------------------------------------------------------------------------

*** tstart() called on ds3
*** at Mon Apr 27 22:49:50 2020

   => Loading Basis Set <=

    Name: CC-PVDZ
    Role: ORBITAL
    Keyword: BASIS
    atoms 1-2, 8-10  entry C          line   138 file /theoryfs2/ds/metcalf/miniconda2/envs/tf2gpu/share/psi4/basis/cc-pvdz.gbs
    atoms 3-4        entry O          line   198 file /theoryfs2/ds/metcalf/miniconda2/envs/tf2gpu/share/psi4/basis/cc-pvdz.gbs
    atoms 5-7, 11-18 entry H          line    22 file /theoryfs2/ds/metcalf/miniconda2/envs/tf2gpu/share/psi4/basis/cc-pvdz.gbs

         ---------------------------------------------------------
                                   SCF
               by Justin Turney, Rob Parrish, Andy Simmonett
                          and Daniel G. A. Smith
                              RHF Reference
                        1 Threads,    500 MiB Core
         ---------------------------------------------------------

  ==> Geometry <==

    Molecular point group: c1
    Full point group: C1

    Geometry (in Angstrom), charge = -1, multiplicity = 1:

       Center              X                  Y                   Z               Mass
    ------------   -----------------  -----------------  -----------------  -----------------
         C            1.569583744190    -1.717387520135     1.051838692146    12.000000000000
         C            0.595583744190    -0.632387520135     1.538838692146    12.000000000000
         O            0.737583744190     0.555612479865     1.164838692146    15.994914619570
         O           -0.332416255810    -1.000387520135     2.303838692146    15.994914619570
         H            1.011583744190    -2.345387520135     0.357838692146     1.007825032230
         H            1.880583744190    -2.339387520135     1.894838692146     1.007825032230
         H            2.470033744190    -1.322087520135     0.558968692146     1.007825032230
         C           -0.617416255810     1.325612479865    -1.678161307854    12.000000000000
         C            0.105583744190     0.686612479865    -2.871161307854    12.000000000000
         C           -2.053416255810     0.825612479865    -1.512161307854    12.000000000000
         H           -0.045416255810     1.120612479865    -0.807161307854     1.007825032230
         H           -0.641416255810     2.408612479865    -1.815161307854     1.007825032230
         H           -0.423416255810     0.945612479865    -3.790161307854     1.007825032230
         H            0.118583744190    -0.398387520135    -2.752161307854     1.007825032230
         H           -2.650416255810     1.162612479865    -2.367161307854     1.007825032230
         H           -2.036416255810    -0.262387520135    -1.521161307854     1.007825032230
         H            1.133797744190     1.075532479865    -2.910125307854     1.007825032230
         H           -2.484104255810     1.202282479865    -0.572681307854     1.007825032230

  Running in c1 symmetry.

  Rotational constants: A =      0.11904  B =      0.03331  C =      0.02984 [cm^-1]
  Rotational constants: A =   3568.81061  B =    998.62304  C =    894.67853 [MHz]
  Nuclear repulsion =  291.272960412062105

  Charge       = -1
  Multiplicity = 1
  Electrons    = 58
  Nalpha       = 29
  Nbeta        = 29

  ==> Algorithm <==

  SCF Algorithm Type is PK.
  DIIS enabled.
  MOM disabled.
  Fractional occupation disabled.
  Guess Type is SAD.
  Energy threshold   = 1.00e-06
  Density threshold  = 1.00e-10
  Integral threshold = 0.00e+00

  ==> Primary Basis <==

  Basis Set: CC-PVDZ
    Blend: CC-PVDZ
    Number of shells: 75
    Number of basis function: 153
    Number of Cartesian functions: 160
    Spherical Harmonics?: true
    Max angular momentum: 2

  ==> Pre-Iterations <==

   -------------------------------------------------------
    Irrep   Nso     Nmo     Nalpha   Nbeta   Ndocc  Nsocc
   -------------------------------------------------------
     A        153     153       0       0       0       0
   -------------------------------------------------------
    Total     153     153      29      29      29       0
   -------------------------------------------------------

  ==> Integral Setup <==

  Using integral reordering PK algorithm.
  Sizing the integral batches needed.
  Building batch lookup table.
   Calculation information:
      Number of atoms:                  18
      Number of AO shells:              75
      Number of primitives:            209
      Number of atomic orbitals:       160
      Number of basis functions:       153

      Integral cutoff                 1.00e-12
      Number of threads:                 1

	Batch   1 pq = [       0,    9405] index = [             0,44231715] size =     44231715
	Batch   2 pq = [    9405,   11781] index = [      44231715,69401871] size =     25170156
  Task number: 7
  Buffer size: 11059200
  Buffer per thread: 2
  We computed 3537430 shell quartets total.
  Whereas there are 4062675 unique shell quartets.

  ==> DiskJK: Disk-Based J/K Matrices <==

    J tasked:                  Yes
    K tasked:                  Yes
    wK tasked:                  No
    Memory [MiB]:              375
    Schwarz Cutoff:          1E-12

    OpenMP threads:              1

  Minimum eigenvalue in the overlap matrix is 5.6051600440E-03.
  Using Symmetric Orthogonalization.

  SCF Guess: Superposition of Atomic Densities via on-the-fly atomic UHF.

  ==> Iterations <==

                        Total Energy        Delta E     RMS |[F,P]|

   @RHF iter SAD:  -343.82789364085409   -3.43828e+02   0.00000e+00
   @RHF iter   1:  -345.21631998846749   -1.38843e+00   4.96329e-03 DIIS
   @RHF iter   2:  -345.44365179418332   -2.27332e-01   2.76600e-03 DIIS
   @RHF iter   3:  -345.51100747190446   -6.73557e-02   4.29762e-04 DIIS
   @RHF iter   4:  -345.51398051318375   -2.97304e-03   1.62023e-04 DIIS
   @RHF iter   5:  -345.51440438668658   -4.23874e-04   2.42717e-05 DIIS
   @RHF iter   6:  -345.51441652431754   -1.21376e-05   6.18143e-06 DIIS
   @RHF iter   7:  -345.51441733390675   -8.09589e-07   1.65580e-06 DIIS
   @RHF iter   8:  -345.51441740268274   -6.87760e-08   5.29719e-07 DIIS
   @RHF iter   9:  -345.51441741162233   -8.93959e-09   2.00009e-07 DIIS
   @RHF iter  10:  -345.51441741314574   -1.52340e-09   1.33750e-07 DIIS
   @RHF iter  11:  -345.51441741356729   -4.21551e-10   3.17299e-08 DIIS
   @RHF iter  12:  -345.51441741361629   -4.89990e-11   9.51661e-09 DIIS
   @RHF iter  13:  -345.51441741361720   -9.09495e-13   2.61437e-09 DIIS
   @RHF iter  14:  -345.51441741361930   -2.10321e-12   6.99501e-10 DIIS
   @RHF iter  15:  -345.51441741361720    2.10321e-12   2.29902e-10 DIIS
   @RHF iter  16:  -345.51441741361805   -8.52651e-13   9.23702e-11 DIIS
  Energy and wave function converged.

  ==> Post-Iterations <==

    Orbital Energies [Eh]
    ---------------------

    Doubly Occupied:

       1A    -20.266361     2A    -20.258311     3A    -11.121571
       4A    -11.100350     5A    -11.092176     6A    -11.075299
       7A    -11.054449     8A     -1.148714     9A     -1.035972
      10A     -0.925054    11A     -0.801764    12A     -0.796585
      13A     -0.668437    14A     -0.504963    15A     -0.497381
      16A     -0.471697    17A     -0.427624    18A     -0.414226
      19A     -0.412256    20A     -0.408594    21A     -0.403041
      22A     -0.349800    23A     -0.344193    24A     -0.342087
      25A     -0.333527    26A     -0.301947    27A     -0.185598
      28A     -0.174007    29A     -0.162083

    Virtual:

      30A      0.293750    31A      0.333102    32A      0.345538
      33A      0.362134    34A      0.369065    35A      0.383487
      36A      0.402599    37A      0.403617    38A      0.416972
      39A      0.422153    40A      0.470460    41A      0.488568
      42A      0.523820    43A      0.548583    44A      0.568572
      45A      0.684155    46A      0.702377    47A      0.722349
      48A      0.732203    49A      0.742676    50A      0.758485
      51A      0.772186    52A      0.822906    53A      0.872661
      54A      0.909270    55A      0.922470    56A      0.954221
      57A      0.964955    58A      0.979865    59A      1.002527
      60A      1.008658    61A      1.012676    62A      1.023660
      63A      1.026818    64A      1.033135    65A      1.041003
      66A      1.043827    67A      1.053686    68A      1.063978
      69A      1.087502    70A      1.095930    71A      1.130444
      72A      1.179400    73A      1.225296    74A      1.249074
      75A      1.258489    76A      1.321071    77A      1.343122
      78A      1.361208    79A      1.445307    80A      1.491884
      81A      1.548630    82A      1.569883    83A      1.583879
      84A      1.596929    85A      1.612528    86A      1.634216
      87A      1.650751    88A      1.674070    89A      1.717761
      90A      1.732232    91A      1.793921    92A      1.799483
      93A      1.817050    94A      1.827236    95A      1.839668
      96A      1.853705    97A      1.973129    98A      1.990610
      99A      2.005929   100A      2.026538   101A      2.030447
     102A      2.045074   103A      2.075192   104A      2.082132
     105A      2.093553   106A      2.099224   107A      2.109285
     108A      2.119136   109A      2.127772   110A      2.147516
     111A      2.169692   112A      2.184008   113A      2.211254
     114A      2.245692   115A      2.263079   116A      2.297497
     117A      2.333571   118A      2.403053   119A      2.409971
     120A      2.422654   121A      2.447409   122A      2.456480
     123A      2.467610   124A      2.579625   125A      2.629109
     126A      2.650651   127A      2.673552   128A      2.705045
     129A      2.712305   130A      2.751850   131A      2.765975
     132A      2.772951   133A      2.879542   134A      2.892502
     135A      2.904885   136A      2.917547   137A      2.932032
     138A      2.963192   139A      2.987088   140A      3.058309
     141A      3.084571   142A      3.106115   143A      3.234021
     144A      3.245234   145A      3.275379   146A      3.290054
     147A      3.359028   148A      3.628931   149A      3.772103
     150A      3.821808   151A      4.055490   152A      4.090287
     153A      4.181795

    Final Occupation by Irrep:
              A
    DOCC [    29 ]

  @RHF Final Energy:  -345.51441741361805

   => Energetics <=

    Nuclear Repulsion Energy =            291.2729604120621048
    One-Electron Energy =               -1059.4186234773933393
    Two-Electron Energy =                 422.6312456517132432
    Total Energy =                       -345.5144174136180482

Computation Completed

Properties will be evaluated at   0.000000,   0.000000,   0.000000 [a0]

Properties computed using the SCF density matrix

  Nuclear Dipole Moment: [e a0]
     X:    -1.5604      Y:     1.1675      Z:   -12.8493

  Electronic Dipole Moment: [e a0]
     X:     1.5483      Y:    -1.0490      Z:    10.1412

  Dipole Moment: [e a0]
     X:    -0.0121      Y:     0.1185      Z:    -2.7081     Total:     2.7108

  Dipole Moment: [D]
     X:    -0.0308      Y:     0.3012      Z:    -6.8834     Total:     6.8900

*** tstop() called on ds3 at Mon Apr 27 22:50:24 2020
Module time:
	user time   =      25.17 seconds =       0.42 minutes
	system time =      11.09 seconds =       0.18 minutes
	total time  =         34 seconds =       0.57 minutes
Total time:
	user time   =      25.17 seconds =       0.42 minutes
	system time =      11.09 seconds =       0.18 minutes
	total time  =         34 seconds =       0.57 minutes
                                     G D M A

                                 by Anthony Stone

                           version 2.2.06, 22 June 2011

               Distributed Multipoles from Gaussian wavefunctions

Starting at 22:50:24 on 27 Apr 2020

Using SCF density matrix from file ./SSI/SSI-159GLU-170LYS-1-dimer.test.26454.fchk

                         Distributed Multipole Analysis

Standard DMA

Positions and radii in angstrom
Multipole moments in atomic units, ea_0^k for rank k

C          x =  1.569584  y = -1.717388  z =  1.051839 angstrom
           Maximum rank =  0   Radius =  0.650 angstrom
                   Q00  =  -0.287205

C          x =  0.595584  y = -0.632388  z =  1.538839 angstrom
           Maximum rank =  0   Radius =  0.650 angstrom
                   Q00  =   0.955693

O          x =  0.737584  y =  0.555612  z =  1.164839 angstrom
           Maximum rank =  0   Radius =  0.650 angstrom
                   Q00  =  -0.912753

O          x = -0.332416  y = -1.000388  z =  2.303839 angstrom
           Maximum rank =  0   Radius =  0.650 angstrom
                   Q00  =  -0.923056

H          x =  1.011584  y = -2.345388  z =  0.357839 angstrom
           Maximum rank =  0   Radius =  0.325 angstrom
                   Q00  =   0.076494

H          x =  1.880584  y = -2.339388  z =  1.894839 angstrom
           Maximum rank =  0   Radius =  0.325 angstrom
                   Q00  =   0.065022

H          x =  2.470034  y = -1.322088  z =  0.558969 angstrom
           Maximum rank =  0   Radius =  0.325 angstrom
                   Q00  =   0.048810

C          x = -0.617416  y =  1.325612  z = -1.678161 angstrom
           Maximum rank =  0   Radius =  0.650 angstrom
                   Q00  =  -0.043679

C          x =  0.105584  y =  0.686612  z = -2.871161 angstrom
           Maximum rank =  0   Radius =  0.650 angstrom
                   Q00  =  -0.250774

C          x = -2.053416  y =  0.825612  z = -1.512161 angstrom
           Maximum rank =  0   Radius =  0.650 angstrom
                   Q00  =  -0.221581

H          x = -0.045416  y =  1.120612  z = -0.807161 angstrom
           Maximum rank =  0   Radius =  0.325 angstrom
                   Q00  =   0.106116

H          x = -0.641416  y =  2.408612  z = -1.815161 angstrom
           Maximum rank =  0   Radius =  0.325 angstrom
                   Q00  =   0.002967

H          x = -0.423416  y =  0.945612  z = -3.790161 angstrom
           Maximum rank =  0   Radius =  0.325 angstrom
                   Q00  =   0.035703

H          x =  0.118584  y = -0.398388  z = -2.752161 angstrom
           Maximum rank =  0   Radius =  0.325 angstrom
                   Q00  =   0.075444

H          x = -2.650416  y =  1.162612  z = -2.367161 angstrom
           Maximum rank =  0   Radius =  0.325 angstrom
                   Q00  =   0.025772

H          x = -2.036416  y = -0.262388  z = -1.521161 angstrom
           Maximum rank =  0   Radius =  0.325 angstrom
                   Q00  =   0.075160

H          x =  1.133798  y =  1.075532  z = -2.910125 angstrom
           Maximum rank =  0   Radius =  0.325 angstrom
                   Q00  =   0.073626

H          x = -2.484104  y =  1.202282  z = -0.572681 angstrom
           Maximum rank =  0   Radius =  0.325 angstrom
                   Q00  =   0.098242

Total multipoles referred to origin at
           x =   0.000000,  y =    0.000000,  z =    0.000000 angstrom
                   Q00  =  -1.000000

Finished at 22:50:24 on 27 Apr 2020

  DMA results are available in the Python driver through the
	  variable('DMA DISTRIBUTED MULTIPOLES')
  and
	  variable('DMA TOTAL MULTIPOLES')
  commands.

    Psi4 stopped on: Monday, 27 April 2020 10:50PM
    Psi4 wall time for execution: 0:00:34.53

*** Psi4 exiting successfully. Buy a developer a beer!
