                               Psi4 1.3.2 release

  ==> Input File <==

--------------------------------------------------------------------------
import numpy as np
set {scf_type pk
basis cc-pvdz
d_convergence 10
gdma_switch   0
gdma_limit    0
gdma_origin   [ 0.0,  0.0,  0.0 ]
}
molecule test {
    units Angstrom
    0 1
    --
    0 1
    C                0.266819529861504    -1.174444370318511    -0.601015172290827
    C                0.776819529861504    -1.063444370318511    -2.049015172290827
    C               -0.214180470138496    -2.550444370318512    -0.141015172290827
    H                1.059819529861504    -0.842444370318512     0.071984827709173
    H               -0.566180470138496    -0.478444370318512    -0.486015172290827
    H                0.030819529861504    -1.476444370318512    -2.730015172290826
    H                0.624819529861504    -3.240444370318512    -0.118015172290827
    H                1.709409529861504    -1.639194370318512    -2.142724172290827
    H                0.872509529861504    -0.000084370318512    -2.313777172290827
    H               -0.616240470138496    -2.470034370318512     0.879710827709173
    H               -0.974950470138496    -2.967614370318511    -0.817175172290827
    C                0.302819529861504     2.239555629681488     1.140984827709173
    C               -1.108180470138496     2.462555629681488     1.610984827709173
    H                0.637819529861504     1.233555629681488     1.391984827709173
    H                0.343819529861504     2.343555629681488     0.056984827709173
    H                0.968819529861504     2.969555629681488     1.597984827709173
    H               -1.736180470138496     1.727555629681488     1.143984827709173
    H               -1.400180470138496     3.439555629681488     1.227984827709173
    H               -1.241030470138496     2.427555629681488     2.702371827709173

}
e, wfn = energy('scf', return_wfn=True)
gdma(wfn)
dmavals = variable('DMA DISTRIBUTED MULTIPOLES')
charges = np.array(dmavals)
print(charges)
np.save('SSI-205LEU-212ILE-1-dimer.npy', np.array(charges))--------------------------------------------------------------------------

*** tstart() called on ds3
*** at Tue Apr 28 13:53:39 2020

   => Loading Basis Set <=

    Name: CC-PVDZ
    Role: ORBITAL
    Keyword: BASIS
    atoms 1-3, 12-13  entry C          line   138 file /theoryfs2/ds/metcalf/miniconda2/envs/tf2gpu/share/psi4/basis/cc-pvdz.gbs
    atoms 4-11, 14-19 entry H          line    22 file /theoryfs2/ds/metcalf/miniconda2/envs/tf2gpu/share/psi4/basis/cc-pvdz.gbs

         ---------------------------------------------------------
                                   SCF
               by Justin Turney, Rob Parrish, Andy Simmonett
                          and Daniel G. A. Smith
                              RHF Reference
                        1 Threads,    500 MiB Core
         ---------------------------------------------------------

  ==> Geometry <==

    Molecular point group: c1
    Full point group: C1

    Geometry (in Angstrom), charge = 0, multiplicity = 1:

       Center              X                  Y                   Z               Mass
    ------------   -----------------  -----------------  -----------------  -----------------
         C            0.266819529862    -1.174444370319    -0.601015172291    12.000000000000
         C            0.776819529862    -1.063444370319    -2.049015172291    12.000000000000
         C           -0.214180470138    -2.550444370319    -0.141015172291    12.000000000000
         H            1.059819529862    -0.842444370319     0.071984827709     1.007825032230
         H           -0.566180470138    -0.478444370319    -0.486015172291     1.007825032230
         H            0.030819529862    -1.476444370319    -2.730015172291     1.007825032230
         H            0.624819529862    -3.240444370319    -0.118015172291     1.007825032230
         H            1.709409529862    -1.639194370319    -2.142724172291     1.007825032230
         H            0.872509529862    -0.000084370319    -2.313777172291     1.007825032230
         H           -0.616240470138    -2.470034370319     0.879710827709     1.007825032230
         H           -0.974950470138    -2.967614370319    -0.817175172291     1.007825032230
         C            0.302819529862     2.239555629681     1.140984827709    12.000000000000
         C           -1.108180470138     2.462555629681     1.610984827709    12.000000000000
         H            0.637819529862     1.233555629681     1.391984827709     1.007825032230
         H            0.343819529862     2.343555629681     0.056984827709     1.007825032230
         H            0.968819529862     2.969555629681     1.597984827709     1.007825032230
         H           -1.736180470138     1.727555629681     1.143984827709     1.007825032230
         H           -1.400180470138     3.439555629681     1.227984827709     1.007825032230
         H           -1.241030470138     2.427555629681     2.702371827709     1.007825032230

  Running in c1 symmetry.

  Rotational constants: A =      0.20166  B =      0.04034  C =      0.03605 [cm^-1]
  Rotational constants: A =   6045.55773  B =   1209.40830  C =   1080.76102 [MHz]
  Nuclear repulsion =  177.085117827754630

  Charge       = 0
  Multiplicity = 1
  Electrons    = 44
  Nalpha       = 22
  Nbeta        = 22

  ==> Algorithm <==

  SCF Algorithm Type is PK.
  DIIS enabled.
  MOM disabled.
  Fractional occupation disabled.
  Guess Type is SAD.
  Energy threshold   = 1.00e-06
  Density threshold  = 1.00e-10
  Integral threshold = 0.00e+00

  ==> Primary Basis <==

  Basis Set: CC-PVDZ
    Blend: CC-PVDZ
    Number of shells: 72
    Number of basis function: 140
    Number of Cartesian functions: 145
    Spherical Harmonics?: true
    Max angular momentum: 2

  ==> Pre-Iterations <==

   -------------------------------------------------------
    Irrep   Nso     Nmo     Nalpha   Nbeta   Ndocc  Nsocc
   -------------------------------------------------------
     A        140     140       0       0       0       0
   -------------------------------------------------------
    Total     140     140      22      22      22       0
   -------------------------------------------------------

  ==> Integral Setup <==

  Using integral reordering PK algorithm.
  Sizing the integral batches needed.
  Building batch lookup table.
   Calculation information:
      Number of atoms:                  19
      Number of AO shells:              72
      Number of primitives:            180
      Number of atomic orbitals:       145
      Number of basis functions:       140

      Integral cutoff                 1.00e-12
      Number of threads:                 1

	Batch   1 pq = [       0,    9405] index = [             0,44231715] size =     44231715
	Batch   2 pq = [    9405,    9870] index = [      44231715,48713385] size =      4481670
  Task number: 5
  Buffer size: 11059200
  Buffer per thread: 2
  We computed 2833229 shell quartets total.
  Whereas there are 3454506 unique shell quartets.

  ==> DiskJK: Disk-Based J/K Matrices <==

    J tasked:                  Yes
    K tasked:                  Yes
    wK tasked:                  No
    Memory [MiB]:              375
    Schwarz Cutoff:          1E-12

    OpenMP threads:              1

  Minimum eigenvalue in the overlap matrix is 5.5565284672E-03.
  Using Symmetric Orthogonalization.

  SCF Guess: Superposition of Atomic Densities via on-the-fly atomic UHF.

  ==> Iterations <==

                        Total Energy        Delta E     RMS |[F,P]|

   @RHF iter SAD:  -196.37756635915943   -1.96378e+02   0.00000e+00
   @RHF iter   1:  -197.30812253248473   -9.30556e-01   3.82611e-03 DIIS
   @RHF iter   2:  -197.46965613842889   -1.61534e-01   1.64912e-03 DIIS
   @RHF iter   3:  -197.49834820709808   -2.86921e-02   3.25907e-04 DIIS
   @RHF iter   4:  -197.50058017271471   -2.23197e-03   4.96263e-05 DIIS
   @RHF iter   5:  -197.50061986681101   -3.96941e-05   1.51569e-05 DIIS
   @RHF iter   6:  -197.50062336639118   -3.49958e-06   2.34981e-06 DIIS
   @RHF iter   7:  -197.50062346908587   -1.02695e-07   4.62620e-07 DIIS
   @RHF iter   8:  -197.50062347344371   -4.35784e-09   1.28194e-07 DIIS
   @RHF iter   9:  -197.50062347376200   -3.18295e-10   3.81246e-08 DIIS
   @RHF iter  10:  -197.50062347379816   -3.61524e-11   8.18820e-09 DIIS
   @RHF iter  11:  -197.50062347379983   -1.67688e-12   1.51893e-09 DIIS
   @RHF iter  12:  -197.50062347379972    1.13687e-13   2.86350e-10 DIIS
   @RHF iter  13:  -197.50062347379924    4.83169e-13   4.90647e-11 DIIS
  Energy and wave function converged.

  ==> Post-Iterations <==

    Orbital Energies [Eh]
    ---------------------

    Doubly Occupied:

       1A    -11.220303     2A    -11.219264     3A    -11.217786
       4A    -11.214231     5A    -11.213541     6A     -1.050285
       7A     -1.025778     8A     -0.926392     9A     -0.835691
      10A     -0.794728    11A     -0.624549    12A     -0.604513
      13A     -0.600656    14A     -0.590730    15A     -0.552120
      16A     -0.534096    17A     -0.506364    18A     -0.485881
      19A     -0.482355    20A     -0.472954    21A     -0.466125
      22A     -0.462917

    Virtual:

      23A      0.164858    24A      0.194975    25A      0.211772
      26A      0.220560    27A      0.231877    28A      0.248365
      29A      0.255101    30A      0.266949    31A      0.269693
      32A      0.278893    33A      0.301362    34A      0.315493
      35A      0.330079    36A      0.348367    37A      0.366606
      38A      0.402943    39A      0.429848    40A      0.573098
      41A      0.579338    42A      0.601062    43A      0.605243
      44A      0.606446    45A      0.616845    46A      0.625551
      47A      0.645285    48A      0.683940    49A      0.768054
      50A      0.781560    51A      0.804392    52A      0.854619
      53A      0.862412    54A      0.874920    55A      0.882419
      56A      0.889696    57A      0.895456    58A      0.897580
      59A      0.901146    60A      0.906128    61A      0.912290
      62A      0.915997    63A      0.924281    64A      0.943070
      65A      0.961595    66A      0.978067    67A      0.984644
      68A      1.009411    69A      1.115609    70A      1.124523
      71A      1.134717    72A      1.155419    73A      1.205087
      74A      1.256535    75A      1.374131    76A      1.462802
      77A      1.473866    78A      1.490052    79A      1.499488
      80A      1.515338    81A      1.571618    82A      1.641598
      83A      1.664059    84A      1.684426    85A      1.687392
      86A      1.691826    87A      1.711456    88A      1.846859
      89A      1.852051    90A      1.865889    91A      1.883223
      92A      1.895019    93A      1.899238    94A      1.916644
      95A      1.920154    96A      1.940153    97A      1.941832
      98A      1.961253    99A      1.963614   100A      1.970234
     101A      1.978577   102A      1.985065   103A      1.988536
     104A      1.995409   105A      2.000759   106A      2.021485
     107A      2.044433   108A      2.097062   109A      2.127470
     110A      2.143105   111A      2.164205   112A      2.276198
     113A      2.278916   114A      2.304621   115A      2.324766
     116A      2.334417   117A      2.353204   118A      2.454968
     119A      2.485433   120A      2.489054   121A      2.529180
     122A      2.565428   123A      2.578968   124A      2.593845
     125A      2.615544   126A      2.632382   127A      2.746989
     128A      2.752780   129A      2.779799   130A      2.781254
     131A      2.800373   132A      2.808291   133A      2.858242
     134A      2.884880   135A      2.913345   136A      2.944148
     137A      2.967580   138A      2.974552   139A      2.978297
     140A      3.073820

    Final Occupation by Irrep:
              A
    DOCC [    22 ]

  @RHF Final Energy:  -197.50062347379924

   => Energetics <=

    Nuclear Repulsion Energy =            177.0851178277546296
    One-Electron Energy =                -614.9689638623274277
    Two-Electron Energy =                 240.3832225607735609
    Total Energy =                       -197.5006234737992372

Computation Completed

Properties will be evaluated at   0.000000,   0.000000,   0.000000 [a0]

Properties computed using the SCF density matrix

  Nuclear Dipole Moment: [e a0]
     X:    -0.2690      Y:     0.9624      Z:     0.4362

  Electronic Dipole Moment: [e a0]
     X:     0.2623      Y:    -0.9501      Z:    -0.4337

  Dipole Moment: [e a0]
     X:    -0.0067      Y:     0.0123      Z:     0.0024     Total:     0.0142

  Dipole Moment: [D]
     X:    -0.0169      Y:     0.0314      Z:     0.0062     Total:     0.0362

*** tstop() called on ds3 at Tue Apr 28 13:54:01 2020
Module time:
	user time   =      15.65 seconds =       0.26 minutes
	system time =       6.76 seconds =       0.11 minutes
	total time  =         22 seconds =       0.37 minutes
Total time:
	user time   =      15.65 seconds =       0.26 minutes
	system time =       6.76 seconds =       0.11 minutes
	total time  =         22 seconds =       0.37 minutes
                                     G D M A

                                 by Anthony Stone

                           version 2.2.06, 22 June 2011

               Distributed Multipoles from Gaussian wavefunctions

Starting at 13:54:1 on 28 Apr 2020

Using SCF density matrix from file ./SSI/SSI-205LEU-212ILE-1-dimer.test.26975.fchk

                         Distributed Multipole Analysis

Standard DMA

Positions and radii in angstrom
Multipole moments in atomic units, ea_0^k for rank k

C          x =  0.266820  y = -1.174444  z = -0.601015 angstrom
           Maximum rank =  0   Radius =  0.650 angstrom
                   Q00  =  -0.082877

C          x =  0.776820  y = -1.063444  z = -2.049015 angstrom
           Maximum rank =  0   Radius =  0.650 angstrom
                   Q00  =  -0.213957

C          x = -0.214180  y = -2.550444  z = -0.141015 angstrom
           Maximum rank =  0   Radius =  0.650 angstrom
                   Q00  =  -0.247330

H          x =  1.059820  y = -0.842444  z =  0.071985 angstrom
           Maximum rank =  0   Radius =  0.325 angstrom
                   Q00  =   0.046301

H          x = -0.566180  y = -0.478444  z = -0.486015 angstrom
           Maximum rank =  0   Radius =  0.325 angstrom
                   Q00  =   0.040702

H          x =  0.030820  y = -1.476444  z = -2.730015 angstrom
           Maximum rank =  0   Radius =  0.325 angstrom
                   Q00  =   0.076279

H          x =  0.624820  y = -3.240444  z = -0.118015 angstrom
           Maximum rank =  0   Radius =  0.325 angstrom
                   Q00  =   0.076461

H          x =  1.709410  y = -1.639194  z = -2.142724 angstrom
           Maximum rank =  0   Radius =  0.325 angstrom
                   Q00  =   0.067576

H          x =  0.872510  y = -0.000084  z = -2.313777 angstrom
           Maximum rank =  0   Radius =  0.325 angstrom
                   Q00  =   0.074007

H          x = -0.616240  y = -2.470034  z =  0.879711 angstrom
           Maximum rank =  0   Radius =  0.325 angstrom
                   Q00  =   0.084413

H          x = -0.974950  y = -2.967614  z = -0.817175 angstrom
           Maximum rank =  0   Radius =  0.325 angstrom
                   Q00  =   0.078226

C          x =  0.302820  y =  2.239556  z =  1.140985 angstrom
           Maximum rank =  0   Radius =  0.650 angstrom
                   Q00  =  -0.229297

C          x = -1.108180  y =  2.462556  z =  1.610985 angstrom
           Maximum rank =  0   Radius =  0.650 angstrom
                   Q00  =  -0.230019

H          x =  0.637820  y =  1.233556  z =  1.391985 angstrom
           Maximum rank =  0   Radius =  0.325 angstrom
                   Q00  =   0.077854

H          x =  0.343820  y =  2.343556  z =  0.056985 angstrom
           Maximum rank =  0   Radius =  0.325 angstrom
                   Q00  =   0.076339

H          x =  0.968820  y =  2.969556  z =  1.597985 angstrom
           Maximum rank =  0   Radius =  0.325 angstrom
                   Q00  =   0.076005

H          x = -1.736180  y =  1.727556  z =  1.143985 angstrom
           Maximum rank =  0   Radius =  0.325 angstrom
                   Q00  =   0.077177

H          x = -1.400180  y =  3.439556  z =  1.227985 angstrom
           Maximum rank =  0   Radius =  0.325 angstrom
                   Q00  =   0.071703

H          x = -1.241030  y =  2.427556  z =  2.702372 angstrom
           Maximum rank =  0   Radius =  0.325 angstrom
                   Q00  =   0.080436

Total multipoles referred to origin at
           x =   0.000000,  y =    0.000000,  z =    0.000000 angstrom
                   Q00  =  -0.000000

Finished at 13:54:1 on 28 Apr 2020

  DMA results are available in the Python driver through the
	  variable('DMA DISTRIBUTED MULTIPOLES')
  and
	  variable('DMA TOTAL MULTIPOLES')
  commands.

    Psi4 stopped on: Tuesday, 28 April 2020 01:54PM
    Psi4 wall time for execution: 0:00:21.74

*** Psi4 exiting successfully. Buy a developer a beer!
