                               Psi4 1.3.2 release

  ==> Input File <==

--------------------------------------------------------------------------
import numpy as np
set {scf_type pk
basis cc-pvdz
d_convergence 10
gdma_switch   0
gdma_limit    0
gdma_origin   [ 0.0,  0.0,  0.0 ]
}
molecule test {
    units Angstrom
    0 1
    --
    0 1
    C                2.058467520308841     1.082928502567665     1.592606763205867
    C                1.118467520308841    -0.047071497432335     1.717606763205868
    C                1.183467520308841    -1.087071497432335     0.820606763205867
    C                0.215467520308841    -0.089071497432335     2.781606763205867
    C                0.346467520308841    -2.181071497432335     1.003606763205867
    C               -0.610532479691159    -1.196071497432335     2.987606763205867
    C               -0.554532479691159    -2.237071497432335     2.071606763205867
    O               -1.302532479691159    -3.362071497432335     2.247606763205867
    H                1.745467520308841     1.909928502567665     2.232606763205867
    H                2.025467520308841     1.431928502567665     0.559606763205867
    H                1.885467520308841    -1.067071497432335    -0.003393236794133
    H                0.142467520308841     0.770928502567665     3.429606763205867
    H                0.399467520308841    -3.008071497432335     0.308606763205867
    H               -1.309532479691159    -1.230071497432335     3.809606763205867
    H               -1.142532479691159    -4.010071497432334     1.551606763205867
    H                3.085244520308842     0.788537502567665     1.855406763205867
    C               -2.354532479691159     2.166928502567665    -1.781393236794133
    C               -0.159532479691159     0.860928502567665    -1.673393236794133
    C               -1.007532479691159     1.745928502567665    -2.238393236794133
    C                0.759467520308841     1.599928502567665    -3.516393236794133
    N                0.943467520308841     0.780928502567665    -2.489393236794132
    N               -0.429532479691159     2.181928502567665    -3.402393236794132
    H               -0.333532479691159     0.319928502567665    -0.755393236794133
    H                1.791467520308841     0.239928502567665    -2.336393236794132
    H               -2.797532479691159     2.822928502567665    -2.530393236794132
    H               -2.228532479691159     2.750928502567665    -0.869393236794133
    H                1.465467520308841     1.761928502567665    -4.322393236794133
    H               -3.046506479691159     1.336992502567665    -1.575533236794133

}
e, wfn = energy('scf', return_wfn=True)
gdma(wfn)
dmavals = variable('DMA DISTRIBUTED MULTIPOLES')
charges = np.array(dmavals)
print(charges)
np.save('SSI-068TYR-082HIE-1-dimer.npy', np.array(charges))--------------------------------------------------------------------------

*** tstart() called on ds3
*** at Mon Apr 27 21:17:51 2020

   => Loading Basis Set <=

    Name: CC-PVDZ
    Role: ORBITAL
    Keyword: BASIS
    atoms 1-7, 17-20  entry C          line   138 file /theoryfs2/ds/metcalf/miniconda2/envs/tf2gpu/share/psi4/basis/cc-pvdz.gbs
    atoms 8           entry O          line   198 file /theoryfs2/ds/metcalf/miniconda2/envs/tf2gpu/share/psi4/basis/cc-pvdz.gbs
    atoms 9-16, 23-28 entry H          line    22 file /theoryfs2/ds/metcalf/miniconda2/envs/tf2gpu/share/psi4/basis/cc-pvdz.gbs
    atoms 21-22       entry N          line   168 file /theoryfs2/ds/metcalf/miniconda2/envs/tf2gpu/share/psi4/basis/cc-pvdz.gbs

         ---------------------------------------------------------
                                   SCF
               by Justin Turney, Rob Parrish, Andy Simmonett
                          and Daniel G. A. Smith
                              RHF Reference
                        1 Threads,    500 MiB Core
         ---------------------------------------------------------

  ==> Geometry <==

    Molecular point group: c1
    Full point group: C1

    Geometry (in Angstrom), charge = 0, multiplicity = 1:

       Center              X                  Y                   Z               Mass
    ------------   -----------------  -----------------  -----------------  -----------------
         C            2.058467520309     1.082928502568     1.592606763206    12.000000000000
         C            1.118467520309    -0.047071497432     1.717606763206    12.000000000000
         C            1.183467520309    -1.087071497432     0.820606763206    12.000000000000
         C            0.215467520309    -0.089071497432     2.781606763206    12.000000000000
         C            0.346467520309    -2.181071497432     1.003606763206    12.000000000000
         C           -0.610532479691    -1.196071497432     2.987606763206    12.000000000000
         C           -0.554532479691    -2.237071497432     2.071606763206    12.000000000000
         O           -1.302532479691    -3.362071497432     2.247606763206    15.994914619570
         H            1.745467520309     1.909928502568     2.232606763206     1.007825032230
         H            2.025467520309     1.431928502568     0.559606763206     1.007825032230
         H            1.885467520309    -1.067071497432    -0.003393236794     1.007825032230
         H            0.142467520309     0.770928502568     3.429606763206     1.007825032230
         H            0.399467520309    -3.008071497432     0.308606763206     1.007825032230
         H           -1.309532479691    -1.230071497432     3.809606763206     1.007825032230
         H           -1.142532479691    -4.010071497432     1.551606763206     1.007825032230
         H            3.085244520309     0.788537502568     1.855406763206     1.007825032230
         C           -2.354532479691     2.166928502568    -1.781393236794    12.000000000000
         C           -0.159532479691     0.860928502568    -1.673393236794    12.000000000000
         C           -1.007532479691     1.745928502568    -2.238393236794    12.000000000000
         C            0.759467520309     1.599928502568    -3.516393236794    12.000000000000
         N            0.943467520309     0.780928502568    -2.489393236794    14.003074004430
         N           -0.429532479691     2.181928502568    -3.402393236794    14.003074004430
         H           -0.333532479691     0.319928502568    -0.755393236794     1.007825032230
         H            1.791467520309     0.239928502568    -2.336393236794     1.007825032230
         H           -2.797532479691     2.822928502568    -2.530393236794     1.007825032230
         H           -2.228532479691     2.750928502568    -0.869393236794     1.007825032230
         H            1.465467520309     1.761928502568    -4.322393236794     1.007825032230
         H           -3.046506479691     1.336992502568    -1.575533236794     1.007825032230

  Running in c1 symmetry.

  Rotational constants: A =      0.03533  B =      0.01050  C =      0.00983 [cm^-1]
  Rotational constants: A =   1059.03481  B =    314.64868  C =    294.73998 [MHz]
  Nuclear repulsion =  818.371349565182186

  Charge       = 0
  Multiplicity = 1
  Electrons    = 102
  Nalpha       = 51
  Nbeta        = 51

  ==> Algorithm <==

  SCF Algorithm Type is PK.
  DIIS enabled.
  MOM disabled.
  Fractional occupation disabled.
  Guess Type is SAD.
  Energy threshold   = 1.00e-06
  Density threshold  = 1.00e-10
  Integral threshold = 0.00e+00

  ==> Primary Basis <==

  Basis Set: CC-PVDZ
    Blend: CC-PVDZ
    Number of shells: 126
    Number of basis function: 266
    Number of Cartesian functions: 280
    Spherical Harmonics?: true
    Max angular momentum: 2

  ==> Pre-Iterations <==

   -------------------------------------------------------
    Irrep   Nso     Nmo     Nalpha   Nbeta   Ndocc  Nsocc
   -------------------------------------------------------
     A        266     266       0       0       0       0
   -------------------------------------------------------
    Total     266     266      51      51      51       0
   -------------------------------------------------------

  ==> Integral Setup <==

  Using integral reordering PK algorithm.
  Sizing the integral batches needed.
  Building batch lookup table.
   Calculation information:
      Number of atoms:                  28
      Number of AO shells:             126
      Number of primitives:            378
      Number of atomic orbitals:       280
      Number of basis functions:       266

      Integral cutoff                 1.00e-12
      Number of threads:                 1

	Batch   1 pq = [       0,    9405] index = [             0,44231715] size =     44231715
	Batch   2 pq = [    9405,   13301] index = [      44231715,88464951] size =     44233236
	Batch   3 pq = [   13301,   16290] index = [      88464951,132690195] size =     44225244
	Batch   4 pq = [   16290,   18810] index = [     132690195,176917455] size =     44227260
	Batch   5 pq = [   18810,   21030] index = [     176917455,221140965] size =     44223510
	Batch   6 pq = [   21030,   23037] index = [     221140965,265363203] size =     44222238
	Batch   7 pq = [   23037,   24883] index = [     265363203,309594286] size =     44231083
	Batch   8 pq = [   24883,   26601] index = [     309594286,353819901] size =     44225615
	Batch   9 pq = [   26601,   28214] index = [     353819901,398029005] size =     44209104
	Batch  10 pq = [   28214,   29740] index = [     398029005,442248670] size =     44219665
	Batch  11 pq = [   29740,   31191] index = [     442248670,486454836] size =     44206166
	Batch  12 pq = [   31191,   32578] index = [     486454836,530679331] size =     44224495
	Batch  13 pq = [   32578,   33908] index = [     530679331,574893186] size =     44213855
	Batch  14 pq = [   33908,   35188] index = [     574893186,619115266] size =     44222080
	Batch  15 pq = [   35188,   35511] index = [     619115266,630533316] size =     11418050
  Task number: 58
  Buffer size: 11059200
  Buffer per thread: 2
  We computed 30447561 shell quartets total.
  Whereas there are 32012001 unique shell quartets.

  ==> DiskJK: Disk-Based J/K Matrices <==

    J tasked:                  Yes
    K tasked:                  Yes
    wK tasked:                  No
    Memory [MiB]:              375
    Schwarz Cutoff:          1E-12

    OpenMP threads:              1

  Minimum eigenvalue in the overlap matrix is 3.2284010331E-04.
  Using Symmetric Orthogonalization.

  SCF Guess: Superposition of Atomic Densities via on-the-fly atomic UHF.

  ==> Iterations <==

                        Total Energy        Delta E     RMS |[F,P]|

   @RHF iter SAD:  -607.72810588171058   -6.07728e+02   0.00000e+00
   @RHF iter   1:  -608.17024881958730   -4.42143e-01   2.65224e-03 DIIS
   @RHF iter   2:  -608.42933899487639   -2.59090e-01   1.28494e-03 DIIS
   @RHF iter   3:  -608.48356620574998   -5.42272e-02   3.36354e-04 DIIS
   @RHF iter   4:  -608.48847699377541   -4.91079e-03   1.38212e-04 DIIS
   @RHF iter   5:  -608.48923961583307   -7.62622e-04   2.12075e-05 DIIS
   @RHF iter   6:  -608.48926946798213   -2.98521e-05   9.91314e-06 DIIS
   @RHF iter   7:  -608.48927517421907   -5.70624e-06   3.33158e-06 DIIS
   @RHF iter   8:  -608.48927625366036   -1.07944e-06   1.42627e-06 DIIS
   @RHF iter   9:  -608.48927646633047   -2.12670e-07   5.86802e-07 DIIS
   @RHF iter  10:  -608.48927650753512   -4.12047e-08   2.07979e-07 DIIS
   @RHF iter  11:  -608.48927651318013   -5.64501e-09   7.36588e-08 DIIS
   @RHF iter  12:  -608.48927651394229   -7.62157e-10   3.03461e-08 DIIS
   @RHF iter  13:  -608.48927651403494   -9.26548e-11   9.29344e-09 DIIS
   @RHF iter  14:  -608.48927651404426   -9.32232e-12   3.71015e-09 DIIS
   @RHF iter  15:  -608.48927651404938   -5.11591e-12   1.51823e-09 DIIS
   @RHF iter  16:  -608.48927651404358    5.79803e-12   6.27597e-10 DIIS
   @RHF iter  17:  -608.48927651404563   -2.04636e-12   2.80864e-10 DIIS
   @RHF iter  18:  -608.48927651404927   -3.63798e-12   9.57197e-11 DIIS
  Energy and wave function converged.

  ==> Post-Iterations <==

    Orbital Energies [Eh]
    ---------------------

    Doubly Occupied:

       1A    -20.588256     2A    -15.619931     3A    -15.525254
       4A    -11.306489     5A    -11.287894     6A    -11.245913
       7A    -11.244645     8A    -11.241723     9A    -11.239613
      10A    -11.239070    11A    -11.235778    12A    -11.233036
      13A    -11.229640    14A    -11.216678    15A     -1.405157
      16A     -1.341048    17A     -1.162860    18A     -1.153366
      19A     -1.050320    20A     -1.029355    21A     -1.026727
      22A     -0.938056    23A     -0.931967    24A     -0.854926
      25A     -0.816309    26A     -0.808154    27A     -0.757716
      28A     -0.740029    29A     -0.738636    30A     -0.677898
      31A     -0.648900    32A     -0.618394    33A     -0.608221
      34A     -0.602770    35A     -0.599501    36A     -0.595677
      37A     -0.587145    38A     -0.577922    39A     -0.573110
      40A     -0.550457    41A     -0.536512    42A     -0.530424
      43A     -0.515984    44A     -0.506938    45A     -0.494249
      46A     -0.473354    47A     -0.408811    48A     -0.377188
      49A     -0.347327    50A     -0.308646    51A     -0.302966

    Virtual:

      52A      0.119303    53A      0.144665    54A      0.154664
      55A      0.175224    56A      0.186568    57A      0.196318
      58A      0.209084    59A      0.215352    60A      0.218158
      61A      0.237274    62A      0.241096    63A      0.250581
      64A      0.270451    65A      0.278806    66A      0.279374
      67A      0.291179    68A      0.297595    69A      0.307982
      70A      0.361277    71A      0.366658    72A      0.392785
      73A      0.398653    74A      0.419939    75A      0.422879
      76A      0.452118    77A      0.474189    78A      0.474969
      79A      0.490227    80A      0.496525    81A      0.509805
      82A      0.596355    83A      0.606941    84A      0.624654
      85A      0.640157    86A      0.642594    87A      0.653885
      88A      0.660846    89A      0.676265    90A      0.684572
      91A      0.692506    92A      0.703105    93A      0.708703
      94A      0.717633    95A      0.723689    96A      0.731053
      97A      0.746815    98A      0.750518    99A      0.760576
     100A      0.770534   101A      0.773927   102A      0.783835
     103A      0.797654   104A      0.811337   105A      0.828336
     106A      0.832354   107A      0.839211   108A      0.856161
     109A      0.865241   110A      0.876119   111A      0.876733
     112A      0.886576   113A      0.891517   114A      0.894040
     115A      0.905076   116A      0.914293   117A      0.926387
     118A      0.931052   119A      0.934666   120A      0.945102
     121A      0.956139   122A      0.973904   123A      0.996628
     124A      1.006329   125A      1.015525   126A      1.035612
     127A      1.051001   128A      1.067119   129A      1.086179
     130A      1.100126   131A      1.105349   132A      1.116915
     133A      1.130346   134A      1.140043   135A      1.146086
     136A      1.161780   137A      1.169947   138A      1.177688
     139A      1.216128   140A      1.229775   141A      1.238657
     142A      1.270861   143A      1.275461   144A      1.277776
     145A      1.288569   146A      1.299805   147A      1.304450
     148A      1.315857   149A      1.336140   150A      1.339348
     151A      1.341393   152A      1.362504   153A      1.384279
     154A      1.393211   155A      1.436983   156A      1.463146
     157A      1.472612   158A      1.479348   159A      1.497504
     160A      1.527813   161A      1.561345   162A      1.571103
     163A      1.588865   164A      1.611524   165A      1.618925
     166A      1.638526   167A      1.663085   168A      1.680008
     169A      1.692001   170A      1.695998   171A      1.722826
     172A      1.735255   173A      1.742781   174A      1.771819
     175A      1.782666   176A      1.795528   177A      1.815465
     178A      1.819964   179A      1.852032   180A      1.863880
     181A      1.876725   182A      1.888026   183A      1.901441
     184A      1.908773   185A      1.912836   186A      1.917027
     187A      1.923017   188A      1.933733   189A      1.937442
     190A      1.946963   191A      1.953961   192A      1.966167
     193A      1.969136   194A      1.985787   195A      1.990702
     196A      2.005895   197A      2.010439   198A      2.028826
     199A      2.037832   200A      2.055474   201A      2.063603
     202A      2.071628   203A      2.077012   204A      2.105109
     205A      2.121753   206A      2.136905   207A      2.169698
     208A      2.182321   209A      2.194892   210A      2.220217
     211A      2.229343   212A      2.253404   213A      2.257405
     214A      2.268436   215A      2.273976   216A      2.302823
     217A      2.317260   218A      2.343988   219A      2.361577
     220A      2.383012   221A      2.399936   222A      2.401670
     223A      2.417161   224A      2.448712   225A      2.476840
     226A      2.482567   227A      2.486401   228A      2.513298
     229A      2.526288   230A      2.538880   231A      2.592311
     232A      2.612276   233A      2.626440   234A      2.644687
     235A      2.675974   236A      2.740279   237A      2.749162
     238A      2.773770   239A      2.779058   240A      2.789732
     241A      2.795632   242A      2.802134   243A      2.827345
     244A      2.835716   245A      2.848633   246A      2.882385
     247A      2.891003   248A      2.907179   249A      2.940203
     250A      2.971399   251A      2.976174   252A      3.023270
     253A      3.085213   254A      3.091270   255A      3.127524
     256A      3.169469   257A      3.246861   258A      3.253012
     259A      3.288511   260A      3.340220   261A      3.490617
     262A      3.573056   263A      3.674618   264A      3.806682
     265A      3.976769   266A      4.185170

    Final Occupation by Irrep:
              A
    DOCC [    51 ]

  @RHF Final Energy:  -608.48927651404927

   => Energetics <=

    Nuclear Repulsion Energy =            818.3713495651821859
    One-Electron Energy =               -2450.4193762164932195
    Two-Electron Energy =                1023.5587501372616543
    Total Energy =                       -608.4892765140492656

Computation Completed

Properties will be evaluated at   0.000000,   0.000000,   0.000000 [a0]

Properties computed using the SCF density matrix

  Nuclear Dipole Moment: [e a0]
     X:     1.5694      Y:     4.4926      Z:     1.2974

  Electronic Dipole Moment: [e a0]
     X:    -0.4123      Y:    -5.4470      Z:    -1.0480

  Dipole Moment: [e a0]
     X:     1.1571      Y:    -0.9544      Z:     0.2494     Total:     1.5205

  Dipole Moment: [D]
     X:     2.9410      Y:    -2.4259      Z:     0.6340     Total:     3.8648

*** tstop() called on ds3 at Mon Apr 27 21:23:38 2020
Module time:
	user time   =     258.14 seconds =       4.30 minutes
	system time =      97.81 seconds =       1.63 minutes
	total time  =        347 seconds =       5.78 minutes
Total time:
	user time   =     258.14 seconds =       4.30 minutes
	system time =      97.81 seconds =       1.63 minutes
	total time  =        347 seconds =       5.78 minutes
                                     G D M A

                                 by Anthony Stone

                           version 2.2.06, 22 June 2011

               Distributed Multipoles from Gaussian wavefunctions

Starting at 21:23:38 on 27 Apr 2020

Using SCF density matrix from file ./SSI/SSI-068TYR-082HIE-1-dimer.test.31612.fchk

                         Distributed Multipole Analysis

Standard DMA

Positions and radii in angstrom
Multipole moments in atomic units, ea_0^k for rank k

C          x =  2.058468  y =  1.082929  z =  1.592607 angstrom
           Maximum rank =  0   Radius =  0.650 angstrom
                   Q00  =  -0.173836

C          x =  1.118468  y = -0.047071  z =  1.717607 angstrom
           Maximum rank =  0   Radius =  0.650 angstrom
                   Q00  =  -0.127973

C          x =  1.183468  y = -1.087071  z =  0.820607 angstrom
           Maximum rank =  0   Radius =  0.650 angstrom
                   Q00  =  -0.078546

C          x =  0.215468  y = -0.089071  z =  2.781607 angstrom
           Maximum rank =  0   Radius =  0.650 angstrom
                   Q00  =   0.002664

C          x =  0.346468  y = -2.181071  z =  1.003607 angstrom
           Maximum rank =  0   Radius =  0.650 angstrom
                   Q00  =  -0.090092

C          x = -0.610532  y = -1.196071  z =  2.987607 angstrom
           Maximum rank =  0   Radius =  0.650 angstrom
                   Q00  =  -0.119032

C          x = -0.554532  y = -2.237071  z =  2.071607 angstrom
           Maximum rank =  0   Radius =  0.650 angstrom
                   Q00  =   0.297368

O          x = -1.302532  y = -3.362071  z =  2.247607 angstrom
           Maximum rank =  0   Radius =  0.650 angstrom
                   Q00  =  -0.675155

H          x =  1.745468  y =  1.909929  z =  2.232607 angstrom
           Maximum rank =  0   Radius =  0.325 angstrom
                   Q00  =   0.098568

H          x =  2.025468  y =  1.431929  z =  0.559607 angstrom
           Maximum rank =  0   Radius =  0.325 angstrom
                   Q00  =   0.087354

H          x =  1.885468  y = -1.067071  z = -0.003393 angstrom
           Maximum rank =  0   Radius =  0.325 angstrom
                   Q00  =   0.053243

H          x =  0.142468  y =  0.770929  z =  3.429607 angstrom
           Maximum rank =  0   Radius =  0.325 angstrom
                   Q00  =   0.068359

H          x =  0.399468  y = -3.008072  z =  0.308607 angstrom
           Maximum rank =  0   Radius =  0.325 angstrom
                   Q00  =   0.069996

H          x = -1.309532  y = -1.230071  z =  3.809607 angstrom
           Maximum rank =  0   Radius =  0.325 angstrom
                   Q00  =   0.086870

H          x = -1.142532  y = -4.010071  z =  1.551607 angstrom
           Maximum rank =  0   Radius =  0.325 angstrom
                   Q00  =   0.408677

H          x =  3.085245  y =  0.788538  z =  1.855407 angstrom
           Maximum rank =  0   Radius =  0.325 angstrom
                   Q00  =   0.094661

C          x = -2.354532  y =  2.166929  z = -1.781393 angstrom
           Maximum rank =  0   Radius =  0.650 angstrom
                   Q00  =  -0.205239

C          x = -0.159532  y =  0.860929  z = -1.673393 angstrom
           Maximum rank =  0   Radius =  0.650 angstrom
                   Q00  =  -0.013405

C          x = -1.007532  y =  1.745929  z = -2.238393 angstrom
           Maximum rank =  0   Radius =  0.650 angstrom
                   Q00  =   0.241334

C          x =  0.759468  y =  1.599929  z = -3.516393 angstrom
           Maximum rank =  0   Radius =  0.650 angstrom
                   Q00  =   0.455288

N          x =  0.943468  y =  0.780929  z = -2.489393 angstrom
           Maximum rank =  0   Radius =  0.650 angstrom
                   Q00  =  -0.472442

N          x = -0.429532  y =  2.181929  z = -3.402393 angstrom
           Maximum rank =  0   Radius =  0.650 angstrom
                   Q00  =  -0.773720

H          x = -0.333532  y =  0.319929  z = -0.755393 angstrom
           Maximum rank =  0   Radius =  0.325 angstrom
                   Q00  =   0.111315

H          x =  1.791468  y =  0.239929  z = -2.336393 angstrom
           Maximum rank =  0   Radius =  0.325 angstrom
                   Q00  =   0.217370

H          x = -2.797532  y =  2.822929  z = -2.530393 angstrom
           Maximum rank =  0   Radius =  0.325 angstrom
                   Q00  =   0.121132

H          x = -2.228532  y =  2.750929  z = -0.869393 angstrom
           Maximum rank =  0   Radius =  0.325 angstrom
                   Q00  =   0.097097

H          x =  1.465468  y =  1.761929  z = -4.322393 angstrom
           Maximum rank =  0   Radius =  0.325 angstrom
                   Q00  =   0.119797

H          x = -3.046506  y =  1.336993  z = -1.575533 angstrom
           Maximum rank =  0   Radius =  0.325 angstrom
                   Q00  =   0.098348

Total multipoles referred to origin at
           x =   0.000000,  y =    0.000000,  z =    0.000000 angstrom
                   Q00  =  -0.000000

Finished at 21:23:38 on 27 Apr 2020

  DMA results are available in the Python driver through the
	  variable('DMA DISTRIBUTED MULTIPOLES')
  and
	  variable('DMA TOTAL MULTIPOLES')
  commands.

    Psi4 stopped on: Monday, 27 April 2020 09:23PM
    Psi4 wall time for execution: 0:05:47.19

*** Psi4 exiting successfully. Buy a developer a beer!
