                               Psi4 1.3.2 release

  ==> Input File <==

--------------------------------------------------------------------------
import numpy as np
set {scf_type pk
basis cc-pvdz
d_convergence 10
gdma_switch   0
gdma_limit    0
gdma_origin   [ 0.0,  0.0,  0.0 ]
}
molecule test {
    units Angstrom
    -1 1
    --
    -1 1
    C               -2.291822232080698     3.156073198470408    -1.009258941125808
    C               -1.159822232080698     3.654073198470408    -0.104258941125808
    O               -0.767822232080698     2.909073198470408     0.814741058874192
    O               -0.649822232080698     4.771073198470408    -0.311258941125808
    H               -3.063822232080698     2.677073198470408    -0.411258941125808
    H               -1.866822232080698     2.378073198470408    -1.647258941125808
    H               -2.751422232080698     3.920403198470408    -1.653128941125808
    C                1.228177767919302    -4.534926801529592    -1.233258941125808
    C                0.403177767919302    -0.799926801529592     0.708741058874192
    C                0.448177767919302    -0.824926801529592    -0.682258941125808
    C                0.639177767919302    -1.942926801529592     1.459741058874192
    C                0.733177767919302    -2.026926801529592    -1.325258941125808
    C                0.909177767919302    -3.133926801529592     0.814741058874192
    C                0.956177767919302    -3.187926801529592    -0.572258941125808
    O                0.098177767919302     0.337073198470408     1.383741058874192
    H               -0.121822232080698     1.116073198470408     0.846741058874192
    H                0.254177767919302     0.073073198470408    -1.251258941125808
    H                0.602177767919302    -1.892926801529592     2.537741058874192
    H                0.757177767919302    -2.068926801529592    -2.408258941125808
    H                1.096177767919302    -4.028926801529592     1.391741058874192
    H                0.516177767919302    -4.653926801529592    -2.047258941125808
    H                1.064177767919302    -5.341926801529592    -0.517258941125808
    H                2.241337767919302    -4.619356801529592    -1.653238941125808

}
e, wfn = energy('scf', return_wfn=True)
gdma(wfn)
dmavals = variable('DMA DISTRIBUTED MULTIPOLES')
charges = np.array(dmavals)
print(charges)
np.save('SSI-037ASP-064TYR-1-dimer.npy', np.array(charges))--------------------------------------------------------------------------

*** tstart() called on ds3
*** at Mon Apr 27 22:44:33 2020

   => Loading Basis Set <=

    Name: CC-PVDZ
    Role: ORBITAL
    Keyword: BASIS
    atoms 1-2, 8-14  entry C          line   138 file /theoryfs2/ds/metcalf/miniconda2/envs/tf2gpu/share/psi4/basis/cc-pvdz.gbs
    atoms 3-4, 15    entry O          line   198 file /theoryfs2/ds/metcalf/miniconda2/envs/tf2gpu/share/psi4/basis/cc-pvdz.gbs
    atoms 5-7, 16-23 entry H          line    22 file /theoryfs2/ds/metcalf/miniconda2/envs/tf2gpu/share/psi4/basis/cc-pvdz.gbs

         ---------------------------------------------------------
                                   SCF
               by Justin Turney, Rob Parrish, Andy Simmonett
                          and Daniel G. A. Smith
                              RHF Reference
                        1 Threads,    500 MiB Core
         ---------------------------------------------------------

  ==> Geometry <==

    Molecular point group: c1
    Full point group: C1

    Geometry (in Angstrom), charge = -1, multiplicity = 1:

       Center              X                  Y                   Z               Mass
    ------------   -----------------  -----------------  -----------------  -----------------
         C           -2.291822232081     3.156073198470    -1.009258941126    12.000000000000
         C           -1.159822232081     3.654073198470    -0.104258941126    12.000000000000
         O           -0.767822232081     2.909073198470     0.814741058874    15.994914619570
         O           -0.649822232081     4.771073198470    -0.311258941126    15.994914619570
         H           -3.063822232081     2.677073198470    -0.411258941126     1.007825032230
         H           -1.866822232081     2.378073198470    -1.647258941126     1.007825032230
         H           -2.751422232081     3.920403198470    -1.653128941126     1.007825032230
         C            1.228177767919    -4.534926801530    -1.233258941126    12.000000000000
         C            0.403177767919    -0.799926801530     0.708741058874    12.000000000000
         C            0.448177767919    -0.824926801530    -0.682258941126    12.000000000000
         C            0.639177767919    -1.942926801530     1.459741058874    12.000000000000
         C            0.733177767919    -2.026926801530    -1.325258941126    12.000000000000
         C            0.909177767919    -3.133926801530     0.814741058874    12.000000000000
         C            0.956177767919    -3.187926801530    -0.572258941126    12.000000000000
         O            0.098177767919     0.337073198470     1.383741058874    15.994914619570
         H           -0.121822232081     1.116073198470     0.846741058874     1.007825032230
         H            0.254177767919     0.073073198470    -1.251258941126     1.007825032230
         H            0.602177767919    -1.892926801530     2.537741058874     1.007825032230
         H            0.757177767919    -2.068926801530    -2.408258941126     1.007825032230
         H            1.096177767919    -4.028926801530     1.391741058874     1.007825032230
         H            0.516177767919    -4.653926801530    -2.047258941126     1.007825032230
         H            1.064177767919    -5.341926801530    -0.517258941126     1.007825032230
         H            2.241337767919    -4.619356801530    -1.653238941126     1.007825032230

  Running in c1 symmetry.

  Rotational constants: A =      0.07912  B =      0.01003  C =      0.00926 [cm^-1]
  Rotational constants: A =   2372.06961  B =    300.75473  C =    277.68506 [MHz]
  Nuclear repulsion =  624.815606809786459

  Charge       = -1
  Multiplicity = 1
  Electrons    = 90
  Nalpha       = 45
  Nbeta        = 45

  ==> Algorithm <==

  SCF Algorithm Type is PK.
  DIIS enabled.
  MOM disabled.
  Fractional occupation disabled.
  Guess Type is SAD.
  Energy threshold   = 1.00e-06
  Density threshold  = 1.00e-10
  Integral threshold = 0.00e+00

  ==> Primary Basis <==

  Basis Set: CC-PVDZ
    Blend: CC-PVDZ
    Number of shells: 105
    Number of basis function: 223
    Number of Cartesian functions: 235
    Spherical Harmonics?: true
    Max angular momentum: 2

  ==> Pre-Iterations <==

   -------------------------------------------------------
    Irrep   Nso     Nmo     Nalpha   Nbeta   Ndocc  Nsocc
   -------------------------------------------------------
     A        223     223       0       0       0       0
   -------------------------------------------------------
    Total     223     223      45      45      45       0
   -------------------------------------------------------

  ==> Integral Setup <==

  Using integral reordering PK algorithm.
  Sizing the integral batches needed.
  Building batch lookup table.
   Calculation information:
      Number of atoms:                  23
      Number of AO shells:             105
      Number of primitives:            319
      Number of atomic orbitals:       235
      Number of basis functions:       223

      Integral cutoff                 1.00e-12
      Number of threads:                 1

	Batch   1 pq = [       0,    9405] index = [             0,44231715] size =     44231715
	Batch   2 pq = [    9405,   13301] index = [      44231715,88464951] size =     44233236
	Batch   3 pq = [   13301,   16290] index = [      88464951,132690195] size =     44225244
	Batch   4 pq = [   16290,   18810] index = [     132690195,176917455] size =     44227260
	Batch   5 pq = [   18810,   21030] index = [     176917455,221140965] size =     44223510
	Batch   6 pq = [   21030,   23037] index = [     221140965,265363203] size =     44222238
	Batch   7 pq = [   23037,   24976] index = [     265363203,311912776] size =     46549573
  Task number: 29
  Buffer size: 11059200
  Buffer per thread: 2
  We computed 11653170 shell quartets total.
  Whereas there are 15487395 unique shell quartets.

  ==> DiskJK: Disk-Based J/K Matrices <==

    J tasked:                  Yes
    K tasked:                  Yes
    wK tasked:                  No
    Memory [MiB]:              375
    Schwarz Cutoff:          1E-12

    OpenMP threads:              1

  Minimum eigenvalue in the overlap matrix is 3.1598423943E-04.
  Using Symmetric Orthogonalization.

  SCF Guess: Superposition of Atomic Densities via on-the-fly atomic UHF.

  ==> Iterations <==

                        Total Energy        Delta E     RMS |[F,P]|

   @RHF iter SAD:  -570.21938652096537   -5.70219e+02   0.00000e+00
   @RHF iter   1:  -571.54461596398369   -1.32523e+00   3.64096e-03 DIIS
   @RHF iter   2:  -571.81724004813827   -2.72624e-01   1.92598e-03 DIIS
   @RHF iter   3:  -571.88600341171502   -6.87634e-02   3.39887e-04 DIIS
   @RHF iter   4:  -571.88970074896042   -3.69734e-03   1.26607e-04 DIIS
   @RHF iter   5:  -571.89021766979852   -5.16921e-04   2.16984e-05 DIIS
   @RHF iter   6:  -571.89023988789597   -2.22181e-05   1.07231e-05 DIIS
   @RHF iter   7:  -571.89024438445949   -4.49656e-06   3.63321e-06 DIIS
   @RHF iter   8:  -571.89024553554304   -1.15108e-06   1.58572e-06 DIIS
   @RHF iter   9:  -571.89024581929755   -2.83755e-07   6.90902e-07 DIIS
   @RHF iter  10:  -571.89024587844699   -5.91494e-08   2.89146e-07 DIIS
   @RHF iter  11:  -571.89024588901884   -1.05719e-08   1.15970e-07 DIIS
   @RHF iter  12:  -571.89024589000405   -9.85210e-10   4.47653e-08 DIIS
   @RHF iter  13:  -571.89024589017595   -1.71894e-10   1.45650e-08 DIIS
   @RHF iter  14:  -571.89024589019243   -1.64846e-11   5.81141e-09 DIIS
   @RHF iter  15:  -571.89024589019471   -2.27374e-12   2.28602e-09 DIIS
   @RHF iter  16:  -571.89024589019618   -1.47793e-12   8.91254e-10 DIIS
   @RHF iter  17:  -571.89024589019743   -1.25056e-12   2.99988e-10 DIIS
   @RHF iter  18:  -571.89024589018538    1.20508e-11   8.47435e-11 DIIS
  Energy and wave function converged.

  ==> Post-Iterations <==

    Orbital Energies [Eh]
    ---------------------

    Doubly Occupied:

       1A    -20.432144     2A    -20.286021     3A    -20.277291
       4A    -11.188586     5A    -11.150263     6A    -11.145135
       7A    -11.141372     8A    -11.138231     9A    -11.137996
      10A    -11.127327    11A    -11.124381    12A    -11.067514
      13A     -1.255004    14A     -1.176129    15A     -1.059908
      16A     -1.051845    17A     -0.937759    18A     -0.921061
      19A     -0.831211    20A     -0.812594    21A     -0.741617
      22A     -0.699209    23A     -0.616812    24A     -0.559731
      25A     -0.540453    26A     -0.522682    27A     -0.504192
      28A     -0.492180    29A     -0.491806    30A     -0.463799
      31A     -0.450393    32A     -0.430025    33A     -0.426176
      34A     -0.425090    35A     -0.417487    36A     -0.400140
      37A     -0.378270    38A     -0.363698    39A     -0.360130
      40A     -0.326328    41A     -0.243600    42A     -0.207964
      43A     -0.193643    44A     -0.191344    45A     -0.185175

    Virtual:

      46A      0.228107    47A      0.256732    48A      0.264305
      49A      0.292918    50A      0.298072    51A      0.324599
      52A      0.338764    53A      0.351316    54A      0.366919
      55A      0.372374    56A      0.401251    57A      0.418714
      58A      0.438931    59A      0.453209    60A      0.471099
      61A      0.489771    62A      0.543212    63A      0.560246
      64A      0.566163    65A      0.588189    66A      0.606037
      67A      0.616013    68A      0.680142    69A      0.703259
      70A      0.716488    71A      0.723647    72A      0.751834
      73A      0.762225    74A      0.787888    75A      0.790638
      76A      0.802215    77A      0.808137    78A      0.826078
      79A      0.831055    80A      0.837731    81A      0.857351
      82A      0.864217    83A      0.888007    84A      0.890356
      85A      0.900965    86A      0.920613    87A      0.928152
      88A      0.945026    89A      0.953798    90A      0.958292
      91A      0.969034    92A      0.976751    93A      0.992034
      94A      1.001041    95A      1.015133    96A      1.016818
      97A      1.027950    98A      1.033103    99A      1.035146
     100A      1.050289   101A      1.059284   102A      1.082125
     103A      1.115361   104A      1.124838   105A      1.144021
     106A      1.188754   107A      1.211555   108A      1.222882
     109A      1.246225   110A      1.255127   111A      1.263256
     112A      1.299027   113A      1.327198   114A      1.329871
     115A      1.339678   116A      1.342484   117A      1.379471
     118A      1.380104   119A      1.400724   120A      1.407791
     121A      1.414848   122A      1.439864   123A      1.467002
     124A      1.482532   125A      1.499253   126A      1.539133
     127A      1.557234   128A      1.560818   129A      1.590757
     130A      1.599703   131A      1.613479   132A      1.634387
     133A      1.652626   134A      1.680747   135A      1.697637
     136A      1.720133   137A      1.767006   138A      1.774421
     139A      1.803373   140A      1.818377   141A      1.831412
     142A      1.838244   143A      1.841304   144A      1.867453
     145A      1.870304   146A      1.907203   147A      1.909235
     148A      1.958461   149A      1.985405   150A      1.990876
     151A      2.003684   152A      2.009067   153A      2.023087
     154A      2.033219   155A      2.048278   156A      2.060087
     157A      2.066960   158A      2.072728   159A      2.085318
     160A      2.088674   161A      2.122039   162A      2.133586
     163A      2.155508   164A      2.163773   165A      2.167336
     166A      2.183709   167A      2.200104   168A      2.223866
     169A      2.230492   170A      2.256763   171A      2.266222
     172A      2.304935   173A      2.311750   174A      2.331428
     175A      2.338274   176A      2.370734   177A      2.391518
     178A      2.406512   179A      2.414723   180A      2.438593
     181A      2.492431   182A      2.498623   183A      2.542390
     184A      2.559498   185A      2.598232   186A      2.626735
     187A      2.641962   188A      2.649933   189A      2.685048
     190A      2.691236   191A      2.724449   192A      2.766393
     193A      2.795047   194A      2.835199   195A      2.851254
     196A      2.892258   197A      2.896608   198A      2.907727
     199A      2.927560   200A      2.966368   201A      2.974207
     202A      2.993767   203A      3.060174   204A      3.105913
     205A      3.192147   206A      3.209368   207A      3.233449
     208A      3.256985   209A      3.272612   210A      3.338547
     211A      3.372363   212A      3.382698   213A      3.512963
     214A      3.619942   215A      3.700499   216A      3.766931
     217A      3.800025   218A      3.821377   219A      4.048938
     220A      4.084719   221A      4.121449   222A      4.183427
     223A      4.374335

    Final Occupation by Irrep:
              A
    DOCC [    45 ]

  @RHF Final Energy:  -571.89024589018538

   => Energetics <=

    Nuclear Repulsion Energy =            624.8156068097864591
    One-Electron Energy =               -2033.6242729516825420
    Two-Electron Energy =                 836.9184202517106996
    Total Energy =                       -571.8902458901853834

Computation Completed

Properties will be evaluated at   0.000000,   0.000000,   0.000000 [a0]

Properties computed using the SCF density matrix

  Nuclear Dipole Moment: [e a0]
     X:    -1.1993      Y:   -11.6248      Z:    -6.3776

  Electronic Dipole Moment: [e a0]
     X:     1.9196      Y:     5.7673      Z:     5.2919

  Dipole Moment: [e a0]
     X:     0.7203      Y:    -5.8576      Z:    -1.0858     Total:     6.0007

  Dipole Moment: [D]
     X:     1.8309      Y:   -14.8884      Z:    -2.7598     Total:    15.2523

*** tstop() called on ds3 at Mon Apr 27 22:47:19 2020
Module time:
	user time   =     101.81 seconds =       1.70 minutes
	system time =      54.21 seconds =       0.90 minutes
	total time  =        166 seconds =       2.77 minutes
Total time:
	user time   =     101.81 seconds =       1.70 minutes
	system time =      54.21 seconds =       0.90 minutes
	total time  =        166 seconds =       2.77 minutes
                                     G D M A

                                 by Anthony Stone

                           version 2.2.06, 22 June 2011

               Distributed Multipoles from Gaussian wavefunctions

Starting at 22:47:19 on 27 Apr 2020

Using SCF density matrix from file ./SSI/SSI-037ASP-064TYR-1-dimer.test.4251.fchk

                         Distributed Multipole Analysis

Standard DMA

Positions and radii in angstrom
Multipole moments in atomic units, ea_0^k for rank k

C          x = -2.291822  y =  3.156073  z = -1.009259 angstrom
           Maximum rank =  0   Radius =  0.650 angstrom
                   Q00  =  -0.286582

C          x = -1.159822  y =  3.654073  z = -0.104259 angstrom
           Maximum rank =  0   Radius =  0.650 angstrom
                   Q00  =   0.948287

O          x = -0.767822  y =  2.909073  z =  0.814741 angstrom
           Maximum rank =  0   Radius =  0.650 angstrom
                   Q00  =  -0.959772

O          x = -0.649822  y =  4.771073  z = -0.311259 angstrom
           Maximum rank =  0   Radius =  0.650 angstrom
                   Q00  =  -0.896860

H          x = -3.063822  y =  2.677073  z = -0.411259 angstrom
           Maximum rank =  0   Radius =  0.325 angstrom
                   Q00  =   0.069320

H          x = -1.866822  y =  2.378073  z = -1.647259 angstrom
           Maximum rank =  0   Radius =  0.325 angstrom
                   Q00  =   0.072291

H          x = -2.751422  y =  3.920403  z = -1.653129 angstrom
           Maximum rank =  0   Radius =  0.325 angstrom
                   Q00  =   0.060951

C          x =  1.228178  y = -4.534927  z = -1.233259 angstrom
           Maximum rank =  0   Radius =  0.650 angstrom
                   Q00  =  -0.197044

C          x =  0.403178  y = -0.799927  z =  0.708741 angstrom
           Maximum rank =  0   Radius =  0.650 angstrom
                   Q00  =   0.482413

C          x =  0.448178  y = -0.824927  z = -0.682259 angstrom
           Maximum rank =  0   Radius =  0.650 angstrom
                   Q00  =  -0.201312

C          x =  0.639178  y = -1.942927  z =  1.459741 angstrom
           Maximum rank =  0   Radius =  0.650 angstrom
                   Q00  =  -0.125839

C          x =  0.733178  y = -2.026927  z = -1.325259 angstrom
           Maximum rank =  0   Radius =  0.650 angstrom
                   Q00  =  -0.070724

C          x =  0.909178  y = -3.133927  z =  0.814741 angstrom
           Maximum rank =  0   Radius =  0.650 angstrom
                   Q00  =  -0.007470

C          x =  0.956178  y = -3.187927  z = -0.572259 angstrom
           Maximum rank =  0   Radius =  0.650 angstrom
                   Q00  =  -0.153108

O          x =  0.098178  y =  0.337073  z =  1.383741 angstrom
           Maximum rank =  0   Radius =  0.650 angstrom
                   Q00  =  -0.734618

H          x = -0.121822  y =  1.116073  z =  0.846741 angstrom
           Maximum rank =  0   Radius =  0.325 angstrom
                   Q00  =   0.504324

H          x =  0.254178  y =  0.073073  z = -1.251259 angstrom
           Maximum rank =  0   Radius =  0.325 angstrom
                   Q00  =   0.089759

H          x =  0.602178  y = -1.892927  z =  2.537741 angstrom
           Maximum rank =  0   Radius =  0.325 angstrom
                   Q00  =   0.064410

H          x =  0.757178  y = -2.068927  z = -2.408259 angstrom
           Maximum rank =  0   Radius =  0.325 angstrom
                   Q00  =   0.050600

H          x =  1.096178  y = -4.028927  z =  1.391741 angstrom
           Maximum rank =  0   Radius =  0.325 angstrom
                   Q00  =   0.040201

H          x =  0.516178  y = -4.653927  z = -2.047259 angstrom
           Maximum rank =  0   Radius =  0.325 angstrom
                   Q00  =   0.083952

H          x =  1.064178  y = -5.341927  z = -0.517259 angstrom
           Maximum rank =  0   Radius =  0.325 angstrom
                   Q00  =   0.084598

H          x =  2.241338  y = -4.619357  z = -1.653239 angstrom
           Maximum rank =  0   Radius =  0.325 angstrom
                   Q00  =   0.082221

Total multipoles referred to origin at
           x =   0.000000,  y =    0.000000,  z =    0.000000 angstrom
                   Q00  =  -1.000000

Finished at 22:47:19 on 27 Apr 2020

  DMA results are available in the Python driver through the
	  variable('DMA DISTRIBUTED MULTIPOLES')
  and
	  variable('DMA TOTAL MULTIPOLES')
  commands.

    Psi4 stopped on: Monday, 27 April 2020 10:47PM
    Psi4 wall time for execution: 0:02:46.40

*** Psi4 exiting successfully. Buy a developer a beer!
