                               Psi4 1.3.2 release

  ==> Input File <==

--------------------------------------------------------------------------
import numpy as np
set {scf_type pk
basis cc-pvdz
d_convergence 10
gdma_switch   0
gdma_limit    0
gdma_origin   [ 0.0,  0.0,  0.0 ]
}
molecule test {
    units Angstrom
    0 1
    --
    0 1
    C                1.077647148894054    -1.522901301980476     1.634894983985674
    C                0.836647148894055    -2.930901301980476     2.183894983985674
    C                0.054647148894054    -0.480901301980476     2.006894983985674
    C                0.219647148894054     0.649098698019524     2.747894983985674
    C               -1.822352851105945     0.653098698019524     1.999894983985674
    N               -1.241352851105946    -0.459901301980476     1.554894983985674
    N               -0.967352851105946     1.334098698019524     2.745894983985674
    H                2.034647148894055    -1.165901301980476     2.015894983985674
    H                1.148647148894054    -1.568901301980477     0.547894983985674
    H                0.568647148894054    -2.851901301980476     3.238894983985674
    H                1.140647148894054     0.953098698019524     3.226894983985674
    H               -2.839352851105946     0.954098698019524     1.782894983985674
    H               -1.146352851105946     2.216098698019524     3.188894983985675
    H                1.760423148894054    -3.520129301980476     2.086694983985674
    H                0.017621148894054    -3.421882301980476     1.637874983985674
    C                2.676647148894054     1.307098698019523    -0.590105016014326
    C                1.418647148894054     0.798098698019524    -1.258105016014326
    C                1.441647148894055    -0.211901301980476    -2.227105016014326
    C                0.190647148894054     1.335098698019524    -0.890105016014326
    C                0.285647148894055    -0.633901301980476    -2.857105016014326
    C               -0.974352851105945     0.917098698019524    -1.524105016014326
    C               -0.925352851105946    -0.044901301980476    -2.520105016014325
    O               -2.098352851105945    -0.403901301980476    -3.125105016014326
    H                3.145647148894054     0.481098698019524    -0.055105016014326
    H                2.393647148894054     2.052098698019523     0.154894983985674
    H                2.375647148894054    -0.687901301980476    -2.481105016014326
    H                0.132647148894054     2.070098698019523    -0.101105016014326
    H                0.326647148894054    -1.416901301980477    -3.598105016014326
    H               -1.929352851105945     1.308098698019523    -1.216105016014326
    H               -1.889352851105946    -0.927901301980476    -3.920105016014326
    H                3.410652148894055     1.764868698019523    -1.269575016014326

}
e, wfn = energy('scf', return_wfn=True)
gdma(wfn)
dmavals = variable('DMA DISTRIBUTED MULTIPOLES')
charges = np.array(dmavals)
print(charges)
np.save('SSI-085HIE-094TYR-1-dimer.npy', np.array(charges))--------------------------------------------------------------------------

*** tstart() called on ds3
*** at Mon Apr 27 17:51:32 2020

   => Loading Basis Set <=

    Name: CC-PVDZ
    Role: ORBITAL
    Keyword: BASIS
    atoms 1-5, 16-22  entry C          line   138 file /theoryfs2/ds/metcalf/miniconda2/envs/tf2gpu/share/psi4/basis/cc-pvdz.gbs
    atoms 6-7         entry N          line   168 file /theoryfs2/ds/metcalf/miniconda2/envs/tf2gpu/share/psi4/basis/cc-pvdz.gbs
    atoms 8-15, 24-31 entry H          line    22 file /theoryfs2/ds/metcalf/miniconda2/envs/tf2gpu/share/psi4/basis/cc-pvdz.gbs
    atoms 23          entry O          line   198 file /theoryfs2/ds/metcalf/miniconda2/envs/tf2gpu/share/psi4/basis/cc-pvdz.gbs

         ---------------------------------------------------------
                                   SCF
               by Justin Turney, Rob Parrish, Andy Simmonett
                          and Daniel G. A. Smith
                              RHF Reference
                        1 Threads,    500 MiB Core
         ---------------------------------------------------------

  ==> Geometry <==

    Molecular point group: c1
    Full point group: C1

    Geometry (in Angstrom), charge = 0, multiplicity = 1:

       Center              X                  Y                   Z               Mass
    ------------   -----------------  -----------------  -----------------  -----------------
         C            1.077647148894    -1.522901301980     1.634894983986    12.000000000000
         C            0.836647148894    -2.930901301980     2.183894983986    12.000000000000
         C            0.054647148894    -0.480901301980     2.006894983986    12.000000000000
         C            0.219647148894     0.649098698020     2.747894983986    12.000000000000
         C           -1.822352851106     0.653098698020     1.999894983986    12.000000000000
         N           -1.241352851106    -0.459901301980     1.554894983986    14.003074004430
         N           -0.967352851106     1.334098698020     2.745894983986    14.003074004430
         H            2.034647148894    -1.165901301980     2.015894983986     1.007825032230
         H            1.148647148894    -1.568901301980     0.547894983986     1.007825032230
         H            0.568647148894    -2.851901301980     3.238894983986     1.007825032230
         H            1.140647148894     0.953098698020     3.226894983986     1.007825032230
         H           -2.839352851106     0.954098698020     1.782894983986     1.007825032230
         H           -1.146352851106     2.216098698020     3.188894983986     1.007825032230
         H            1.760423148894    -3.520129301980     2.086694983986     1.007825032230
         H            0.017621148894    -3.421882301980     1.637874983986     1.007825032230
         C            2.676647148894     1.307098698020    -0.590105016014    12.000000000000
         C            1.418647148894     0.798098698020    -1.258105016014    12.000000000000
         C            1.441647148894    -0.211901301980    -2.227105016014    12.000000000000
         C            0.190647148894     1.335098698020    -0.890105016014    12.000000000000
         C            0.285647148894    -0.633901301980    -2.857105016014    12.000000000000
         C           -0.974352851106     0.917098698020    -1.524105016014    12.000000000000
         C           -0.925352851106    -0.044901301980    -2.520105016014    12.000000000000
         O           -2.098352851106    -0.403901301980    -3.125105016014    15.994914619570
         H            3.145647148894     0.481098698020    -0.055105016014     1.007825032230
         H            2.393647148894     2.052098698020     0.154894983986     1.007825032230
         H            2.375647148894    -0.687901301980    -2.481105016014     1.007825032230
         H            0.132647148894     2.070098698020    -0.101105016014     1.007825032230
         H            0.326647148894    -1.416901301980    -3.598105016014     1.007825032230
         H           -1.929352851106     1.308098698020    -1.216105016014     1.007825032230
         H           -1.889352851106    -0.927901301980    -3.920105016014     1.007825032230
         H            3.410652148894     1.764868698020    -1.269575016014     1.007825032230

  Running in c1 symmetry.

  Rotational constants: A =      0.02472  B =      0.01354  C =      0.01253 [cm^-1]
  Rotational constants: A =    741.11256  B =    406.00755  C =    375.67918 [MHz]
  Nuclear repulsion =  970.084592592250942

  Charge       = 0
  Multiplicity = 1
  Electrons    = 110
  Nalpha       = 55
  Nbeta        = 55

  ==> Algorithm <==

  SCF Algorithm Type is PK.
  DIIS enabled.
  MOM disabled.
  Fractional occupation disabled.
  Guess Type is SAD.
  Energy threshold   = 1.00e-06
  Density threshold  = 1.00e-10
  Integral threshold = 0.00e+00

  ==> Primary Basis <==

  Basis Set: CC-PVDZ
    Blend: CC-PVDZ
    Number of shells: 138
    Number of basis function: 290
    Number of Cartesian functions: 305
    Spherical Harmonics?: true
    Max angular momentum: 2

  ==> Pre-Iterations <==

   -------------------------------------------------------
    Irrep   Nso     Nmo     Nalpha   Nbeta   Ndocc  Nsocc
   -------------------------------------------------------
     A        290     290       0       0       0       0
   -------------------------------------------------------
    Total     290     290      55      55      55       0
   -------------------------------------------------------

  ==> Integral Setup <==

  Using integral reordering PK algorithm.
  Sizing the integral batches needed.
  Building batch lookup table.
   Calculation information:
      Number of atoms:                  31
      Number of AO shells:             138
      Number of primitives:            410
      Number of atomic orbitals:       305
      Number of basis functions:       290

      Integral cutoff                 1.00e-12
      Number of threads:                 1

	Batch   1 pq = [       0,    9405] index = [             0,44231715] size =     44231715
	Batch   2 pq = [    9405,   13301] index = [      44231715,88464951] size =     44233236
	Batch   3 pq = [   13301,   16290] index = [      88464951,132690195] size =     44225244
	Batch   4 pq = [   16290,   18810] index = [     132690195,176917455] size =     44227260
	Batch   5 pq = [   18810,   21030] index = [     176917455,221140965] size =     44223510
	Batch   6 pq = [   21030,   23037] index = [     221140965,265363203] size =     44222238
	Batch   7 pq = [   23037,   24883] index = [     265363203,309594286] size =     44231083
	Batch   8 pq = [   24883,   26601] index = [     309594286,353819901] size =     44225615
	Batch   9 pq = [   26601,   28214] index = [     353819901,398029005] size =     44209104
	Batch  10 pq = [   28214,   29740] index = [     398029005,442248670] size =     44219665
	Batch  11 pq = [   29740,   31191] index = [     442248670,486454836] size =     44206166
	Batch  12 pq = [   31191,   32578] index = [     486454836,530679331] size =     44224495
	Batch  13 pq = [   32578,   33908] index = [     530679331,574893186] size =     44213855
	Batch  14 pq = [   33908,   35188] index = [     574893186,619115266] size =     44222080
	Batch  15 pq = [   35188,   36423] index = [     619115266,663335676] size =     44220410
	Batch  16 pq = [   36423,   37617] index = [     663335676,707538153] size =     44202477
	Batch  17 pq = [   37617,   38775] index = [     707538153,751769700] size =     44231547
	Batch  18 pq = [   38775,   39899] index = [     751769700,795985050] size =     44215350
	Batch  19 pq = [   39899,   40992] index = [     795985050,840192528] size =     44207478
	Batch  20 pq = [   40992,   42057] index = [     840192528,884416653] size =     44224125
	Batch  21 pq = [   42057,   42195] index = [     884416653,890230110] size =      5813457
  Task number: 81
  Buffer size: 11059200
  Buffer per thread: 2
  We computed 52558351 shell quartets total.
  Whereas there are 45998436 unique shell quartets.
    14.26 percent of shell quartets recomputed by reordering.

  ==> DiskJK: Disk-Based J/K Matrices <==

    J tasked:                  Yes
    K tasked:                  Yes
    wK tasked:                  No
    Memory [MiB]:              375
    Schwarz Cutoff:          1E-12

    OpenMP threads:              1

  Minimum eigenvalue in the overlap matrix is 3.1104004824E-04.
  Using Symmetric Orthogonalization.

  SCF Guess: Superposition of Atomic Densities via on-the-fly atomic UHF.

  ==> Iterations <==

                        Total Energy        Delta E     RMS |[F,P]|

   @RHF iter SAD:  -646.60494937544991   -6.46605e+02   0.00000e+00
   @RHF iter   1:  -647.17567764608043   -5.70728e-01   2.54266e-03 DIIS
   @RHF iter   2:  -647.45452426634722   -2.78847e-01   1.28654e-03 DIIS
   @RHF iter   3:  -647.51929975182679   -6.47755e-02   3.42610e-04 DIIS
   @RHF iter   4:  -647.52519653023910   -5.89678e-03   1.40556e-04 DIIS
   @RHF iter   5:  -647.52613213432369   -9.35604e-04   1.98802e-05 DIIS
   @RHF iter   6:  -647.52616371706245   -3.15827e-05   8.75132e-06 DIIS
   @RHF iter   7:  -647.52616885123768   -5.13418e-06   2.87061e-06 DIIS
   @RHF iter   8:  -647.52616971955774   -8.68320e-07   1.17124e-06 DIIS
   @RHF iter   9:  -647.52616987667852   -1.57121e-07   4.96504e-07 DIIS
   @RHF iter  10:  -647.52616990941328   -3.27348e-08   1.83014e-07 DIIS
   @RHF iter  11:  -647.52616991532352   -5.91024e-09   6.89427e-08 DIIS
   @RHF iter  12:  -647.52616991616844   -8.44921e-10   3.17109e-08 DIIS
   @RHF iter  13:  -647.52616991631487   -1.46429e-10   1.06686e-08 DIIS
   @RHF iter  14:  -647.52616991633352   -1.86446e-11   4.34862e-09 DIIS
   @RHF iter  15:  -647.52616991633374   -2.27374e-13   1.95623e-09 DIIS
   @RHF iter  16:  -647.52616991633886   -5.11591e-12   9.52168e-10 DIIS
   @RHF iter  17:  -647.52616991633727    1.59162e-12   3.74266e-10 DIIS
   @RHF iter  18:  -647.52616991633477    2.50111e-12   1.26517e-10 DIIS
   @RHF iter  19:  -647.52616991633045    4.32010e-12   6.34865e-11 DIIS
  Energy and wave function converged.

  ==> Post-Iterations <==

    Orbital Energies [Eh]
    ---------------------

    Doubly Occupied:

       1A    -20.575344     2A    -15.621007     3A    -15.524907
       4A    -11.289727     5A    -11.286110     6A    -11.247256
       7A    -11.235932     8A    -11.229523     9A    -11.225822
      10A    -11.224487    11A    -11.224365    12A    -11.222678
      13A    -11.219483    14A    -11.215635    15A    -11.210939
      16A     -1.387413    17A     -1.343689    18A     -1.155984
      19A     -1.142623    20A     -1.044560    21A     -1.028281
      22A     -1.009755    23A     -0.981899    24A     -0.917835
      25A     -0.854404    26A     -0.835205    27A     -0.821396
      28A     -0.791295    29A     -0.758702    30A     -0.733686
      31A     -0.718681    32A     -0.659384    33A     -0.631771
      34A     -0.618948    35A     -0.606291    36A     -0.599568
      37A     -0.593044    38A     -0.582717    39A     -0.577397
      40A     -0.575971    41A     -0.562923    42A     -0.561096
      43A     -0.556555    44A     -0.518627    45A     -0.507686
      46A     -0.491843    47A     -0.484926    48A     -0.476470
      49A     -0.474992    50A     -0.457521    51A     -0.405065
      52A     -0.378798    53A     -0.326017    54A     -0.306920
      55A     -0.291450

    Virtual:

      56A      0.140750    57A      0.161700    58A      0.168832
      59A      0.180147    60A      0.187051    61A      0.190101
      62A      0.208473    63A      0.213004    64A      0.218137
      65A      0.234213    66A      0.238513    67A      0.252897
      68A      0.258241    69A      0.271674    70A      0.275777
      71A      0.281243    72A      0.287075    73A      0.306357
      74A      0.311754    75A      0.323926    76A      0.374122
      77A      0.380716    78A      0.390918    79A      0.402928
      80A      0.413100    81A      0.433055    82A      0.440175
      83A      0.462259    84A      0.476742    85A      0.487135
      86A      0.505604    87A      0.514023    88A      0.524005
      89A      0.578079    90A      0.603030    91A      0.612991
      92A      0.624174    93A      0.642555    94A      0.653606
      95A      0.659667    96A      0.668447    97A      0.686335
      98A      0.690753    99A      0.699084   100A      0.705411
     101A      0.724943   102A      0.728523   103A      0.735745
     104A      0.740988   105A      0.753881   106A      0.771387
     107A      0.772837   108A      0.777994   109A      0.781774
     110A      0.799978   111A      0.805863   112A      0.817470
     113A      0.822059   114A      0.841706   115A      0.851352
     116A      0.863312   117A      0.869349   118A      0.881262
     119A      0.883258   120A      0.890543   121A      0.900751
     122A      0.906586   123A      0.909509   124A      0.912955
     125A      0.920674   126A      0.926889   127A      0.933601
     128A      0.937947   129A      0.956217   130A      0.959740
     131A      0.965851   132A      0.975670   133A      0.992723
     134A      1.005366   135A      1.009736   136A      1.021877
     137A      1.034723   138A      1.049407   139A      1.076591
     140A      1.079384   141A      1.091462   142A      1.103743
     143A      1.117282   144A      1.131781   145A      1.142697
     146A      1.147784   147A      1.163416   148A      1.180675
     149A      1.186510   150A      1.198252   151A      1.228421
     152A      1.243397   153A      1.245436   154A      1.268888
     155A      1.281614   156A      1.289816   157A      1.306678
     158A      1.313321   159A      1.317662   160A      1.323342
     161A      1.333295   162A      1.346056   163A      1.355489
     164A      1.376365   165A      1.387511   166A      1.396193
     167A      1.427579   168A      1.434756   169A      1.455618
     170A      1.457500   171A      1.489800   172A      1.502128
     173A      1.515111   174A      1.543365   175A      1.546189
     176A      1.555541   177A      1.577226   178A      1.609221
     179A      1.620859   180A      1.640790   181A      1.681795
     182A      1.684624   183A      1.700852   184A      1.712643
     185A      1.727278   186A      1.754095   187A      1.764203
     188A      1.776168   189A      1.785608   190A      1.811700
     191A      1.819326   192A      1.824246   193A      1.849569
     194A      1.852977   195A      1.872168   196A      1.889658
     197A      1.894525   198A      1.900627   199A      1.914934
     200A      1.928173   201A      1.937975   202A      1.939518
     203A      1.944714   204A      1.953762   205A      1.954453
     206A      1.961202   207A      1.972015   208A      1.978254
     209A      1.985018   210A      1.993871   211A      2.000427
     212A      2.017241   213A      2.030090   214A      2.038907
     215A      2.048928   216A      2.055579   217A      2.071799
     218A      2.080099   219A      2.084211   220A      2.094779
     221A      2.108902   222A      2.124407   223A      2.140120
     224A      2.150463   225A      2.152107   226A      2.161858
     227A      2.182945   228A      2.201505   229A      2.214536
     230A      2.218478   231A      2.239874   232A      2.257012
     233A      2.280154   234A      2.294457   235A      2.306879
     236A      2.328691   237A      2.334377   238A      2.345580
     239A      2.372565   240A      2.390004   241A      2.400717
     242A      2.416648   243A      2.447146   244A      2.459574
     245A      2.477216   246A      2.489324   247A      2.495517
     248A      2.499885   249A      2.532032   250A      2.546354
     251A      2.552968   252A      2.584287   253A      2.594067
     254A      2.616076   255A      2.624469   256A      2.650139
     257A      2.687867   258A      2.748229   259A      2.762743
     260A      2.774992   261A      2.780128   262A      2.788528
     263A      2.807526   264A      2.816778   265A      2.832966
     266A      2.845044   267A      2.865422   268A      2.886629
     269A      2.897509   270A      2.910065   271A      2.926842
     272A      2.948995   273A      2.968916   274A      2.991220
     275A      3.013063   276A      3.028631   277A      3.098605
     278A      3.105484   279A      3.141119   280A      3.182438
     281A      3.271757   282A      3.277440   283A      3.307048
     284A      3.346161   285A      3.476626   286A      3.584736
     287A      3.702513   288A      3.815736   289A      3.953670
     290A      4.187138

    Final Occupation by Irrep:
              A
    DOCC [    55 ]

  @RHF Final Energy:  -647.52616991633045

   => Energetics <=

    Nuclear Repulsion Energy =            970.0845925922509423
    One-Electron Energy =               -2806.5723250180180912
    Two-Electron Energy =                1188.9615625094368170
    Total Energy =                       -647.5261699163304456

Computation Completed

Properties will be evaluated at   0.000000,   0.000000,   0.000000 [a0]

Properties computed using the SCF density matrix

  Nuclear Dipole Moment: [e a0]
     X:     9.9814      Y:    -3.5311      Z:     4.8845

  Electronic Dipole Moment: [e a0]
     X:    -9.4950      Y:     4.4242      Z:    -4.4323

  Dipole Moment: [e a0]
     X:     0.4865      Y:     0.8931      Z:     0.4522     Total:     1.1130

  Dipole Moment: [D]
     X:     1.2364      Y:     2.2701      Z:     1.1494     Total:     2.8290

*** tstop() called on ds3 at Mon Apr 27 18:04:15 2020
Module time:
	user time   =     444.88 seconds =       7.41 minutes
	system time =     148.91 seconds =       2.48 minutes
	total time  =        763 seconds =      12.72 minutes
Total time:
	user time   =     444.88 seconds =       7.41 minutes
	system time =     148.91 seconds =       2.48 minutes
	total time  =        763 seconds =      12.72 minutes
                                     G D M A

                                 by Anthony Stone

                           version 2.2.06, 22 June 2011

               Distributed Multipoles from Gaussian wavefunctions

Starting at 18:4:15 on 27 Apr 2020

Using SCF density matrix from file ./SSI/SSI-085HIE-094TYR-1-dimer.test.17776.fchk

                         Distributed Multipole Analysis

Standard DMA

Positions and radii in angstrom
Multipole moments in atomic units, ea_0^k for rank k

C          x =  1.077647  y = -1.522901  z =  1.634895 angstrom
           Maximum rank =  0   Radius =  0.650 angstrom
                   Q00  =  -0.035973

C          x =  0.836647  y = -2.930901  z =  2.183895 angstrom
           Maximum rank =  0   Radius =  0.650 angstrom
                   Q00  =  -0.224589

C          x =  0.054647  y = -0.480901  z =  2.006895 angstrom
           Maximum rank =  0   Radius =  0.650 angstrom
                   Q00  =   0.231767

C          x =  0.219647  y =  0.649099  z =  2.747895 angstrom
           Maximum rank =  0   Radius =  0.650 angstrom
                   Q00  =  -0.023990

C          x = -1.822353  y =  0.653099  z =  1.999895 angstrom
           Maximum rank =  0   Radius =  0.650 angstrom
                   Q00  =   0.446172

N          x = -1.241353  y = -0.459901  z =  1.554895 angstrom
           Maximum rank =  0   Radius =  0.650 angstrom
                   Q00  =  -0.763048

N          x = -0.967353  y =  1.334099  z =  2.745895 angstrom
           Maximum rank =  0   Radius =  0.650 angstrom
                   Q00  =  -0.457020

H          x =  2.034647  y = -1.165901  z =  2.015895 angstrom
           Maximum rank =  0   Radius =  0.325 angstrom
                   Q00  =   0.050016

H          x =  1.148647  y = -1.568901  z =  0.547895 angstrom
           Maximum rank =  0   Radius =  0.325 angstrom
                   Q00  =   0.092028

H          x =  0.568647  y = -2.851901  z =  3.238895 angstrom
           Maximum rank =  0   Radius =  0.325 angstrom
                   Q00  =   0.079033

H          x =  1.140647  y =  0.953099  z =  3.226895 angstrom
           Maximum rank =  0   Radius =  0.325 angstrom
                   Q00  =   0.098322

H          x = -2.839353  y =  0.954099  z =  1.782895 angstrom
           Maximum rank =  0   Radius =  0.325 angstrom
                   Q00  =   0.119991

H          x = -1.146353  y =  2.216099  z =  3.188895 angstrom
           Maximum rank =  0   Radius =  0.325 angstrom
                   Q00  =   0.221570

H          x =  1.760423  y = -3.520129  z =  2.086695 angstrom
           Maximum rank =  0   Radius =  0.325 angstrom
                   Q00  =   0.076972

H          x =  0.017621  y = -3.421882  z =  1.637875 angstrom
           Maximum rank =  0   Radius =  0.325 angstrom
                   Q00  =   0.096220

C          x =  2.676647  y =  1.307099  z = -0.590105 angstrom
           Maximum rank =  0   Radius =  0.650 angstrom
                   Q00  =  -0.202020

C          x =  1.418647  y =  0.798099  z = -1.258105 angstrom
           Maximum rank =  0   Radius =  0.650 angstrom
                   Q00  =  -0.134951

C          x =  1.441647  y = -0.211901  z = -2.227105 angstrom
           Maximum rank =  0   Radius =  0.650 angstrom
                   Q00  =   0.052268

C          x =  0.190647  y =  1.335099  z = -0.890105 angstrom
           Maximum rank =  0   Radius =  0.650 angstrom
                   Q00  =  -0.043280

C          x =  0.285647  y = -0.633901  z = -2.857105 angstrom
           Maximum rank =  0   Radius =  0.650 angstrom
                   Q00  =  -0.188922

C          x = -0.974353  y =  0.917099  z = -1.524105 angstrom
           Maximum rank =  0   Radius =  0.650 angstrom
                   Q00  =  -0.078500

C          x = -0.925353  y = -0.044901  z = -2.520105 angstrom
           Maximum rank =  0   Radius =  0.650 angstrom
                   Q00  =   0.308101

O          x = -2.098353  y = -0.403901  z = -3.125105 angstrom
           Maximum rank =  0   Radius =  0.650 angstrom
                   Q00  =  -0.662431

H          x =  3.145647  y =  0.481099  z = -0.055105 angstrom
           Maximum rank =  0   Radius =  0.325 angstrom
                   Q00  =   0.093510

H          x =  2.393647  y =  2.052099  z =  0.154895 angstrom
           Maximum rank =  0   Radius =  0.325 angstrom
                   Q00  =   0.092082

H          x =  2.375647  y = -0.687901  z = -2.481105 angstrom
           Maximum rank =  0   Radius =  0.325 angstrom
                   Q00  =   0.061580

H          x =  0.132647  y =  2.070099  z = -0.101105 angstrom
           Maximum rank =  0   Radius =  0.325 angstrom
                   Q00  =   0.053000

H          x =  0.326647  y = -1.416901  z = -3.598105 angstrom
           Maximum rank =  0   Radius =  0.325 angstrom
                   Q00  =   0.070333

H          x = -1.929353  y =  1.308099  z = -1.216105 angstrom
           Maximum rank =  0   Radius =  0.325 angstrom
                   Q00  =   0.073466

H          x = -1.889353  y = -0.927901  z = -3.920105 angstrom
           Maximum rank =  0   Radius =  0.325 angstrom
                   Q00  =   0.401602

H          x =  3.410652  y =  1.764869  z = -1.269575 angstrom
           Maximum rank =  0   Radius =  0.325 angstrom
                   Q00  =   0.096693

Total multipoles referred to origin at
           x =   0.000000,  y =    0.000000,  z =    0.000000 angstrom
                   Q00  =  -0.000000

Finished at 18:4:15 on 27 Apr 2020

  DMA results are available in the Python driver through the
	  variable('DMA DISTRIBUTED MULTIPOLES')
  and
	  variable('DMA TOTAL MULTIPOLES')
  commands.

    Psi4 stopped on: Monday, 27 April 2020 06:04PM
    Psi4 wall time for execution: 0:12:42.72

*** Psi4 exiting successfully. Buy a developer a beer!
