                               Psi4 1.3.2 release

  ==> Input File <==

--------------------------------------------------------------------------
import numpy as np
set {scf_type pk
basis cc-pvdz
d_convergence 10
gdma_switch   0
gdma_limit    0
gdma_origin   [ 0.0,  0.0,  0.0 ]
}
molecule test {
    units Angstrom
    0 1
    --
    0 1
    C               -1.415096425570404    -1.646102288817378     3.782455266047708
    C                0.016903574429596    -1.728102288817378     4.302455266047708
    H               -1.416096425570404    -1.266102288817378     2.766455266047708
    H               -1.874096425570404    -2.633102288817378     3.785455266047708
    H               -2.009096425570404    -0.981102288817378     4.408455266047707
    H                0.583903574429596    -2.423102288817379     3.683455266047708
    H                0.475383574429596    -0.729362288817378     4.254385266047708
    H               -0.016486425570404    -2.109142288817378     5.333805266047709
    C                2.863903574429596     1.461897711182622    -1.473544733952292
    C               -0.766096425570404     0.603897711182622    -1.076544733952292
    C                0.603903574429596     0.303897711182622    -0.868544733952292
    C                1.374903574429596     1.323897711182622    -1.511544733952292
    C                0.481903574429596     2.167897711182622    -2.072544733952292
    C               -1.435096425570404    -1.334102288817378     0.117455266047708
    C               -1.783096425570404    -0.188102288817378    -0.577544733952292
    C               -0.088096425570404    -1.663102288817378     0.328455266047708
    C                0.936903574429596    -0.853102288817378    -0.159544733952292
    N               -0.796096425570404     1.750897711182622    -1.819544733952292
    H               -2.211096425570403    -1.967102288817378     0.525455266047708
    H               -2.795096425570404     0.115897711182622    -0.703544733952292
    H                0.152903574429596    -2.559102288817378     0.884455266047708
    H                1.971903574429596    -1.119102288817378    -0.000544733952292
    H               -1.626096425570404     2.259897711182622    -2.098544733952292
    H                0.749903574429596     3.075897711182622    -2.602544733952292
    H                3.187903574429597     2.216897711182622    -2.191544733952292
    H                3.319903574429596     0.504897711182622    -1.729544733952292
    H                3.149923574429596     1.755127711182622    -0.452657733952292

}
e, wfn = energy('scf', return_wfn=True)
gdma(wfn)
dmavals = variable('DMA DISTRIBUTED MULTIPOLES')
charges = np.array(dmavals)
print(charges)
np.save('SSI-098LEU-146TRP-1-dimer.npy', np.array(charges))--------------------------------------------------------------------------

*** tstart() called on ds3
*** at Tue Apr 28 13:04:17 2020

   => Loading Basis Set <=

    Name: CC-PVDZ
    Role: ORBITAL
    Keyword: BASIS
    atoms 1-2, 9-17  entry C          line   138 file /theoryfs2/ds/metcalf/miniconda2/envs/tf2gpu/share/psi4/basis/cc-pvdz.gbs
    atoms 3-8, 19-27 entry H          line    22 file /theoryfs2/ds/metcalf/miniconda2/envs/tf2gpu/share/psi4/basis/cc-pvdz.gbs
    atoms 18         entry N          line   168 file /theoryfs2/ds/metcalf/miniconda2/envs/tf2gpu/share/psi4/basis/cc-pvdz.gbs

         ---------------------------------------------------------
                                   SCF
               by Justin Turney, Rob Parrish, Andy Simmonett
                          and Daniel G. A. Smith
                              RHF Reference
                        1 Threads,    500 MiB Core
         ---------------------------------------------------------

  ==> Geometry <==

    Molecular point group: c1
    Full point group: C1

    Geometry (in Angstrom), charge = 0, multiplicity = 1:

       Center              X                  Y                   Z               Mass
    ------------   -----------------  -----------------  -----------------  -----------------
         C           -1.415096425570    -1.646102288817     3.782455266048    12.000000000000
         C            0.016903574430    -1.728102288817     4.302455266048    12.000000000000
         H           -1.416096425570    -1.266102288817     2.766455266048     1.007825032230
         H           -1.874096425570    -2.633102288817     3.785455266048     1.007825032230
         H           -2.009096425570    -0.981102288817     4.408455266048     1.007825032230
         H            0.583903574430    -2.423102288817     3.683455266048     1.007825032230
         H            0.475383574430    -0.729362288817     4.254385266048     1.007825032230
         H           -0.016486425570    -2.109142288817     5.333805266048     1.007825032230
         C            2.863903574430     1.461897711183    -1.473544733952    12.000000000000
         C           -0.766096425570     0.603897711183    -1.076544733952    12.000000000000
         C            0.603903574430     0.303897711183    -0.868544733952    12.000000000000
         C            1.374903574430     1.323897711183    -1.511544733952    12.000000000000
         C            0.481903574430     2.167897711183    -2.072544733952    12.000000000000
         C           -1.435096425570    -1.334102288817     0.117455266048    12.000000000000
         C           -1.783096425570    -0.188102288817    -0.577544733952    12.000000000000
         C           -0.088096425570    -1.663102288817     0.328455266048    12.000000000000
         C            0.936903574430    -0.853102288817    -0.159544733952    12.000000000000
         N           -0.796096425570     1.750897711183    -1.819544733952    14.003074004430
         H           -2.211096425570    -1.967102288817     0.525455266048     1.007825032230
         H           -2.795096425570     0.115897711183    -0.703544733952     1.007825032230
         H            0.152903574430    -2.559102288817     0.884455266048     1.007825032230
         H            1.971903574430    -1.119102288817    -0.000544733952     1.007825032230
         H           -1.626096425570     2.259897711183    -2.098544733952     1.007825032230
         H            0.749903574430     3.075897711183    -2.602544733952     1.007825032230
         H            3.187903574430     2.216897711183    -2.191544733952     1.007825032230
         H            3.319903574430     0.504897711183    -1.729544733952     1.007825032230
         H            3.149923574430     1.755127711183    -0.452657733952     1.007825032230

  Running in c1 symmetry.

  Rotational constants: A =      0.05022  B =      0.01554  C =      0.01340 [cm^-1]
  Rotational constants: A =   1505.47108  B =    465.98320  C =    401.67042 [MHz]
  Nuclear repulsion =  651.041982602934809

  Charge       = 0
  Multiplicity = 1
  Electrons    = 88
  Nalpha       = 44
  Nbeta        = 44

  ==> Algorithm <==

  SCF Algorithm Type is PK.
  DIIS enabled.
  MOM disabled.
  Fractional occupation disabled.
  Guess Type is SAD.
  Energy threshold   = 1.00e-06
  Density threshold  = 1.00e-10
  Integral threshold = 0.00e+00

  ==> Primary Basis <==

  Basis Set: CC-PVDZ
    Blend: CC-PVDZ
    Number of shells: 117
    Number of basis function: 243
    Number of Cartesian functions: 255
    Spherical Harmonics?: true
    Max angular momentum: 2

  ==> Pre-Iterations <==

   -------------------------------------------------------
    Irrep   Nso     Nmo     Nalpha   Nbeta   Ndocc  Nsocc
   -------------------------------------------------------
     A        243     243       0       0       0       0
   -------------------------------------------------------
    Total     243     243      44      44      44       0
   -------------------------------------------------------

  ==> Integral Setup <==

  Using integral reordering PK algorithm.
  Sizing the integral batches needed.
  Building batch lookup table.
   Calculation information:
      Number of atoms:                  27
      Number of AO shells:             117
      Number of primitives:            339
      Number of atomic orbitals:       255
      Number of basis functions:       243

      Integral cutoff                 1.00e-12
      Number of threads:                 1

	Batch   1 pq = [       0,    9405] index = [             0,44231715] size =     44231715
	Batch   2 pq = [    9405,   13301] index = [      44231715,88464951] size =     44233236
	Batch   3 pq = [   13301,   16290] index = [      88464951,132690195] size =     44225244
	Batch   4 pq = [   16290,   18810] index = [     132690195,176917455] size =     44227260
	Batch   5 pq = [   18810,   21030] index = [     176917455,221140965] size =     44223510
	Batch   6 pq = [   21030,   23037] index = [     221140965,265363203] size =     44222238
	Batch   7 pq = [   23037,   24883] index = [     265363203,309594286] size =     44231083
	Batch   8 pq = [   24883,   26601] index = [     309594286,353819901] size =     44225615
	Batch   9 pq = [   26601,   28214] index = [     353819901,398029005] size =     44209104
	Batch  10 pq = [   28214,   29646] index = [     398029005,439457481] size =     41428476
  Task number: 40
  Buffer size: 11059200
  Buffer per thread: 2
  We computed 22058367 shell quartets total.
  Whereas there are 23829156 unique shell quartets.

  ==> DiskJK: Disk-Based J/K Matrices <==

    J tasked:                  Yes
    K tasked:                  Yes
    wK tasked:                  No
    Memory [MiB]:              375
    Schwarz Cutoff:          1E-12

    OpenMP threads:              1

  Minimum eigenvalue in the overlap matrix is 2.4143335363E-04.
  Using Symmetric Orthogonalization.

  SCF Guess: Superposition of Atomic Densities via on-the-fly atomic UHF.

  ==> Iterations <==

                        Total Energy        Delta E     RMS |[F,P]|

   @RHF iter SAD:  -479.14175473819108   -4.79142e+02   0.00000e+00
   @RHF iter   1:  -479.48665716339451   -3.44902e-01   2.61660e-03 DIIS
   @RHF iter   2:  -479.72041206721264   -2.33755e-01   1.15985e-03 DIIS
   @RHF iter   3:  -479.76234859380287   -4.19365e-02   3.02300e-04 DIIS
   @RHF iter   4:  -479.76612873573345   -3.78014e-03   1.38478e-04 DIIS
   @RHF iter   5:  -479.76676825871579   -6.39523e-04   1.98591e-05 DIIS
   @RHF iter   6:  -479.76679686866919   -2.86100e-05   8.98564e-06 DIIS
   @RHF iter   7:  -479.76680256624024   -5.69757e-06   3.73598e-06 DIIS
   @RHF iter   8:  -479.76680415941189   -1.59317e-06   1.45018e-06 DIIS
   @RHF iter   9:  -479.76680447014058   -3.10729e-07   6.51033e-07 DIIS
   @RHF iter  10:  -479.76680453245694   -6.23164e-08   2.97997e-07 DIIS
   @RHF iter  11:  -479.76680454810594   -1.56490e-08   1.12592e-07 DIIS
   @RHF iter  12:  -479.76680455028088   -2.17494e-09   3.61002e-08 DIIS
   @RHF iter  13:  -479.76680455042555   -1.44667e-10   9.12565e-09 DIIS
   @RHF iter  14:  -479.76680455044078   -1.52340e-11   3.58616e-09 DIIS
   @RHF iter  15:  -479.76680455043760    3.18323e-12   1.95131e-09 DIIS
   @RHF iter  16:  -479.76680455043953   -1.93268e-12   8.66166e-10 DIIS
   @RHF iter  17:  -479.76680455043891    6.25278e-13   3.58362e-10 DIIS
   @RHF iter  18:  -479.76680455043879    1.13687e-13   1.48214e-10 DIIS
   @RHF iter  19:  -479.76680455043868    1.13687e-13   4.98602e-11 DIIS
  Energy and wave function converged.

  ==> Post-Iterations <==

    Orbital Energies [Eh]
    ---------------------

    Doubly Occupied:

       1A    -15.600362     2A    -11.262434     3A    -11.261588
       4A    -11.230745     5A    -11.229874     6A    -11.227689
       7A    -11.227494     8A    -11.221710     9A    -11.218648
      10A    -11.214405    11A    -11.211619    12A    -11.204534
      13A     -1.299155    14A     -1.129720    15A     -1.076561
      16A     -1.011298    17A     -0.998577    18A     -0.988635
      19A     -0.933079    20A     -0.841917    21A     -0.827160
      22A     -0.805087    23A     -0.753804    24A     -0.720644
      25A     -0.664955    26A     -0.643607    27A     -0.604286
      28A     -0.595525    29A     -0.592825    30A     -0.591822
      31A     -0.589383    32A     -0.568468    33A     -0.554739
      34A     -0.536358    35A     -0.529943    36A     -0.495867
      37A     -0.490061    38A     -0.480594    39A     -0.477872
      40A     -0.471771    41A     -0.458819    42A     -0.373611
      43A     -0.295241    44A     -0.276025

    Virtual:

      45A      0.126121    46A      0.166174    47A      0.178465
      48A      0.182391    49A      0.192595    50A      0.214036
      51A      0.222845    52A      0.227767    53A      0.234213
      54A      0.246010    55A      0.262467    56A      0.272244
      57A      0.274839    58A      0.283537    59A      0.286461
      60A      0.293543    61A      0.326697    62A      0.330368
      63A      0.375043    64A      0.383422    65A      0.401510
      66A      0.406246    67A      0.421130    68A      0.446047
      69A      0.473008    70A      0.480384    71A      0.495582
      72A      0.510407    73A      0.593712    74A      0.604397
      75A      0.605106    76A      0.616608    77A      0.620083
      78A      0.631143    79A      0.639588    80A      0.667586
      81A      0.675849    82A      0.687233    83A      0.701442
      84A      0.713254    85A      0.723444    86A      0.732220
      87A      0.740750    88A      0.741193    89A      0.755409
      90A      0.758571    91A      0.768583    92A      0.775936
      93A      0.792471    94A      0.799008    95A      0.835894
      96A      0.840228    97A      0.851388    98A      0.871371
      99A      0.878100   100A      0.879996   101A      0.888943
     102A      0.895644   103A      0.898206   104A      0.906699
     105A      0.911889   106A      0.914821   107A      0.931159
     108A      0.943214   109A      0.947848   110A      0.958251
     111A      0.965391   112A      0.976172   113A      0.982048
     114A      0.990149   115A      1.016017   116A      1.026065
     117A      1.058103   118A      1.073898   119A      1.102584
     120A      1.119794   121A      1.127501   122A      1.138088
     123A      1.145728   124A      1.154142   125A      1.169925
     126A      1.184800   127A      1.212544   128A      1.225688
     129A      1.229674   130A      1.235684   131A      1.249187
     132A      1.271506   133A      1.286859   134A      1.304996
     135A      1.327653   136A      1.333599   137A      1.355615
     138A      1.362440   139A      1.375684   140A      1.405945
     141A      1.446745   142A      1.490463   143A      1.493510
     144A      1.529179   145A      1.570958   146A      1.575171
     147A      1.585482   148A      1.596626   149A      1.629120
     150A      1.636661   151A      1.649131   152A      1.681320
     153A      1.683463   154A      1.694905   155A      1.715558
     156A      1.744564   157A      1.765150   158A      1.781308
     159A      1.789146   160A      1.813753   161A      1.827309
     162A      1.833909   163A      1.865671   164A      1.877583
     165A      1.878610   166A      1.891892   167A      1.902511
     168A      1.907179   169A      1.910350   170A      1.920682
     171A      1.929856   172A      1.940187   173A      1.955910
     174A      1.960480   175A      1.961928   176A      1.973560
     177A      1.979628   178A      1.987288   179A      1.997438
     180A      2.009982   181A      2.016338   182A      2.031633
     183A      2.047489   184A      2.081554   185A      2.091883
     186A      2.096924   187A      2.110075   188A      2.116401
     189A      2.118021   190A      2.129819   191A      2.132196
     192A      2.152691   193A      2.160027   194A      2.176370
     195A      2.177439   196A      2.229497   197A      2.242729
     198A      2.282839   199A      2.290410   200A      2.303335
     201A      2.323355   202A      2.329090   203A      2.339658
     204A      2.356113   205A      2.395809   206A      2.427379
     207A      2.457004   208A      2.462371   209A      2.473238
     210A      2.477150   211A      2.544087   212A      2.581542
     213A      2.585498   214A      2.593675   215A      2.609109
     216A      2.650327   217A      2.659016   218A      2.695755
     219A      2.710167   220A      2.771018   221A      2.775633
     222A      2.777242   223A      2.792920   224A      2.799376
     225A      2.823837   226A      2.830589   227A      2.857708
     228A      2.861213   229A      2.864311   230A      2.887651
     231A      2.920210   232A      2.967035   233A      2.974355
     234A      2.987491   235A      3.036432   236A      3.058297
     237A      3.090525   238A      3.127962   239A      3.216002
     240A      3.319639   241A      3.391971   242A      3.750182
     243A      3.966241

    Final Occupation by Irrep:
              A
    DOCC [    44 ]

  @RHF Final Energy:  -479.76680455043868

   => Energetics <=

    Nuclear Repulsion Energy =            651.0419826029348087
    One-Electron Energy =               -1940.0405512197025928
    Two-Electron Energy =                 809.2317640663292195
    Total Energy =                       -479.7668045504386782

Computation Completed

Properties will be evaluated at   0.000000,   0.000000,   0.000000 [a0]

Properties computed using the SCF density matrix

  Nuclear Dipole Moment: [e a0]
     X:     1.5432      Y:    -5.4973      Z:    14.8764

  Electronic Dipole Moment: [e a0]
     X:    -1.8446      Y:     6.2145      Z:   -15.3170

  Dipole Moment: [e a0]
     X:    -0.3014      Y:     0.7172      Z:    -0.4406     Total:     0.8941

  Dipole Moment: [D]
     X:    -0.7662      Y:     1.8229      Z:    -1.1200     Total:     2.2725

*** tstop() called on ds3 at Tue Apr 28 13:13:56 2020
Module time:
	user time   =     178.87 seconds =       2.98 minutes
	system time =      67.46 seconds =       1.12 minutes
	total time  =        579 seconds =       9.65 minutes
Total time:
	user time   =     178.87 seconds =       2.98 minutes
	system time =      67.46 seconds =       1.12 minutes
	total time  =        579 seconds =       9.65 minutes
                                     G D M A

                                 by Anthony Stone

                           version 2.2.06, 22 June 2011

               Distributed Multipoles from Gaussian wavefunctions

Starting at 13:13:56 on 28 Apr 2020

Using SCF density matrix from file ./SSI/SSI-098LEU-146TRP-1-dimer.test.15695.fchk

                         Distributed Multipole Analysis

Standard DMA

Positions and radii in angstrom
Multipole moments in atomic units, ea_0^k for rank k

C          x = -1.415096  y = -1.646102  z =  3.782455 angstrom
           Maximum rank =  0   Radius =  0.650 angstrom
                   Q00  =  -0.244594

C          x =  0.016904  y = -1.728102  z =  4.302455 angstrom
           Maximum rank =  0   Radius =  0.650 angstrom
                   Q00  =  -0.230157

H          x = -1.416096  y = -1.266102  z =  2.766455 angstrom
           Maximum rank =  0   Radius =  0.325 angstrom
                   Q00  =   0.103356

H          x = -1.874096  y = -2.633102  z =  3.785455 angstrom
           Maximum rank =  0   Radius =  0.325 angstrom
                   Q00  =   0.069451

H          x = -2.009096  y = -0.981102  z =  4.408455 angstrom
           Maximum rank =  0   Radius =  0.325 angstrom
                   Q00  =   0.074929

H          x =  0.583904  y = -2.423102  z =  3.683455 angstrom
           Maximum rank =  0   Radius =  0.325 angstrom
                   Q00  =   0.076192

H          x =  0.475384  y = -0.729362  z =  4.254385 angstrom
           Maximum rank =  0   Radius =  0.325 angstrom
                   Q00  =   0.081544

H          x = -0.016486  y = -2.109142  z =  5.333805 angstrom
           Maximum rank =  0   Radius =  0.325 angstrom
                   Q00  =   0.072353

C          x =  2.863904  y =  1.461898  z = -1.473545 angstrom
           Maximum rank =  0   Radius =  0.650 angstrom
                   Q00  =  -0.197993

C          x = -0.766096  y =  0.603898  z = -1.076545 angstrom
           Maximum rank =  0   Radius =  0.650 angstrom
                   Q00  =   0.298525

C          x =  0.603904  y =  0.303898  z = -0.868545 angstrom
           Maximum rank =  0   Radius =  0.650 angstrom
                   Q00  =  -0.056263

C          x =  1.374904  y =  1.323898  z = -1.511545 angstrom
           Maximum rank =  0   Radius =  0.650 angstrom
                   Q00  =  -0.123798

C          x =  0.481904  y =  2.167898  z = -2.072545 angstrom
           Maximum rank =  0   Radius =  0.650 angstrom
                   Q00  =   0.071980

C          x = -1.435096  y = -1.334102  z =  0.117455 angstrom
           Maximum rank =  0   Radius =  0.650 angstrom
                   Q00  =  -0.077081

C          x = -1.783096  y = -0.188102  z = -0.577545 angstrom
           Maximum rank =  0   Radius =  0.650 angstrom
                   Q00  =  -0.120924

C          x = -0.088096  y = -1.663102  z =  0.328455 angstrom
           Maximum rank =  0   Radius =  0.650 angstrom
                   Q00  =  -0.090453

C          x =  0.936904  y = -0.853102  z = -0.159545 angstrom
           Maximum rank =  0   Radius =  0.650 angstrom
                   Q00  =  -0.097799

N          x = -0.796096  y =  1.750898  z = -1.819545 angstrom
           Maximum rank =  0   Radius =  0.650 angstrom
                   Q00  =  -0.497148

H          x = -2.211096  y = -1.967102  z =  0.525455 angstrom
           Maximum rank =  0   Radius =  0.325 angstrom
                   Q00  =   0.067035

H          x = -2.795096  y =  0.115898  z = -0.703545 angstrom
           Maximum rank =  0   Radius =  0.325 angstrom
                   Q00  =   0.074623

H          x =  0.152904  y = -2.559102  z =  0.884455 angstrom
           Maximum rank =  0   Radius =  0.325 angstrom
                   Q00  =   0.060623

H          x =  1.971904  y = -1.119102  z = -0.000545 angstrom
           Maximum rank =  0   Radius =  0.325 angstrom
                   Q00  =   0.069949

H          x = -1.626096  y =  2.259898  z = -2.098545 angstrom
           Maximum rank =  0   Radius =  0.325 angstrom
                   Q00  =   0.215080

H          x =  0.749904  y =  3.075898  z = -2.602545 angstrom
           Maximum rank =  0   Radius =  0.325 angstrom
                   Q00  =   0.099919

H          x =  3.187904  y =  2.216898  z = -2.191545 angstrom
           Maximum rank =  0   Radius =  0.325 angstrom
                   Q00  =   0.104977

H          x =  3.319904  y =  0.504898  z = -1.729545 angstrom
           Maximum rank =  0   Radius =  0.325 angstrom
                   Q00  =   0.100097

H          x =  3.149924  y =  1.755128  z = -0.452658 angstrom
           Maximum rank =  0   Radius =  0.325 angstrom
                   Q00  =   0.095576

Total multipoles referred to origin at
           x =   0.000000,  y =    0.000000,  z =    0.000000 angstrom
                   Q00  =  -0.000000

Finished at 13:13:56 on 28 Apr 2020

  DMA results are available in the Python driver through the
	  variable('DMA DISTRIBUTED MULTIPOLES')
  and
	  variable('DMA TOTAL MULTIPOLES')
  commands.

    Psi4 stopped on: Tuesday, 28 April 2020 01:13PM
    Psi4 wall time for execution: 0:09:39.77

*** Psi4 exiting successfully. Buy a developer a beer!
