                               Psi4 1.3.2 release

  ==> Input File <==

--------------------------------------------------------------------------
import numpy as np
set {scf_type pk
basis cc-pvdz
d_convergence 10
gdma_switch   0
gdma_limit    0
gdma_origin   [ 0.0,  0.0,  0.0 ]
}
molecule test {
    units Angstrom
    1 1
    --
    1 1
    C                1.024042331066477    -2.568026920787341    -1.644012581340272
    C               -1.451957668933523    -0.277026920787341    -0.023012581340272
    C               -0.609957668933523    -0.606026920787341    -1.117012581340271
    C                0.061042331066477    -1.831026920787341    -0.786012581340272
    C               -0.394957668933523    -2.199026920787341     0.438987418659729
    C               -2.239957668933523     0.864973079212659    -0.008012581340272
    C               -2.191957668933523     1.693973079212659    -1.117012581340271
    C               -0.578957668933523     0.248973079212659    -2.225012581340272
    C               -1.368957668933523     1.393973079212659    -2.215012581340272
    N               -1.298957668933523    -1.271026920787341     0.904987418659729
    H               -1.762957668933523    -1.330026920787341     1.805987418659728
    H               -2.873957668933523     1.093973079212659     0.837987418659728
    H               -0.088957668933523    -3.095026920787341     0.971987418659729
    H               -2.799957668933523     2.589973079212659    -1.139012581340271
    H               -0.001957668933523    -0.023026920787341    -3.092012581340272
    H                1.652042331066477    -3.212026920787341    -1.025012581340272
    H                1.669042331066477    -1.842026920787341    -2.140012581340272
    H               -1.362957668933523     2.058973079212659    -3.070012581340272
    H                0.504614331066477    -3.169696920787341    -2.404402581340272
    C                1.833042331066477     1.991973079212659    -0.241012581340272
    C                1.517042331066477     0.584973079212659     1.758987418659729
    N                2.101042331066477     0.826973079212659     0.601987418659728
    N                0.613042331066477     1.421973079212659     2.225987418659728
    N                1.829042331066477    -0.494026920787341     2.442987418659728
    H                2.800042331066477     0.159973079212659     0.289987418659728
    H                0.334042331066477     2.214973079212659     1.676987418659728
    H                0.152042331066477     1.238973079212659     3.102987418659728
    H                2.465042331066477    -1.164026920787341     2.036987418659729
    H                1.347042331066477    -0.718026920787341     3.298987418659728
    H                0.957042331066477     2.567973079212659     0.058987418659728
    H                1.628042331066477     1.620973079212659    -1.246012581340271
    H                2.714441331066477     2.646851079212659    -0.306352581340272

}
e, wfn = energy('scf', return_wfn=True)
gdma(wfn)
dmavals = variable('DMA DISTRIBUTED MULTIPOLES')
charges = np.array(dmavals)
print(charges)
np.save('SSI-009TRP-111ARG-1-dimer.npy', np.array(charges))--------------------------------------------------------------------------

*** tstart() called on ds3
*** at Mon Apr 27 10:27:26 2020

   => Loading Basis Set <=

    Name: CC-PVDZ
    Role: ORBITAL
    Keyword: BASIS
    atoms 1-9, 20-21   entry C          line   138 file /theoryfs2/ds/metcalf/miniconda2/envs/tf2gpu/share/psi4/basis/cc-pvdz.gbs
    atoms 10, 22-24    entry N          line   168 file /theoryfs2/ds/metcalf/miniconda2/envs/tf2gpu/share/psi4/basis/cc-pvdz.gbs
    atoms 11-19, 25-32 entry H          line    22 file /theoryfs2/ds/metcalf/miniconda2/envs/tf2gpu/share/psi4/basis/cc-pvdz.gbs

         ---------------------------------------------------------
                                   SCF
               by Justin Turney, Rob Parrish, Andy Simmonett
                          and Daniel G. A. Smith
                              RHF Reference
                        1 Threads,    500 MiB Core
         ---------------------------------------------------------

  ==> Geometry <==

    Molecular point group: c1
    Full point group: C1

    Geometry (in Angstrom), charge = 1, multiplicity = 1:

       Center              X                  Y                   Z               Mass
    ------------   -----------------  -----------------  -----------------  -----------------
         C            1.024042331066    -2.568026920787    -1.644012581340    12.000000000000
         C           -1.451957668934    -0.277026920787    -0.023012581340    12.000000000000
         C           -0.609957668934    -0.606026920787    -1.117012581340    12.000000000000
         C            0.061042331066    -1.831026920787    -0.786012581340    12.000000000000
         C           -0.394957668934    -2.199026920787     0.438987418660    12.000000000000
         C           -2.239957668934     0.864973079213    -0.008012581340    12.000000000000
         C           -2.191957668934     1.693973079213    -1.117012581340    12.000000000000
         C           -0.578957668934     0.248973079213    -2.225012581340    12.000000000000
         C           -1.368957668934     1.393973079213    -2.215012581340    12.000000000000
         N           -1.298957668934    -1.271026920787     0.904987418660    14.003074004430
         H           -1.762957668934    -1.330026920787     1.805987418660     1.007825032230
         H           -2.873957668934     1.093973079213     0.837987418660     1.007825032230
         H           -0.088957668934    -3.095026920787     0.971987418660     1.007825032230
         H           -2.799957668934     2.589973079213    -1.139012581340     1.007825032230
         H           -0.001957668934    -0.023026920787    -3.092012581340     1.007825032230
         H            1.652042331066    -3.212026920787    -1.025012581340     1.007825032230
         H            1.669042331066    -1.842026920787    -2.140012581340     1.007825032230
         H           -1.362957668934     2.058973079213    -3.070012581340     1.007825032230
         H            0.504614331066    -3.169696920787    -2.404402581340     1.007825032230
         C            1.833042331066     1.991973079213    -0.241012581340    12.000000000000
         C            1.517042331066     0.584973079213     1.758987418660    12.000000000000
         N            2.101042331066     0.826973079213     0.601987418660    14.003074004430
         N            0.613042331066     1.421973079213     2.225987418660    14.003074004430
         N            1.829042331066    -0.494026920787     2.442987418660    14.003074004430
         H            2.800042331066     0.159973079213     0.289987418660     1.007825032230
         H            0.334042331066     2.214973079213     1.676987418660     1.007825032230
         H            0.152042331066     1.238973079213     3.102987418660     1.007825032230
         H            2.465042331066    -1.164026920787     2.036987418660     1.007825032230
         H            1.347042331066    -0.718026920787     3.298987418660     1.007825032230
         H            0.957042331066     2.567973079213     0.058987418660     1.007825032230
         H            1.628042331066     1.620973079213    -1.246012581340     1.007825032230
         H            2.714441331066     2.646851079213    -0.306352581340     1.007825032230

  Running in c1 symmetry.

  Rotational constants: A =      0.02363  B =      0.01857  C =      0.01561 [cm^-1]
  Rotational constants: A =    708.46189  B =    556.62570  C =    468.09282 [MHz]
  Nuclear repulsion = 1034.756351201371672

  Charge       = 1
  Multiplicity = 1
  Electrons    = 110
  Nalpha       = 55
  Nbeta        = 55

  ==> Algorithm <==

  SCF Algorithm Type is PK.
  DIIS enabled.
  MOM disabled.
  Fractional occupation disabled.
  Guess Type is SAD.
  Energy threshold   = 1.00e-06
  Density threshold  = 1.00e-10
  Integral threshold = 0.00e+00

  ==> Primary Basis <==

  Basis Set: CC-PVDZ
    Blend: CC-PVDZ
    Number of shells: 141
    Number of basis function: 295
    Number of Cartesian functions: 310
    Spherical Harmonics?: true
    Max angular momentum: 2

  ==> Pre-Iterations <==

   -------------------------------------------------------
    Irrep   Nso     Nmo     Nalpha   Nbeta   Ndocc  Nsocc
   -------------------------------------------------------
     A        295     295       0       0       0       0
   -------------------------------------------------------
    Total     295     295      55      55      55       0
   -------------------------------------------------------

  ==> Integral Setup <==

  Using integral reordering PK algorithm.
  Sizing the integral batches needed.
  Building batch lookup table.
   Calculation information:
      Number of atoms:                  32
      Number of AO shells:             141
      Number of primitives:            415
      Number of atomic orbitals:       310
      Number of basis functions:       295

      Integral cutoff                 1.00e-12
      Number of threads:                 1

	Batch   1 pq = [       0,    9405] index = [             0,44231715] size =     44231715
	Batch   2 pq = [    9405,   13301] index = [      44231715,88464951] size =     44233236
	Batch   3 pq = [   13301,   16290] index = [      88464951,132690195] size =     44225244
	Batch   4 pq = [   16290,   18810] index = [     132690195,176917455] size =     44227260
	Batch   5 pq = [   18810,   21030] index = [     176917455,221140965] size =     44223510
	Batch   6 pq = [   21030,   23037] index = [     221140965,265363203] size =     44222238
	Batch   7 pq = [   23037,   24883] index = [     265363203,309594286] size =     44231083
	Batch   8 pq = [   24883,   26601] index = [     309594286,353819901] size =     44225615
	Batch   9 pq = [   26601,   28214] index = [     353819901,398029005] size =     44209104
	Batch  10 pq = [   28214,   29740] index = [     398029005,442248670] size =     44219665
	Batch  11 pq = [   29740,   31191] index = [     442248670,486454836] size =     44206166
	Batch  12 pq = [   31191,   32578] index = [     486454836,530679331] size =     44224495
	Batch  13 pq = [   32578,   33908] index = [     530679331,574893186] size =     44213855
	Batch  14 pq = [   33908,   35188] index = [     574893186,619115266] size =     44222080
	Batch  15 pq = [   35188,   36423] index = [     619115266,663335676] size =     44220410
	Batch  16 pq = [   36423,   37617] index = [     663335676,707538153] size =     44202477
	Batch  17 pq = [   37617,   38775] index = [     707538153,751769700] size =     44231547
	Batch  18 pq = [   38775,   39899] index = [     751769700,795985050] size =     44215350
	Batch  19 pq = [   39899,   40992] index = [     795985050,840192528] size =     44207478
	Batch  20 pq = [   40992,   42057] index = [     840192528,884416653] size =     44224125
	Batch  21 pq = [   42057,   43095] index = [     884416653,928611060] size =     44194407
	Batch  22 pq = [   43095,   43660] index = [     928611060,953119630] size =     24508570
  Task number: 87
  Buffer size: 11059200
  Buffer per thread: 2
  We computed 67363129 shell quartets total.
  Whereas there are 50115066 unique shell quartets.
    34.42 percent of shell quartets recomputed by reordering.

  ==> DiskJK: Disk-Based J/K Matrices <==

    J tasked:                  Yes
    K tasked:                  Yes
    wK tasked:                  No
    Memory [MiB]:              375
    Schwarz Cutoff:          1E-12

    OpenMP threads:              1

  Minimum eigenvalue in the overlap matrix is 2.3813172925E-04.
  Using Symmetric Orthogonalization.

  SCF Guess: Superposition of Atomic Densities via on-the-fly atomic UHF.

  ==> Iterations <==

                        Total Energy        Delta E     RMS |[F,P]|

   @RHF iter SAD:  -643.91673663215840   -6.43917e+02   0.00000e+00
   @RHF iter   1:  -643.80147435486913    1.15262e-01   2.38300e-03 DIIS
   @RHF iter   2:  -644.07297274686596   -2.71498e-01   1.01035e-03 DIIS
   @RHF iter   3:  -644.11729979739334   -4.43271e-02   2.94846e-04 DIIS
   @RHF iter   4:  -644.12215949218103   -4.85969e-03   1.23175e-04 DIIS
   @RHF iter   5:  -644.12289214939483   -7.32657e-04   2.01894e-05 DIIS
   @RHF iter   6:  -644.12293324901520   -4.10996e-05   9.03129e-06 DIIS
   @RHF iter   7:  -644.12294101082693   -7.76181e-06   3.48697e-06 DIIS
   @RHF iter   8:  -644.12294292977572   -1.91895e-06   1.36341e-06 DIIS
   @RHF iter   9:  -644.12294327693758   -3.47162e-07   6.73122e-07 DIIS
   @RHF iter  10:  -644.12294338145625   -1.04519e-07   2.98002e-07 DIIS
   @RHF iter  11:  -644.12294340476581   -2.33096e-08   1.02103e-07 DIIS
   @RHF iter  12:  -644.12294340723111   -2.46530e-09   4.06788e-08 DIIS
   @RHF iter  13:  -644.12294340747542   -2.44313e-10   1.35836e-08 DIIS
   @RHF iter  14:  -644.12294340749770   -2.22826e-11   5.62201e-09 DIIS
   @RHF iter  15:  -644.12294340751021   -1.25056e-11   2.03978e-09 DIIS
   @RHF iter  16:  -644.12294340751589   -5.68434e-12   7.70836e-10 DIIS
   @RHF iter  17:  -644.12294340751123    4.66116e-12   4.13259e-10 DIIS
   @RHF iter  18:  -644.12294340750782    3.41061e-12   1.92637e-10 DIIS
   @RHF iter  19:  -644.12294340750793   -1.13687e-13   7.85465e-11 DIIS
  Energy and wave function converged.

  ==> Post-Iterations <==

    Orbital Energies [Eh]
    ---------------------

    Doubly Occupied:

       1A    -15.775143     2A    -15.771359     3A    -15.771309
       4A    -15.715623     5A    -11.573118     6A    -11.422793
       7A    -11.376737     8A    -11.375600     9A    -11.341438
      10A    -11.339880    11A    -11.339117    12A    -11.332109
      13A    -11.331665    14A    -11.329979    15A    -11.328944
      16A     -1.533999    17A     -1.410118    18A     -1.388585
      19A     -1.379853    20A     -1.240204    21A     -1.187853
      22A     -1.127099    23A     -1.108809    24A     -1.098668
      25A     -1.041865    26A     -1.023717    27A     -0.967241
      28A     -0.950827    29A     -0.930647    30A     -0.915090
      31A     -0.863150    32A     -0.847599    33A     -0.842939
      34A     -0.831160    35A     -0.810952    36A     -0.781151
      37A     -0.773652    38A     -0.750995    39A     -0.727668
      40A     -0.713570    41A     -0.708396    42A     -0.704241
      43A     -0.701120    44A     -0.678607    45A     -0.661282
      46A     -0.647381    47A     -0.634995    48A     -0.606606
      49A     -0.603362    50A     -0.581857    51A     -0.572910
      52A     -0.566403    53A     -0.484974    54A     -0.407439
      55A     -0.388814

    Virtual:

      56A     -0.008260    57A      0.013661    58A      0.026693
      59A      0.040662    60A      0.047407    61A      0.058219
      62A      0.066784    63A      0.084490    64A      0.090177
      65A      0.098102    66A      0.110132    67A      0.114664
      68A      0.123321    69A      0.131373    70A      0.138874
      71A      0.158106    72A      0.167568    73A      0.174287
      74A      0.185876    75A      0.191503    76A      0.202287
      77A      0.226362    78A      0.257683    79A      0.275598
      80A      0.281037    81A      0.303454    82A      0.312114
      83A      0.334422    84A      0.340731    85A      0.357691
      86A      0.365544    87A      0.373852    88A      0.376843
      89A      0.396002    90A      0.429947    91A      0.441909
      92A      0.474703    93A      0.492836    94A      0.506112
      95A      0.514963    96A      0.521462    97A      0.532797
      98A      0.551822    99A      0.558939   100A      0.560298
     101A      0.574168   102A      0.583598   103A      0.595676
     104A      0.607939   105A      0.625901   106A      0.630730
     107A      0.633971   108A      0.644467   109A      0.647984
     110A      0.659043   111A      0.665386   112A      0.667262
     113A      0.676562   114A      0.681483   115A      0.689826
     116A      0.705334   117A      0.722508   118A      0.733483
     119A      0.746754   120A      0.758744   121A      0.766406
     122A      0.775158   123A      0.779208   124A      0.781074
     125A      0.783991   126A      0.790189   127A      0.797624
     128A      0.812115   129A      0.825864   130A      0.838147
     131A      0.847717   132A      0.850545   133A      0.860765
     134A      0.875937   135A      0.890909   136A      0.896815
     137A      0.901587   138A      0.906746   139A      0.919392
     140A      0.930875   141A      0.940732   142A      0.950022
     143A      0.970072   144A      0.996238   145A      0.999936
     146A      1.011546   147A      1.026781   148A      1.036044
     149A      1.050280   150A      1.063710   151A      1.070845
     152A      1.081855   153A      1.102488   154A      1.110268
     155A      1.113838   156A      1.124324   157A      1.142621
     158A      1.151700   159A      1.161534   160A      1.169119
     161A      1.181663   162A      1.191758   163A      1.197383
     164A      1.212244   165A      1.221350   166A      1.224659
     167A      1.237431   168A      1.247303   169A      1.259466
     170A      1.292975   171A      1.305287   172A      1.325324
     173A      1.337936   174A      1.384483   175A      1.417626
     176A      1.461065   177A      1.466608   178A      1.486709
     179A      1.515689   180A      1.526804   181A      1.530482
     182A      1.540525   183A      1.546769   184A      1.567893
     185A      1.575934   186A      1.589170   187A      1.611477
     188A      1.613707   189A      1.632691   190A      1.643947
     191A      1.655100   192A      1.669337   193A      1.675841
     194A      1.683967   195A      1.694989   196A      1.712783
     197A      1.725568   198A      1.751347   199A      1.756221
     200A      1.760456   201A      1.774862   202A      1.784364
     203A      1.789766   204A      1.799678   205A      1.805063
     206A      1.808753   207A      1.821463   208A      1.831568
     209A      1.833835   210A      1.840651   211A      1.846096
     212A      1.853706   213A      1.859107   214A      1.875925
     215A      1.900819   216A      1.912464   217A      1.913582
     218A      1.922956   219A      1.941341   220A      1.961781
     221A      1.966552   222A      1.985820   223A      1.994265
     224A      1.999641   225A      2.006492   226A      2.013137
     227A      2.022009   228A      2.035006   229A      2.044692
     230A      2.053221   231A      2.066577   232A      2.072238
     233A      2.077285   234A      2.119560   235A      2.141252
     236A      2.149256   237A      2.175754   238A      2.192163
     239A      2.204657   240A      2.209223   241A      2.212474
     242A      2.235428   243A      2.258262   244A      2.271477
     245A      2.277127   246A      2.306855   247A      2.313703
     248A      2.328740   249A      2.341745   250A      2.359104
     251A      2.361979   252A      2.373664   253A      2.402404
     254A      2.435961   255A      2.461960   256A      2.470976
     257A      2.491302   258A      2.523247   259A      2.539526
     260A      2.562484   261A      2.566532   262A      2.580079
     263A      2.597910   264A      2.605586   265A      2.620514
     266A      2.665636   267A      2.670471   268A      2.674768
     269A      2.687338   270A      2.701389   271A      2.727113
     272A      2.755968   273A      2.762018   274A      2.771724
     275A      2.774751   276A      2.801908   277A      2.809196
     278A      2.846015   279A      2.867970   280A      2.870557
     281A      2.934107   282A      2.942905   283A      2.965632
     284A      2.975974   285A      3.022481   286A      3.085174
     287A      3.098453   288A      3.121352   289A      3.148542
     290A      3.201837   291A      3.275919   292A      3.600003
     293A      3.640033   294A      3.687284   295A      3.842041

    Final Occupation by Irrep:
              A
    DOCC [    55 ]

  @RHF Final Energy:  -644.12294340750793

   => Energetics <=

    Nuclear Repulsion Energy =           1034.7563512013716718
    One-Electron Energy =               -2913.1173570173164080
    Two-Electron Energy =                1234.2380624084369174
    Total Energy =                       -644.1229434075078188

Computation Completed

Properties will be evaluated at   0.000000,   0.000000,   0.000000 [a0]

Properties computed using the SCF density matrix

  Nuclear Dipole Moment: [e a0]
     X:     6.8648      Y:     1.5349      Z:    -0.3385

  Electronic Dipole Moment: [e a0]
     X:    -4.6057      Y:    -0.8417      Z:     3.4364

  Dipole Moment: [e a0]
     X:     2.2591      Y:     0.6932      Z:     3.0979     Total:     3.8963

  Dipole Moment: [D]
     X:     5.7420      Y:     1.7618      Z:     7.8740     Total:     9.9033

*** tstop() called on ds3 at Mon Apr 27 11:22:16 2020
Module time:
	user time   =     563.15 seconds =       9.39 minutes
	system time =     166.27 seconds =       2.77 minutes
	total time  =       3290 seconds =      54.83 minutes
Total time:
	user time   =     563.15 seconds =       9.39 minutes
	system time =     166.27 seconds =       2.77 minutes
	total time  =       3290 seconds =      54.83 minutes
                                     G D M A

                                 by Anthony Stone

                           version 2.2.06, 22 June 2011

               Distributed Multipoles from Gaussian wavefunctions

Starting at 11:22:16 on 27 Apr 2020

Using SCF density matrix from file ./SSI/SSI-009TRP-111ARG-1-dimer.test.2553.fchk

                         Distributed Multipole Analysis

Standard DMA

Positions and radii in angstrom
Multipole moments in atomic units, ea_0^k for rank k

C          x =  1.024042  y = -2.568027  z = -1.644013 angstrom
           Maximum rank =  0   Radius =  0.650 angstrom
                   Q00  =  -0.196598

C          x = -1.451958  y = -0.277027  z = -0.023013 angstrom
           Maximum rank =  0   Radius =  0.650 angstrom
                   Q00  =   0.249729

C          x = -0.609958  y = -0.606027  z = -1.117013 angstrom
           Maximum rank =  0   Radius =  0.650 angstrom
                   Q00  =  -0.072037

C          x =  0.061042  y = -1.831027  z = -0.786013 angstrom
           Maximum rank =  0   Radius =  0.650 angstrom
                   Q00  =  -0.124501

C          x = -0.394958  y = -2.199027  z =  0.438987 angstrom
           Maximum rank =  0   Radius =  0.650 angstrom
                   Q00  =   0.046303

C          x = -2.239958  y =  0.864973  z = -0.008013 angstrom
           Maximum rank =  0   Radius =  0.650 angstrom
                   Q00  =  -0.136606

C          x = -2.191958  y =  1.693973  z = -1.117013 angstrom
           Maximum rank =  0   Radius =  0.650 angstrom
                   Q00  =  -0.031958

C          x = -0.578958  y =  0.248973  z = -2.225013 angstrom
           Maximum rank =  0   Radius =  0.650 angstrom
                   Q00  =  -0.114304

C          x = -1.368958  y =  1.393973  z = -2.215013 angstrom
           Maximum rank =  0   Radius =  0.650 angstrom
                   Q00  =  -0.107786

N          x = -1.298958  y = -1.271027  z =  0.904987 angstrom
           Maximum rank =  0   Radius =  0.650 angstrom
                   Q00  =  -0.495123

H          x = -1.762958  y = -1.330027  z =  1.805987 angstrom
           Maximum rank =  0   Radius =  0.325 angstrom
                   Q00  =   0.219723

H          x = -2.873958  y =  1.093973  z =  0.837987 angstrom
           Maximum rank =  0   Radius =  0.325 angstrom
                   Q00  =   0.079443

H          x = -0.088958  y = -3.095027  z =  0.971987 angstrom
           Maximum rank =  0   Radius =  0.325 angstrom
                   Q00  =   0.104840

H          x = -2.799958  y =  2.589973  z = -1.139013 angstrom
           Maximum rank =  0   Radius =  0.325 angstrom
                   Q00  =   0.084239

H          x = -0.001958  y = -0.023027  z = -3.092013 angstrom
           Maximum rank =  0   Radius =  0.325 angstrom
                   Q00  =   0.087082

H          x =  1.652042  y = -3.212027  z = -1.025013 angstrom
           Maximum rank =  0   Radius =  0.325 angstrom
                   Q00  =   0.100115

H          x =  1.669042  y = -1.842027  z = -2.140013 angstrom
           Maximum rank =  0   Radius =  0.325 angstrom
                   Q00  =   0.085402

H          x = -1.362958  y =  2.058973  z = -3.070013 angstrom
           Maximum rank =  0   Radius =  0.325 angstrom
                   Q00  =   0.081329

H          x =  0.504614  y = -3.169697  z = -2.404403 angstrom
           Maximum rank =  0   Radius =  0.325 angstrom
                   Q00  =   0.128168

C          x =  1.833042  y =  1.991973  z = -0.241013 angstrom
           Maximum rank =  0   Radius =  0.650 angstrom
                   Q00  =  -0.114812

C          x =  1.517042  y =  0.584973  z =  1.758987 angstrom
           Maximum rank =  0   Radius =  0.650 angstrom
                   Q00  =   1.077614

N          x =  2.101042  y =  0.826973  z =  0.601987 angstrom
           Maximum rank =  0   Radius =  0.650 angstrom
                   Q00  =  -0.473930

N          x =  0.613042  y =  1.421973  z =  2.225987 angstrom
           Maximum rank =  0   Radius =  0.650 angstrom
                   Q00  =  -0.571391

N          x =  1.829042  y = -0.494027  z =  2.442987 angstrom
           Maximum rank =  0   Radius =  0.650 angstrom
                   Q00  =  -0.582448

H          x =  2.800042  y =  0.159973  z =  0.289987 angstrom
           Maximum rank =  0   Radius =  0.325 angstrom
                   Q00  =   0.234211

H          x =  0.334042  y =  2.214973  z =  1.676987 angstrom
           Maximum rank =  0   Radius =  0.325 angstrom
                   Q00  =   0.268974

H          x =  0.152042  y =  1.238973  z =  3.102987 angstrom
           Maximum rank =  0   Radius =  0.325 angstrom
                   Q00  =   0.256001

H          x =  2.465042  y = -1.164027  z =  2.036987 angstrom
           Maximum rank =  0   Radius =  0.325 angstrom
                   Q00  =   0.260840

H          x =  1.347042  y = -0.718027  z =  3.298987 angstrom
           Maximum rank =  0   Radius =  0.325 angstrom
                   Q00  =   0.259420

H          x =  0.957042  y =  2.567973  z =  0.058987 angstrom
           Maximum rank =  0   Radius =  0.325 angstrom
                   Q00  =   0.117599

H          x =  1.628042  y =  1.620973  z = -1.246013 angstrom
           Maximum rank =  0   Radius =  0.325 angstrom
                   Q00  =   0.150119

H          x =  2.714441  y =  2.646851  z = -0.306353 angstrom
           Maximum rank =  0   Radius =  0.325 angstrom
                   Q00  =   0.130346

Total multipoles referred to origin at
           x =   0.000000,  y =    0.000000,  z =    0.000000 angstrom
                   Q00  =   1.000000

Finished at 11:22:16 on 27 Apr 2020

  DMA results are available in the Python driver through the
	  variable('DMA DISTRIBUTED MULTIPOLES')
  and
	  variable('DMA TOTAL MULTIPOLES')
  commands.

    Psi4 stopped on: Monday, 27 April 2020 11:22AM
    Psi4 wall time for execution: 0:54:50.32

*** Psi4 exiting successfully. Buy a developer a beer!
