                               Psi4 1.3.2 release

  ==> Input File <==

--------------------------------------------------------------------------
import numpy as np
set {scf_type pk
basis cc-pvdz
d_convergence 10
gdma_switch   0
gdma_limit    0
gdma_origin   [ 0.0,  0.0,  0.0 ]
}
molecule test {
    units Angstrom
    0 1
    --
    0 1
    C               -0.669561639330838     6.010497225224088    -0.355450093567869
    C               -0.444561639330838     1.896497225224089    -1.580450093567869
    C               -1.196561639330837     2.801497225224089    -2.320450093567869
    C                0.231438360669162     2.323497225224088    -0.445450093567869
    C               -1.272561639330837     4.134497225224089    -1.920450093567869
    C                0.154438360669162     3.656497225224089    -0.050450093567869
    C               -0.600561639330838     4.569497225224088    -0.780450093567869
    H               -0.386561639330838     0.860497225224089    -1.879450093567869
    H               -1.721561639330838     2.477497225224089    -3.206450093567869
    H                0.820438360669162     1.620497225224089     0.127549906432131
    H               -1.860561639330838     4.824497225224088    -2.501450093567869
    H                0.676438360669162     3.975497225224089     0.838549906432131
    H               -0.023561639330838     6.148497225224088     0.513549906432131
    H               -1.691561639330837     6.237497225224089    -0.050450093567869
    H               -0.363841639330838     6.714017225224089    -1.143858093567869
    C                3.166438360669162    -3.170502774775911     1.610549906432131
    C               -0.339561639330838    -2.989502774775912     0.261549906432131
    C                0.740438360669162    -2.395502774775911     0.968549906432131
    C                1.805438360669163    -3.359502774775911     1.009549906432131
    C                1.348438360669163    -4.452502774775911     0.332549906432131
    C               -1.672561639330838    -1.046502774775911     0.545549906432131
    C               -1.541561639330837    -2.331502774775911     0.047549906432131
    C               -0.625561639330838    -0.431502774775911     1.250549906432131
    C                0.583438360669162    -1.094502774775911     1.465549906432131
    N                0.066438360669162    -4.241502774775912    -0.109450093567869
    H               -2.599561639330838    -0.508502774775911     0.396549906432131
    H               -2.340561639330838    -2.808502774775911    -0.495450093567869
    H               -0.762561639330838     0.570497225224089     1.633549906432131
    H                1.394438360669163    -0.616502774775911     1.986549906432131
    H               -0.513561639330838    -4.933502774775912    -0.597450093567869
    H                1.922438360669163    -5.348502774775912     0.140549906432131
    H                3.417438360669162    -4.023502774775912     2.242549906432131
    H                3.153438360669162    -2.275502774775911     2.234549906432131
    H                3.920958360669162    -3.049062774775911     0.819380306432131

}
e, wfn = energy('scf', return_wfn=True)
gdma(wfn)
dmavals = variable('DMA DISTRIBUTED MULTIPOLES')
charges = np.array(dmavals)
print(charges)
np.save('SSI-029PHE-101TRP-1-dimer.npy', np.array(charges))--------------------------------------------------------------------------

*** tstart() called on ds3
*** at Mon Apr 27 21:44:32 2020

   => Loading Basis Set <=

    Name: CC-PVDZ
    Role: ORBITAL
    Keyword: BASIS
    atoms 1-7, 16-24  entry C          line   138 file /theoryfs2/ds/metcalf/miniconda2/envs/tf2gpu/share/psi4/basis/cc-pvdz.gbs
    atoms 8-15, 26-34 entry H          line    22 file /theoryfs2/ds/metcalf/miniconda2/envs/tf2gpu/share/psi4/basis/cc-pvdz.gbs
    atoms 25          entry N          line   168 file /theoryfs2/ds/metcalf/miniconda2/envs/tf2gpu/share/psi4/basis/cc-pvdz.gbs

         ---------------------------------------------------------
                                   SCF
               by Justin Turney, Rob Parrish, Andy Simmonett
                          and Daniel G. A. Smith
                              RHF Reference
                        1 Threads,    500 MiB Core
         ---------------------------------------------------------

  ==> Geometry <==

    Molecular point group: c1
    Full point group: C1

    Geometry (in Angstrom), charge = 0, multiplicity = 1:

       Center              X                  Y                   Z               Mass
    ------------   -----------------  -----------------  -----------------  -----------------
         C           -0.669561639331     6.010497225224    -0.355450093568    12.000000000000
         C           -0.444561639331     1.896497225224    -1.580450093568    12.000000000000
         C           -1.196561639331     2.801497225224    -2.320450093568    12.000000000000
         C            0.231438360669     2.323497225224    -0.445450093568    12.000000000000
         C           -1.272561639331     4.134497225224    -1.920450093568    12.000000000000
         C            0.154438360669     3.656497225224    -0.050450093568    12.000000000000
         C           -0.600561639331     4.569497225224    -0.780450093568    12.000000000000
         H           -0.386561639331     0.860497225224    -1.879450093568     1.007825032230
         H           -1.721561639331     2.477497225224    -3.206450093568     1.007825032230
         H            0.820438360669     1.620497225224     0.127549906432     1.007825032230
         H           -1.860561639331     4.824497225224    -2.501450093568     1.007825032230
         H            0.676438360669     3.975497225224     0.838549906432     1.007825032230
         H           -0.023561639331     6.148497225224     0.513549906432     1.007825032230
         H           -1.691561639331     6.237497225224    -0.050450093568     1.007825032230
         H           -0.363841639331     6.714017225224    -1.143858093568     1.007825032230
         C            3.166438360669    -3.170502774776     1.610549906432    12.000000000000
         C           -0.339561639331    -2.989502774776     0.261549906432    12.000000000000
         C            0.740438360669    -2.395502774776     0.968549906432    12.000000000000
         C            1.805438360669    -3.359502774776     1.009549906432    12.000000000000
         C            1.348438360669    -4.452502774776     0.332549906432    12.000000000000
         C           -1.672561639331    -1.046502774776     0.545549906432    12.000000000000
         C           -1.541561639331    -2.331502774776     0.047549906432    12.000000000000
         C           -0.625561639331    -0.431502774776     1.250549906432    12.000000000000
         C            0.583438360669    -1.094502774776     1.465549906432    12.000000000000
         N            0.066438360669    -4.241502774776    -0.109450093568    14.003074004430
         H           -2.599561639331    -0.508502774776     0.396549906432     1.007825032230
         H           -2.340561639331    -2.808502774776    -0.495450093568     1.007825032230
         H           -0.762561639331     0.570497225224     1.633549906432     1.007825032230
         H            1.394438360669    -0.616502774776     1.986549906432     1.007825032230
         H           -0.513561639331    -4.933502774776    -0.597450093568     1.007825032230
         H            1.922438360669    -5.348502774776     0.140549906432     1.007825032230
         H            3.417438360669    -4.023502774776     2.242549906432     1.007825032230
         H            3.153438360669    -2.275502774776     2.234549906432     1.007825032230
         H            3.920958360669    -3.049062774776     0.819380306432     1.007825032230

  Running in c1 symmetry.

  Rotational constants: A =      0.03668  B =      0.00587  C =      0.00547 [cm^-1]
  Rotational constants: A =   1099.58044  B =    175.85307  C =    164.13630 [MHz]
  Nuclear repulsion = 1044.085532351567281

  Charge       = 0
  Multiplicity = 1
  Electrons    = 120
  Nalpha       = 60
  Nbeta        = 60

  ==> Algorithm <==

  SCF Algorithm Type is PK.
  DIIS enabled.
  MOM disabled.
  Fractional occupation disabled.
  Guess Type is SAD.
  Energy threshold   = 1.00e-06
  Density threshold  = 1.00e-10
  Integral threshold = 0.00e+00

  ==> Primary Basis <==

  Basis Set: CC-PVDZ
    Blend: CC-PVDZ
    Number of shells: 153
    Number of basis function: 323
    Number of Cartesian functions: 340
    Spherical Harmonics?: true
    Max angular momentum: 2

  ==> Pre-Iterations <==

   -------------------------------------------------------
    Irrep   Nso     Nmo     Nalpha   Nbeta   Ndocc  Nsocc
   -------------------------------------------------------
     A        323     323       0       0       0       0
   -------------------------------------------------------
    Total     323     323      60      60      60       0
   -------------------------------------------------------

  ==> Integral Setup <==

  Using integral reordering PK algorithm.
  Sizing the integral batches needed.
  Building batch lookup table.
   Calculation information:
      Number of atoms:                  34
      Number of AO shells:             153
      Number of primitives:            459
      Number of atomic orbitals:       340
      Number of basis functions:       323

      Integral cutoff                 1.00e-12
      Number of threads:                 1

	Batch   1 pq = [       0,    9405] index = [             0,44231715] size =     44231715
	Batch   2 pq = [    9405,   13301] index = [      44231715,88464951] size =     44233236
	Batch   3 pq = [   13301,   16290] index = [      88464951,132690195] size =     44225244
	Batch   4 pq = [   16290,   18810] index = [     132690195,176917455] size =     44227260
	Batch   5 pq = [   18810,   21030] index = [     176917455,221140965] size =     44223510
	Batch   6 pq = [   21030,   23037] index = [     221140965,265363203] size =     44222238
	Batch   7 pq = [   23037,   24883] index = [     265363203,309594286] size =     44231083
	Batch   8 pq = [   24883,   26601] index = [     309594286,353819901] size =     44225615
	Batch   9 pq = [   26601,   28214] index = [     353819901,398029005] size =     44209104
	Batch  10 pq = [   28214,   29740] index = [     398029005,442248670] size =     44219665
	Batch  11 pq = [   29740,   31191] index = [     442248670,486454836] size =     44206166
	Batch  12 pq = [   31191,   32578] index = [     486454836,530679331] size =     44224495
	Batch  13 pq = [   32578,   33908] index = [     530679331,574893186] size =     44213855
	Batch  14 pq = [   33908,   35188] index = [     574893186,619115266] size =     44222080
	Batch  15 pq = [   35188,   36423] index = [     619115266,663335676] size =     44220410
	Batch  16 pq = [   36423,   37617] index = [     663335676,707538153] size =     44202477
	Batch  17 pq = [   37617,   38775] index = [     707538153,751769700] size =     44231547
	Batch  18 pq = [   38775,   39899] index = [     751769700,795985050] size =     44215350
	Batch  19 pq = [   39899,   40992] index = [     795985050,840192528] size =     44207478
	Batch  20 pq = [   40992,   42057] index = [     840192528,884416653] size =     44224125
	Batch  21 pq = [   42057,   43095] index = [     884416653,928611060] size =     44194407
	Batch  22 pq = [   43095,   44109] index = [     928611060,972823995] size =     44212935
	Batch  23 pq = [   44109,   45100] index = [     972823995,1017027550] size =     44203555
	Batch  24 pq = [   45100,   46070] index = [    1017027550,1061245485] size =     44217935
	Batch  25 pq = [   46070,   47020] index = [    1061245485,1105463710] size =     44218225
	Batch  26 pq = [   47020,   47951] index = [    1105463710,1149673176] size =     44209466
	Batch  27 pq = [   47951,   48864] index = [    1149673176,1193869680] size =     44196504
	Batch  28 pq = [   48864,   49761] index = [    1193869680,1238103441] size =     44233761
	Batch  29 pq = [   49761,   50642] index = [    1238103441,1282331403] size =     44227962
	Batch  30 pq = [   50642,   51508] index = [    1282331403,1326562786] size =     44231383
	Batch  31 pq = [   51508,   52326] index = [    1326562786,1369031301] size =     42468515
  Task number: 124
  Buffer size: 11059200
  Buffer per thread: 2
  We computed 63487270 shell quartets total.
  Whereas there are 69401871 unique shell quartets.

  ==> DiskJK: Disk-Based J/K Matrices <==

    J tasked:                  Yes
    K tasked:                  Yes
    wK tasked:                  No
    Memory [MiB]:              375
    Schwarz Cutoff:          1E-12

    OpenMP threads:              1

  Minimum eigenvalue in the overlap matrix is 2.3880188827E-04.
  Using Symmetric Orthogonalization.

  SCF Guess: Superposition of Atomic Densities via on-the-fly atomic UHF.

  ==> Iterations <==

                        Total Energy        Delta E     RMS |[F,P]|

   @RHF iter SAD:  -669.57686673163539   -6.69577e+02   0.00000e+00
   @RHF iter   1:  -669.94688064302272   -3.70014e-01   2.15095e-03 DIIS
   @RHF iter   2:  -670.23919566452128   -2.92315e-01   9.28828e-04 DIIS
   @RHF iter   3:  -670.28713530788423   -4.79396e-02   2.51471e-04 DIIS
   @RHF iter   4:  -670.29168655585238   -4.55125e-03   1.10856e-04 DIIS
   @RHF iter   5:  -670.29239696516515   -7.10409e-04   1.68234e-05 DIIS
   @RHF iter   6:  -670.29242840604343   -3.14409e-05   7.59831e-06 DIIS
   @RHF iter   7:  -670.29243492338981   -6.51735e-06   2.83746e-06 DIIS
   @RHF iter   8:  -670.29243647287274   -1.54948e-06   1.17716e-06 DIIS
   @RHF iter   9:  -670.29243679424007   -3.21367e-07   5.15388e-07 DIIS
   @RHF iter  10:  -670.29243685951940   -6.52793e-08   2.24449e-07 DIIS
   @RHF iter  11:  -670.29243687593964   -1.64202e-08   9.20152e-08 DIIS
   @RHF iter  12:  -670.29243687855205   -2.61241e-09   3.48748e-08 DIIS
   @RHF iter  13:  -670.29243687880626   -2.54204e-10   9.93256e-09 DIIS
   @RHF iter  14:  -670.29243687881933   -1.30740e-11   3.99801e-09 DIIS
   @RHF iter  15:  -670.29243687881365    5.68434e-12   1.66796e-09 DIIS
   @RHF iter  16:  -670.29243687881933   -5.68434e-12   8.18530e-10 DIIS
   @RHF iter  17:  -670.29243687882445   -5.11591e-12   3.70972e-10 DIIS
   @RHF iter  18:  -670.29243687882581   -1.36424e-12   1.50366e-10 DIIS
   @RHF iter  19:  -670.29243687882922   -3.41061e-12   6.36308e-11 DIIS
  Energy and wave function converged.

  ==> Post-Iterations <==

    Orbital Energies [Eh]
    ---------------------

    Doubly Occupied:

       1A    -15.602900     2A    -11.262876     3A    -11.262127
       4A    -11.233858     5A    -11.230117     6A    -11.229446
       7A    -11.228496     8A    -11.227477     9A    -11.227432
      10A    -11.225448    11A    -11.225019    12A    -11.223244
      13A    -11.223092    14A    -11.221173    15A    -11.221057
      16A    -11.220413    17A    -11.217547    18A     -1.295490
      19A     -1.146418    20A     -1.127170    21A     -1.072842
      22A     -1.038434    23A     -1.004984    24A     -0.996602
      25A     -0.986071    26A     -0.931397    27A     -0.925316
      28A     -0.839247    29A     -0.818535    30A     -0.802165
      31A     -0.788587    32A     -0.752875    33A     -0.719132
      34A     -0.684075    35A     -0.661624    36A     -0.641917
      37A     -0.625245    38A     -0.622824    39A     -0.603582
      40A     -0.593028    41A     -0.590130    42A     -0.575597
      43A     -0.572182    44A     -0.567485    45A     -0.556290
      46A     -0.553726    47A     -0.537579    48A     -0.530058
      49A     -0.524747    50A     -0.494868    51A     -0.480347
      52A     -0.478837    53A     -0.474099    54A     -0.471624
      55A     -0.459371    56A     -0.373442    57A     -0.325713
      58A     -0.316108    59A     -0.292345    60A     -0.273192

    Virtual:

      61A      0.123292    62A      0.140177    63A      0.150794
      64A      0.173392    65A      0.178991    66A      0.183813
      67A      0.192914    68A      0.204339    69A      0.215332
      70A      0.216819    71A      0.221949    72A      0.231415
      73A      0.240666    74A      0.253626    75A      0.262903
      76A      0.264712    77A      0.271439    78A      0.275883
      79A      0.293393    80A      0.299321    81A      0.300205
      82A      0.341165    83A      0.370817    84A      0.372315
      85A      0.381598    86A      0.388521    87A      0.405468
      88A      0.424402    89A      0.445874    90A      0.461847
      91A      0.466047    92A      0.474536    93A      0.476960
      94A      0.483569    95A      0.504456    96A      0.509809
      97A      0.523456    98A      0.572883    99A      0.596245
     100A      0.602995   101A      0.627336   102A      0.631457
     103A      0.639337   104A      0.647140   105A      0.659231
     106A      0.675173   107A      0.690014   108A      0.693636
     109A      0.699600   110A      0.704578   111A      0.719944
     112A      0.722411   113A      0.727557   114A      0.733282
     115A      0.737103   116A      0.738790   117A      0.740815
     118A      0.749841   119A      0.752797   120A      0.756514
     121A      0.759403   122A      0.763407   123A      0.766091
     124A      0.775055   125A      0.786912   126A      0.791269
     127A      0.791974   128A      0.800787   129A      0.811102
     130A      0.828129   131A      0.847379   132A      0.864923
     133A      0.868983   134A      0.876850   135A      0.878127
     136A      0.883715   137A      0.885177   138A      0.890349
     139A      0.895282   140A      0.905698   141A      0.908974
     142A      0.917824   143A      0.924751   144A      0.937410
     145A      0.945111   146A      0.948463   147A      0.952938
     148A      0.963104   149A      0.967523   150A      0.974915
     151A      0.984875   152A      0.996503   153A      1.007344
     154A      1.017375   155A      1.046276   156A      1.050604
     157A      1.069723   158A      1.083971   159A      1.091636
     160A      1.108889   161A      1.131214   162A      1.140179
     163A      1.141002   164A      1.151078   165A      1.154976
     166A      1.162022   167A      1.169663   168A      1.181850
     169A      1.208982   170A      1.210962   171A      1.217165
     172A      1.220960   173A      1.235140   174A      1.241818
     175A      1.253439   176A      1.261478   177A      1.270551
     178A      1.282798   179A      1.283877   180A      1.290089
     181A      1.300062   182A      1.308887   183A      1.319876
     184A      1.332704   185A      1.335614   186A      1.338815
     187A      1.353366   188A      1.363057   189A      1.399047
     190A      1.427965   191A      1.440800   192A      1.467296
     193A      1.510316   194A      1.521521   195A      1.546020
     196A      1.559531   197A      1.561484   198A      1.572100
     199A      1.605965   200A      1.619906   201A      1.632675
     202A      1.634810   203A      1.653888   204A      1.680512
     205A      1.686568   206A      1.692592   207A      1.705828
     208A      1.734060   209A      1.741899   210A      1.748294
     211A      1.753384   212A      1.769389   213A      1.780288
     214A      1.792824   215A      1.800537   216A      1.820833
     217A      1.826820   218A      1.833054   219A      1.838546
     220A      1.868250   221A      1.878954   222A      1.888264
     223A      1.894983   224A      1.898088   225A      1.902488
     226A      1.906213   227A      1.910403   228A      1.920207
     229A      1.923913   230A      1.930943   231A      1.941800
     232A      1.945281   233A      1.949039   234A      1.960842
     235A      1.973897   236A      1.977111   237A      1.989925
     238A      1.998844   239A      2.007432   240A      2.008853
     241A      2.014480   242A      2.020926   243A      2.042359
     244A      2.046564   245A      2.064631   246A      2.071169
     247A      2.083470   248A      2.087685   249A      2.088684
     250A      2.096052   251A      2.111924   252A      2.121982
     253A      2.130690   254A      2.135236   255A      2.146149
     256A      2.162483   257A      2.169807   258A      2.173622
     259A      2.183760   260A      2.191412   261A      2.200048
     262A      2.214720   263A      2.237004   264A      2.260712
     265A      2.265055   266A      2.272664   267A      2.277933
     268A      2.299562   269A      2.307752   270A      2.309960
     271A      2.327515   272A      2.344195   273A      2.355050
     274A      2.360772   275A      2.377514   276A      2.401091
     277A      2.407360   278A      2.451014   279A      2.455865
     280A      2.467584   281A      2.487002   282A      2.523770
     283A      2.533554   284A      2.548678   285A      2.586992
     286A      2.593108   287A      2.629726   288A      2.644419
     289A      2.671500   290A      2.687141   291A      2.736808
     292A      2.739411   293A      2.761648   294A      2.771964
     295A      2.773920   296A      2.775782   297A      2.778693
     298A      2.807216   299A      2.808672   300A      2.815269
     301A      2.830301   302A      2.846432   303A      2.851780
     304A      2.861560   305A      2.873392   306A      2.924950
     307A      2.973829   308A      2.992431   309A      3.018157
     310A      3.026835   311A      3.049183   312A      3.058332
     313A      3.074086   314A      3.118536   315A      3.173323
     316A      3.209695   317A      3.215376   318A      3.301675
     319A      3.315545   320A      3.373966   321A      3.733039
     322A      3.953958   323A      3.984506

    Final Occupation by Irrep:
              A
    DOCC [    60 ]

  @RHF Final Energy:  -670.29243687882922

   => Energetics <=

    Nuclear Repulsion Energy =           1044.0855323515672808
    One-Electron Energy =               -2979.9418844338242707
    Two-Electron Energy =                1265.5639152034277686
    Total Energy =                       -670.2924368788292213

Computation Completed

Properties will be evaluated at   0.000000,   0.000000,   0.000000 [a0]

Properties computed using the SCF density matrix

  Nuclear Dipole Moment: [e a0]
     X:     2.8513      Y:     9.2608      Z:     0.9929

  Electronic Dipole Moment: [e a0]
     X:    -2.9078      Y:   -10.0111      Z:    -1.2808

  Dipole Moment: [e a0]
     X:    -0.0565      Y:    -0.7502      Z:    -0.2879     Total:     0.8056

  Dipole Moment: [D]
     X:    -0.1437      Y:    -1.9069      Z:    -0.7318     Total:     2.0476

*** tstop() called on ds3 at Mon Apr 27 22:02:08 2020
Module time:
	user time   =     588.16 seconds =       9.80 minutes
	system time =     222.92 seconds =       3.72 minutes
	total time  =       1056 seconds =      17.60 minutes
Total time:
	user time   =     588.16 seconds =       9.80 minutes
	system time =     222.92 seconds =       3.72 minutes
	total time  =       1056 seconds =      17.60 minutes
                                     G D M A

                                 by Anthony Stone

                           version 2.2.06, 22 June 2011

               Distributed Multipoles from Gaussian wavefunctions

Starting at 22:2:8 on 27 Apr 2020

Using SCF density matrix from file ./SSI/SSI-029PHE-101TRP-1-dimer.test.20328.fchk

                         Distributed Multipole Analysis

Standard DMA

Positions and radii in angstrom
Multipole moments in atomic units, ea_0^k for rank k

C          x = -0.669562  y =  6.010497  z = -0.355450 angstrom
           Maximum rank =  0   Radius =  0.650 angstrom
                   Q00  =  -0.204386

C          x = -0.444562  y =  1.896497  z = -1.580450 angstrom
           Maximum rank =  0   Radius =  0.650 angstrom
                   Q00  =  -0.087324

C          x = -1.196562  y =  2.801497  z = -2.320450 angstrom
           Maximum rank =  0   Radius =  0.650 angstrom
                   Q00  =  -0.079193

C          x =  0.231438  y =  2.323497  z = -0.445450 angstrom
           Maximum rank =  0   Radius =  0.650 angstrom
                   Q00  =  -0.064191

C          x = -1.272562  y =  4.134497  z = -1.920450 angstrom
           Maximum rank =  0   Radius =  0.650 angstrom
                   Q00  =  -0.056754

C          x =  0.154438  y =  3.656497  z = -0.050450 angstrom
           Maximum rank =  0   Radius =  0.650 angstrom
                   Q00  =  -0.014460

C          x = -0.600562  y =  4.569497  z = -0.780450 angstrom
           Maximum rank =  0   Radius =  0.650 angstrom
                   Q00  =  -0.096516

H          x = -0.386562  y =  0.860497  z = -1.879450 angstrom
           Maximum rank =  0   Radius =  0.325 angstrom
                   Q00  =   0.068308

H          x = -1.721562  y =  2.477497  z = -3.206450 angstrom
           Maximum rank =  0   Radius =  0.325 angstrom
                   Q00  =   0.061368

H          x =  0.820438  y =  1.620497  z =  0.127550 angstrom
           Maximum rank =  0   Radius =  0.325 angstrom
                   Q00  =   0.067935

H          x = -1.860562  y =  4.824497  z = -2.501450 angstrom
           Maximum rank =  0   Radius =  0.325 angstrom
                   Q00  =   0.052060

H          x =  0.676438  y =  3.975497  z =  0.838550 angstrom
           Maximum rank =  0   Radius =  0.325 angstrom
                   Q00  =   0.053272

H          x = -0.023562  y =  6.148497  z =  0.513550 angstrom
           Maximum rank =  0   Radius =  0.325 angstrom
                   Q00  =   0.094763

H          x = -1.691562  y =  6.237497  z = -0.050450 angstrom
           Maximum rank =  0   Radius =  0.325 angstrom
                   Q00  =   0.100644

H          x = -0.363842  y =  6.714017  z = -1.143858 angstrom
           Maximum rank =  0   Radius =  0.325 angstrom
                   Q00  =   0.101470

C          x =  3.166438  y = -3.170503  z =  1.610550 angstrom
           Maximum rank =  0   Radius =  0.650 angstrom
                   Q00  =  -0.217630

C          x = -0.339562  y = -2.989503  z =  0.261550 angstrom
           Maximum rank =  0   Radius =  0.650 angstrom
                   Q00  =   0.289528

C          x =  0.740438  y = -2.395503  z =  0.968550 angstrom
           Maximum rank =  0   Radius =  0.650 angstrom
                   Q00  =  -0.045403

C          x =  1.805438  y = -3.359503  z =  1.009550 angstrom
           Maximum rank =  0   Radius =  0.650 angstrom
                   Q00  =  -0.125297

C          x =  1.348438  y = -4.452503  z =  0.332550 angstrom
           Maximum rank =  0   Radius =  0.650 angstrom
                   Q00  =   0.073088

C          x = -1.672562  y = -1.046503  z =  0.545550 angstrom
           Maximum rank =  0   Radius =  0.650 angstrom
                   Q00  =  -0.070153

C          x = -1.541562  y = -2.331503  z =  0.047550 angstrom
           Maximum rank =  0   Radius =  0.650 angstrom
                   Q00  =  -0.118922

C          x = -0.625562  y = -0.431503  z =  1.250550 angstrom
           Maximum rank =  0   Radius =  0.650 angstrom
                   Q00  =  -0.078418

C          x =  0.583438  y = -1.094503  z =  1.465550 angstrom
           Maximum rank =  0   Radius =  0.650 angstrom
                   Q00  =  -0.113344

N          x =  0.066438  y = -4.241503  z = -0.109450 angstrom
           Maximum rank =  0   Radius =  0.650 angstrom
                   Q00  =  -0.496283

H          x = -2.599562  y = -0.508503  z =  0.396550 angstrom
           Maximum rank =  0   Radius =  0.325 angstrom
                   Q00  =   0.067725

H          x = -2.340562  y = -2.808503  z = -0.495450 angstrom
           Maximum rank =  0   Radius =  0.325 angstrom
                   Q00  =   0.072489

H          x = -0.762562  y =  0.570497  z =  1.633550 angstrom
           Maximum rank =  0   Radius =  0.325 angstrom
                   Q00  =   0.065568

H          x =  1.394438  y = -0.616503  z =  1.986550 angstrom
           Maximum rank =  0   Radius =  0.325 angstrom
                   Q00  =   0.068600

H          x = -0.513562  y = -4.933503  z = -0.597450 angstrom
           Maximum rank =  0   Radius =  0.325 angstrom
                   Q00  =   0.220312

H          x =  1.922438  y = -5.348503  z =  0.140550 angstrom
           Maximum rank =  0   Radius =  0.325 angstrom
                   Q00  =   0.096530

H          x =  3.417438  y = -4.023503  z =  2.242550 angstrom
           Maximum rank =  0   Radius =  0.325 angstrom
                   Q00  =   0.105541

H          x =  3.153438  y = -2.275503  z =  2.234550 angstrom
           Maximum rank =  0   Radius =  0.325 angstrom
                   Q00  =   0.107906

H          x =  3.920958  y = -3.049063  z =  0.819380 angstrom
           Maximum rank =  0   Radius =  0.325 angstrom
                   Q00  =   0.101167

Total multipoles referred to origin at
           x =   0.000000,  y =    0.000000,  z =    0.000000 angstrom
                   Q00  =  -0.000000

Finished at 22:2:9 on 27 Apr 2020

  DMA results are available in the Python driver through the
	  variable('DMA DISTRIBUTED MULTIPOLES')
  and
	  variable('DMA TOTAL MULTIPOLES')
  commands.

    Psi4 stopped on: Monday, 27 April 2020 10:02PM
    Psi4 wall time for execution: 0:17:36.79

*** Psi4 exiting successfully. Buy a developer a beer!
