                               Psi4 1.3.2 release

  ==> Input File <==

--------------------------------------------------------------------------
import numpy as np
set {scf_type pk
basis cc-pvdz
d_convergence 10
gdma_switch   0
gdma_limit    0
gdma_origin   [ 0.0,  0.0,  0.0 ]
}
molecule test {
    units Angstrom
    0 1
    --
    0 1
    C                0.518763497650959     1.545645609688562    -1.124155625700718
    C                0.223763497650959     0.493645609688562    -2.194155625700719
    H                0.750763497650959     2.512645609688562    -1.570155625700718
    H               -0.364236502349041     1.677645609688562    -0.510155625700718
    H                1.350763497650959     1.221645609688562    -0.500155625700718
    H                0.133763497650959    -0.479354390311438    -1.715155625700718
    H                1.045521497650959     0.450625609688562    -2.924129525700718
    H               -0.722951502349041     0.726645609688562    -2.703508525700718
    C                0.055763497650959    -1.424354390311438     1.169844374299282
    C               -0.799236502349041    -0.618354390311438     2.145844374299282
    H               -0.453236502349041    -1.506354390311438     0.220844374299282
    H                0.996763497650959    -0.901354390311438     1.007844374299282
    H                0.257763497650959    -2.414354390311438     1.568844374299282
    H               -0.205236502349041    -0.434354390311438     3.041844374299282
    H               -1.714869502349041    -1.157339390311438     2.430644374299281
    H               -1.063544502349041     0.344595609688562     1.684464374299282

}
e, wfn = energy('scf', return_wfn=True)
gdma(wfn)
dmavals = variable('DMA DISTRIBUTED MULTIPOLES')
charges = np.array(dmavals)
print(charges)
np.save('SSI-119THR-123THR-1-dimer.npy', np.array(charges))--------------------------------------------------------------------------

*** tstart() called on ds3
*** at Tue Apr 28 04:01:06 2020

   => Loading Basis Set <=

    Name: CC-PVDZ
    Role: ORBITAL
    Keyword: BASIS
    atoms 1-2, 9-10  entry C          line   138 file /theoryfs2/ds/metcalf/miniconda2/envs/tf2gpu/share/psi4/basis/cc-pvdz.gbs
    atoms 3-8, 11-16 entry H          line    22 file /theoryfs2/ds/metcalf/miniconda2/envs/tf2gpu/share/psi4/basis/cc-pvdz.gbs

         ---------------------------------------------------------
                                   SCF
               by Justin Turney, Rob Parrish, Andy Simmonett
                          and Daniel G. A. Smith
                              RHF Reference
                        1 Threads,    500 MiB Core
         ---------------------------------------------------------

  ==> Geometry <==

    Molecular point group: c1
    Full point group: C1

    Geometry (in Angstrom), charge = 0, multiplicity = 1:

       Center              X                  Y                   Z               Mass
    ------------   -----------------  -----------------  -----------------  -----------------
         C            0.518763497651     1.545645609689    -1.124155625701    12.000000000000
         C            0.223763497651     0.493645609689    -2.194155625701    12.000000000000
         H            0.750763497651     2.512645609689    -1.570155625701     1.007825032230
         H           -0.364236502349     1.677645609689    -0.510155625701     1.007825032230
         H            1.350763497651     1.221645609689    -0.500155625701     1.007825032230
         H            0.133763497651    -0.479354390311    -1.715155625701     1.007825032230
         H            1.045521497651     0.450625609689    -2.924129525701     1.007825032230
         H           -0.722951502349     0.726645609689    -2.703508525701     1.007825032230
         C            0.055763497651    -1.424354390311     1.169844374299    12.000000000000
         C           -0.799236502349    -0.618354390311     2.145844374299    12.000000000000
         H           -0.453236502349    -1.506354390311     0.220844374299     1.007825032230
         H            0.996763497651    -0.901354390311     1.007844374299     1.007825032230
         H            0.257763497651    -2.414354390311     1.568844374299     1.007825032230
         H           -0.205236502349    -0.434354390311     3.041844374299     1.007825032230
         H           -1.714869502349    -1.157339390311     2.430644374299     1.007825032230
         H           -1.063544502349     0.344595609689     1.684464374299     1.007825032230

  Running in c1 symmetry.

  Rotational constants: A =      0.36366  B =      0.06547  C =      0.06007 [cm^-1]
  Rotational constants: A =  10902.34583  B =   1962.74835  C =   1800.88498 [MHz]
  Nuclear repulsion =  126.552991710493941

  Charge       = 0
  Multiplicity = 1
  Electrons    = 36
  Nalpha       = 18
  Nbeta        = 18

  ==> Algorithm <==

  SCF Algorithm Type is PK.
  DIIS enabled.
  MOM disabled.
  Fractional occupation disabled.
  Guess Type is SAD.
  Energy threshold   = 1.00e-06
  Density threshold  = 1.00e-10
  Integral threshold = 0.00e+00

  ==> Primary Basis <==

  Basis Set: CC-PVDZ
    Blend: CC-PVDZ
    Number of shells: 60
    Number of basis function: 116
    Number of Cartesian functions: 120
    Spherical Harmonics?: true
    Max angular momentum: 2

  ==> Pre-Iterations <==

   -------------------------------------------------------
    Irrep   Nso     Nmo     Nalpha   Nbeta   Ndocc  Nsocc
   -------------------------------------------------------
     A        116     116       0       0       0       0
   -------------------------------------------------------
    Total     116     116      18      18      18       0
   -------------------------------------------------------

  ==> Integral Setup <==

  Using integral reordering PK algorithm.
  Sizing the integral batches needed.
  Building batch lookup table.
   Calculation information:
      Number of atoms:                  16
      Number of AO shells:              60
      Number of primitives:            148
      Number of atomic orbitals:       120
      Number of basis functions:       116

      Integral cutoff                 1.00e-12
      Number of threads:                 1

	Batch   1 pq = [       0,    6786] index = [             0,23028291] size =     23028291
  Task number: 3
  Buffer size: 11059200
  Buffer per thread: 2
  We computed 1608886 shell quartets total.
  Whereas there are 1675365 unique shell quartets.

  ==> DiskJK: Disk-Based J/K Matrices <==

    J tasked:                  Yes
    K tasked:                  Yes
    wK tasked:                  No
    Memory [MiB]:              375
    Schwarz Cutoff:          1E-12

    OpenMP threads:              1

  Minimum eigenvalue in the overlap matrix is 7.6272574428E-03.
  Using Symmetric Orthogonalization.

  SCF Guess: Superposition of Atomic Densities via on-the-fly atomic UHF.

  ==> Iterations <==

                        Total Energy        Delta E     RMS |[F,P]|

   @RHF iter SAD:  -157.37466079509056   -1.57375e+02   0.00000e+00
   @RHF iter   1:  -158.30637994146451   -9.31719e-01   4.22183e-03 DIIS
   @RHF iter   2:  -158.44011644016237   -1.33736e-01   1.80117e-03 DIIS
   @RHF iter   3:  -158.46365182436693   -2.35354e-02   3.50305e-04 DIIS
   @RHF iter   4:  -158.46547434086358   -1.82252e-03   3.84687e-05 DIIS
   @RHF iter   5:  -158.46549752884735   -2.31880e-05   6.40451e-06 DIIS
   @RHF iter   6:  -158.46549814891006   -6.20063e-07   8.57611e-07 DIIS
   @RHF iter   7:  -158.46549815749546   -8.58540e-09   2.52258e-07 DIIS
   @RHF iter   8:  -158.46549815803550   -5.40041e-10   4.37334e-08 DIIS
   @RHF iter   9:  -158.46549815806057   -2.50679e-11   1.05499e-08 DIIS
   @RHF iter  10:  -158.46549815806253   -1.96110e-12   2.55369e-09 DIIS
   @RHF iter  11:  -158.46549815806199    5.40012e-13   4.54674e-10 DIIS
   @RHF iter  12:  -158.46549815806256   -5.68434e-13   1.01736e-10 DIIS
   @RHF iter  13:  -158.46549815806256    0.00000e+00   3.17351e-11 DIIS
  Energy and wave function converged.

  ==> Post-Iterations <==

    Orbital Energies [Eh]
    ---------------------

    Doubly Occupied:

       1A    -11.219151     2A    -11.218616     3A    -11.216439
       4A    -11.215458     5A     -1.021491     6A     -1.017033
       7A     -0.838704     8A     -0.836388     9A     -0.608895
      10A     -0.601274    11A     -0.597517    12A     -0.589459
      13A     -0.501917    14A     -0.498193    15A     -0.493529
      16A     -0.490386    17A     -0.483549    18A     -0.478234

    Virtual:

      19A      0.169042    20A      0.207858    21A      0.221883
      22A      0.227450    23A      0.245005    24A      0.256569
      25A      0.264456    26A      0.271569    27A      0.285781
      28A      0.327915    29A      0.333195    30A      0.365316
      31A      0.397375    32A      0.413290    33A      0.557061
      34A      0.594630    35A      0.595754    36A      0.606373
      37A      0.613763    38A      0.632473    39A      0.674531
      40A      0.689771    41A      0.713438    42A      0.796640
      43A      0.842654    44A      0.848192    45A      0.868357
      46A      0.889705    47A      0.893683    48A      0.900665
      49A      0.906519    50A      0.919416    51A      0.929002
      52A      0.945060    53A      0.951345    54A      0.968671
      55A      0.982010    56A      1.013128    57A      1.123250
      58A      1.126154    59A      1.128897    60A      1.162666
      61A      1.222190    62A      1.279721    63A      1.465801
      64A      1.477397    65A      1.482351    66A      1.494196
      67A      1.547415    68A      1.596513    69A      1.680409
      70A      1.684837    71A      1.700794    72A      1.711812
      73A      1.854168    74A      1.859632    75A      1.865159
      76A      1.880368    77A      1.898557    78A      1.912085
      79A      1.937794    80A      1.942597    81A      1.943257
      82A      1.952093    83A      1.954482    84A      1.959947
      85A      1.961142    86A      1.970609    87A      1.976569
      88A      2.040603    89A      2.104234    90A      2.111207
      91A      2.123980    92A      2.161090    93A      2.295093
      94A      2.302443    95A      2.309574    96A      2.326945
      97A      2.445796    98A      2.452836    99A      2.460340
     100A      2.477534   101A      2.562041   102A      2.576792
     103A      2.581589   104A      2.592023   105A      2.766771
     106A      2.771303   107A      2.797828   108A      2.805042
     109A      2.849334   110A      2.855339   111A      2.857449
     112A      2.865388   113A      2.947658   114A      2.955683
     115A      2.975238   116A      2.988723

    Final Occupation by Irrep:
              A
    DOCC [    18 ]

  @RHF Final Energy:  -158.46549815806256

   => Energetics <=

    Nuclear Repulsion Energy =            126.5529917104939415
    One-Electron Energy =                -462.1845133491628417
    Two-Electron Energy =                 177.1660234806063556
    Total Energy =                       -158.4654981580625588

Computation Completed

Properties will be evaluated at   0.000000,   0.000000,   0.000000 [a0]

Properties computed using the SCF density matrix

  Nuclear Dipole Moment: [e a0]
     X:     0.0106      Y:     0.0381      Z:     0.0293

  Electronic Dipole Moment: [e a0]
     X:    -0.0053      Y:    -0.0435      Z:    -0.0194

  Dipole Moment: [e a0]
     X:     0.0052      Y:    -0.0054      Z:     0.0098     Total:     0.0124

  Dipole Moment: [D]
     X:     0.0133      Y:    -0.0136      Z:     0.0250     Total:     0.0314

*** tstop() called on ds3 at Tue Apr 28 04:01:24 2020
Module time:
	user time   =       8.31 seconds =       0.14 minutes
	system time =       2.82 seconds =       0.05 minutes
	total time  =         18 seconds =       0.30 minutes
Total time:
	user time   =       8.31 seconds =       0.14 minutes
	system time =       2.82 seconds =       0.05 minutes
	total time  =         18 seconds =       0.30 minutes
                                     G D M A

                                 by Anthony Stone

                           version 2.2.06, 22 June 2011

               Distributed Multipoles from Gaussian wavefunctions

Starting at 4:1:24 on 28 Apr 2020

Using SCF density matrix from file ./SSI/SSI-119THR-123THR-1-dimer.test.27174.fchk

                         Distributed Multipole Analysis

Standard DMA

Positions and radii in angstrom
Multipole moments in atomic units, ea_0^k for rank k

C          x =  0.518763  y =  1.545646  z = -1.124156 angstrom
           Maximum rank =  0   Radius =  0.650 angstrom
                   Q00  =  -0.235442

C          x =  0.223763  y =  0.493646  z = -2.194156 angstrom
           Maximum rank =  0   Radius =  0.650 angstrom
                   Q00  =  -0.244150

H          x =  0.750764  y =  2.512646  z = -1.570156 angstrom
           Maximum rank =  0   Radius =  0.325 angstrom
                   Q00  =   0.080552

H          x = -0.364237  y =  1.677646  z = -0.510156 angstrom
           Maximum rank =  0   Radius =  0.325 angstrom
                   Q00  =   0.078467

H          x =  1.350763  y =  1.221646  z = -0.500156 angstrom
           Maximum rank =  0   Radius =  0.325 angstrom
                   Q00  =   0.079593

H          x =  0.133763  y = -0.479354  z = -1.715156 angstrom
           Maximum rank =  0   Radius =  0.325 angstrom
                   Q00  =   0.083448

H          x =  1.045521  y =  0.450626  z = -2.924130 angstrom
           Maximum rank =  0   Radius =  0.325 angstrom
                   Q00  =   0.078455

H          x = -0.722952  y =  0.726646  z = -2.703509 angstrom
           Maximum rank =  0   Radius =  0.325 angstrom
                   Q00  =   0.078068

C          x =  0.055763  y = -1.424354  z =  1.169844 angstrom
           Maximum rank =  0   Radius =  0.650 angstrom
                   Q00  =  -0.239818

C          x = -0.799237  y = -0.618354  z =  2.145844 angstrom
           Maximum rank =  0   Radius =  0.650 angstrom
                   Q00  =  -0.234013

H          x = -0.453237  y = -1.506354  z =  0.220844 angstrom
           Maximum rank =  0   Radius =  0.325 angstrom
                   Q00  =   0.079833

H          x =  0.996763  y = -0.901354  z =  1.007844 angstrom
           Maximum rank =  0   Radius =  0.325 angstrom
                   Q00  =   0.077995

H          x =  0.257763  y = -2.414354  z =  1.568844 angstrom
           Maximum rank =  0   Radius =  0.325 angstrom
                   Q00  =   0.081096

H          x = -0.205237  y = -0.434354  z =  3.041844 angstrom
           Maximum rank =  0   Radius =  0.325 angstrom
                   Q00  =   0.077398

H          x = -1.714870  y = -1.157339  z =  2.430644 angstrom
           Maximum rank =  0   Radius =  0.325 angstrom
                   Q00  =   0.079633

H          x = -1.063545  y =  0.344596  z =  1.684464 angstrom
           Maximum rank =  0   Radius =  0.325 angstrom
                   Q00  =   0.078885

Total multipoles referred to origin at
           x =   0.000000,  y =    0.000000,  z =    0.000000 angstrom
                   Q00  =  -0.000000

Finished at 4:1:24 on 28 Apr 2020

  DMA results are available in the Python driver through the
	  variable('DMA DISTRIBUTED MULTIPOLES')
  and
	  variable('DMA TOTAL MULTIPOLES')
  commands.

    Psi4 stopped on: Tuesday, 28 April 2020 04:01AM
    Psi4 wall time for execution: 0:00:17.79

*** Psi4 exiting successfully. Buy a developer a beer!
