                               Psi4 1.3.2 release

  ==> Input File <==

--------------------------------------------------------------------------
import numpy as np
set {scf_type pk
basis cc-pvdz
d_convergence 10
gdma_switch   0
gdma_limit    0
gdma_origin   [ 0.0,  0.0,  0.0 ]
}
molecule test {
    units Angstrom
    0 1
    --
    0 1
    C               -2.858101954912905     0.480320891960063     0.244214097696339
    C               -0.626101954912905    -0.665679108039937    -0.174785902303661
    C               -1.887101954912906    -0.639679108039937     0.333214097696339
    C               -0.824101954912905    -2.576679108039937     0.985214097696339
    C               -2.047101954912905    -1.857679108039937     1.079214097696339
    C               -0.630101954912905    -3.807679108039936     1.604214097696339
    C               -3.098101954912905    -2.414679108039937     1.824214097696339
    C               -1.684101954912905    -4.337679108039937     2.332214097696339
    C               -2.905101954912905    -3.654679108039937     2.443214097696339
    N                0.015898045087095    -1.817679108039937     0.213214097696339
    H               -0.186101954912905     0.131320891960063    -0.762785902303661
    H                0.964898045087095    -2.056679108039937    -0.039785902303661
    H               -2.266101954912905     1.389320891960063     0.243214097696339
    H               -3.435101954912905     0.473320891960063     1.170214097696339
    H                0.303898045087095    -4.340679108039937     1.502214097696339
    H               -4.044101954912905    -1.898679108039937     1.901214097696339
    H               -1.571101954912905    -5.301679108039937     2.806214097696339
    H               -3.713101954912905    -4.130679108039937     2.976214097696339
    H               -3.542291954912905     0.504760891960063    -0.616765902303661
    C                1.205898045087095     5.232320891960063    -2.158785902303662
    C                2.379898045087095     1.285320891960063    -0.883785902303661
    C                2.010898045087095     1.511320891960063    -2.210785902303661
    C                2.354898045087095     2.333320891960063     0.035214097696339
    C                1.621898045087095     2.785320891960063    -2.616785902303661
    C                1.961898045087095     3.608320891960063    -0.380785902303661
    C                1.593898045087095     3.845320891960063    -1.707785902303661
    O                2.765898045087095     0.038320891960063    -0.491785902303661
    H                2.024898045087095     0.715320891960063    -2.932785902303662
    H                2.808898045087095    -0.578679108039937    -1.221785902303661
    H                2.652898045087095     2.156320891960063     1.058214097696339
    H                1.350898045087095     2.946320891960063    -3.649785902303661
    H                1.966898045087095     4.423320891960063     0.332214097696339
    H                1.725898045087095     5.449320891960063    -3.091785902303661
    H                1.562898045087095     5.960320891960063    -1.427785902303661
    H                0.126058045087095     5.384120891960063    -2.303385902303661

}
e, wfn = energy('scf', return_wfn=True)
gdma(wfn)
dmavals = variable('DMA DISTRIBUTED MULTIPOLES')
charges = np.array(dmavals)
print(charges)
np.save('SSI-071TRP-166TYR-1-dimer.npy', np.array(charges))--------------------------------------------------------------------------

*** tstart() called on ds3
*** at Mon Apr 27 13:32:06 2020

   => Loading Basis Set <=

    Name: CC-PVDZ
    Role: ORBITAL
    Keyword: BASIS
    atoms 1-9, 20-26   entry C          line   138 file /theoryfs2/ds/metcalf/miniconda2/envs/tf2gpu/share/psi4/basis/cc-pvdz.gbs
    atoms 10           entry N          line   168 file /theoryfs2/ds/metcalf/miniconda2/envs/tf2gpu/share/psi4/basis/cc-pvdz.gbs
    atoms 11-19, 28-35 entry H          line    22 file /theoryfs2/ds/metcalf/miniconda2/envs/tf2gpu/share/psi4/basis/cc-pvdz.gbs
    atoms 27           entry O          line   198 file /theoryfs2/ds/metcalf/miniconda2/envs/tf2gpu/share/psi4/basis/cc-pvdz.gbs

         ---------------------------------------------------------
                                   SCF
               by Justin Turney, Rob Parrish, Andy Simmonett
                          and Daniel G. A. Smith
                              RHF Reference
                        1 Threads,    500 MiB Core
         ---------------------------------------------------------

  ==> Geometry <==

    Molecular point group: c1
    Full point group: C1

    Geometry (in Angstrom), charge = 0, multiplicity = 1:

       Center              X                  Y                   Z               Mass
    ------------   -----------------  -----------------  -----------------  -----------------
         C           -2.858101954913     0.480320891960     0.244214097696    12.000000000000
         C           -0.626101954913    -0.665679108040    -0.174785902304    12.000000000000
         C           -1.887101954913    -0.639679108040     0.333214097696    12.000000000000
         C           -0.824101954913    -2.576679108040     0.985214097696    12.000000000000
         C           -2.047101954913    -1.857679108040     1.079214097696    12.000000000000
         C           -0.630101954913    -3.807679108040     1.604214097696    12.000000000000
         C           -3.098101954913    -2.414679108040     1.824214097696    12.000000000000
         C           -1.684101954913    -4.337679108040     2.332214097696    12.000000000000
         C           -2.905101954913    -3.654679108040     2.443214097696    12.000000000000
         N            0.015898045087    -1.817679108040     0.213214097696    14.003074004430
         H           -0.186101954913     0.131320891960    -0.762785902304     1.007825032230
         H            0.964898045087    -2.056679108040    -0.039785902304     1.007825032230
         H           -2.266101954913     1.389320891960     0.243214097696     1.007825032230
         H           -3.435101954913     0.473320891960     1.170214097696     1.007825032230
         H            0.303898045087    -4.340679108040     1.502214097696     1.007825032230
         H           -4.044101954913    -1.898679108040     1.901214097696     1.007825032230
         H           -1.571101954913    -5.301679108040     2.806214097696     1.007825032230
         H           -3.713101954913    -4.130679108040     2.976214097696     1.007825032230
         H           -3.542291954913     0.504760891960    -0.616765902304     1.007825032230
         C            1.205898045087     5.232320891960    -2.158785902304    12.000000000000
         C            2.379898045087     1.285320891960    -0.883785902304    12.000000000000
         C            2.010898045087     1.511320891960    -2.210785902304    12.000000000000
         C            2.354898045087     2.333320891960     0.035214097696    12.000000000000
         C            1.621898045087     2.785320891960    -2.616785902304    12.000000000000
         C            1.961898045087     3.608320891960    -0.380785902304    12.000000000000
         C            1.593898045087     3.845320891960    -1.707785902304    12.000000000000
         O            2.765898045087     0.038320891960    -0.491785902304    15.994914619570
         H            2.024898045087     0.715320891960    -2.932785902304     1.007825032230
         H            2.808898045087    -0.578679108040    -1.221785902304     1.007825032230
         H            2.652898045087     2.156320891960     1.058214097696     1.007825032230
         H            1.350898045087     2.946320891960    -3.649785902304     1.007825032230
         H            1.966898045087     4.423320891960     0.332214097696     1.007825032230
         H            1.725898045087     5.449320891960    -3.091785902304     1.007825032230
         H            1.562898045087     5.960320891960    -1.427785902304     1.007825032230
         H            0.126058045087     5.384120891960    -2.303385902304     1.007825032230

  Running in c1 symmetry.

  Rotational constants: A =      0.03144  B =      0.00565  C =      0.00509 [cm^-1]
  Rotational constants: A =    942.57757  B =    169.27436  C =    152.61957 [MHz]
  Nuclear repulsion = 1169.448502897665321

  Charge       = 0
  Multiplicity = 1
  Electrons    = 128
  Nalpha       = 64
  Nbeta        = 64

  ==> Algorithm <==

  SCF Algorithm Type is PK.
  DIIS enabled.
  MOM disabled.
  Fractional occupation disabled.
  Guess Type is SAD.
  Energy threshold   = 1.00e-06
  Density threshold  = 1.00e-10
  Integral threshold = 0.00e+00

  ==> Primary Basis <==

  Basis Set: CC-PVDZ
    Blend: CC-PVDZ
    Number of shells: 159
    Number of basis function: 337
    Number of Cartesian functions: 355
    Spherical Harmonics?: true
    Max angular momentum: 2

  ==> Pre-Iterations <==

   -------------------------------------------------------
    Irrep   Nso     Nmo     Nalpha   Nbeta   Ndocc  Nsocc
   -------------------------------------------------------
     A        337     337       0       0       0       0
   -------------------------------------------------------
    Total     337     337      64      64      64       0
   -------------------------------------------------------

  ==> Integral Setup <==

  Using integral reordering PK algorithm.
  Sizing the integral batches needed.
  Building batch lookup table.
   Calculation information:
      Number of atoms:                  35
      Number of AO shells:             159
      Number of primitives:            481
      Number of atomic orbitals:       355
      Number of basis functions:       337

      Integral cutoff                 1.00e-12
      Number of threads:                 1

	Batch   1 pq = [       0,    9405] index = [             0,44231715] size =     44231715
	Batch   2 pq = [    9405,   13301] index = [      44231715,88464951] size =     44233236
	Batch   3 pq = [   13301,   16290] index = [      88464951,132690195] size =     44225244
	Batch   4 pq = [   16290,   18810] index = [     132690195,176917455] size =     44227260
	Batch   5 pq = [   18810,   21030] index = [     176917455,221140965] size =     44223510
	Batch   6 pq = [   21030,   23037] index = [     221140965,265363203] size =     44222238
	Batch   7 pq = [   23037,   24883] index = [     265363203,309594286] size =     44231083
	Batch   8 pq = [   24883,   26601] index = [     309594286,353819901] size =     44225615
	Batch   9 pq = [   26601,   28214] index = [     353819901,398029005] size =     44209104
	Batch  10 pq = [   28214,   29740] index = [     398029005,442248670] size =     44219665
	Batch  11 pq = [   29740,   31191] index = [     442248670,486454836] size =     44206166
	Batch  12 pq = [   31191,   32578] index = [     486454836,530679331] size =     44224495
	Batch  13 pq = [   32578,   33908] index = [     530679331,574893186] size =     44213855
	Batch  14 pq = [   33908,   35188] index = [     574893186,619115266] size =     44222080
	Batch  15 pq = [   35188,   36423] index = [     619115266,663335676] size =     44220410
	Batch  16 pq = [   36423,   37617] index = [     663335676,707538153] size =     44202477
	Batch  17 pq = [   37617,   38775] index = [     707538153,751769700] size =     44231547
	Batch  18 pq = [   38775,   39899] index = [     751769700,795985050] size =     44215350
	Batch  19 pq = [   39899,   40992] index = [     795985050,840192528] size =     44207478
	Batch  20 pq = [   40992,   42057] index = [     840192528,884416653] size =     44224125
	Batch  21 pq = [   42057,   43095] index = [     884416653,928611060] size =     44194407
	Batch  22 pq = [   43095,   44109] index = [     928611060,972823995] size =     44212935
	Batch  23 pq = [   44109,   45100] index = [     972823995,1017027550] size =     44203555
	Batch  24 pq = [   45100,   46070] index = [    1017027550,1061245485] size =     44217935
	Batch  25 pq = [   46070,   47020] index = [    1061245485,1105463710] size =     44218225
	Batch  26 pq = [   47020,   47951] index = [    1105463710,1149673176] size =     44209466
	Batch  27 pq = [   47951,   48864] index = [    1149673176,1193869680] size =     44196504
	Batch  28 pq = [   48864,   49761] index = [    1193869680,1238103441] size =     44233761
	Batch  29 pq = [   49761,   50642] index = [    1238103441,1282331403] size =     44227962
	Batch  30 pq = [   50642,   51508] index = [    1282331403,1326562786] size =     44231383
	Batch  31 pq = [   51508,   52359] index = [    1326562786,1370758620] size =     44195834
	Batch  32 pq = [   52359,   53197] index = [    1370758620,1414987003] size =     44228383
	Batch  33 pq = [   53197,   54022] index = [    1414987003,1459215253] size =     44228250
	Batch  34 pq = [   54022,   54834] index = [    1459215253,1503411195] size =     44195942
	Batch  35 pq = [   54834,   55634] index = [    1503411195,1547598795] size =     44187600
	Batch  36 pq = [   55634,   56423] index = [    1547598795,1591805676] size =     44206881
	Batch  37 pq = [   56423,   56953] index = [    1591805676,1621850581] size =     30044905
  Task number: 147
  Buffer size: 11059200
  Buffer per thread: 2
  We computed 75952322 shell quartets total.
  Whereas there are 80905560 unique shell quartets.

  ==> DiskJK: Disk-Based J/K Matrices <==

    J tasked:                  Yes
    K tasked:                  Yes
    wK tasked:                  No
    Memory [MiB]:              375
    Schwarz Cutoff:          1E-12

    OpenMP threads:              1

  Minimum eigenvalue in the overlap matrix is 2.4009857709E-04.
  Using Symmetric Orthogonalization.

  SCF Guess: Superposition of Atomic Densities via on-the-fly atomic UHF.

  ==> Iterations <==

                        Total Energy        Delta E     RMS |[F,P]|

   @RHF iter SAD:  -744.34632603830028   -7.44346e+02   0.00000e+00
   @RHF iter   1:  -744.78305975156422   -4.36734e-01   2.20805e-03 DIIS
   @RHF iter   2:  -745.09704136419009   -3.13982e-01   9.71865e-04 DIIS
   @RHF iter   3:  -745.15105952695967   -5.40182e-02   2.65193e-04 DIIS
   @RHF iter   4:  -745.15628217289827   -5.22265e-03   1.20719e-04 DIIS
   @RHF iter   5:  -745.15723274126708   -9.50568e-04   1.65851e-05 DIIS
   @RHF iter   6:  -745.15726883544301   -3.60942e-05   7.65693e-06 DIIS
   @RHF iter   7:  -745.15727586938601   -7.03394e-06   2.84841e-06 DIIS
   @RHF iter   8:  -745.15727755523881   -1.68585e-06   1.15728e-06 DIIS
   @RHF iter   9:  -745.15727787588855   -3.20650e-07   5.16686e-07 DIIS
   @RHF iter  10:  -745.15727794809015   -7.22016e-08   2.46756e-07 DIIS
   @RHF iter  11:  -745.15727796876638   -2.06762e-08   1.00352e-07 DIIS
   @RHF iter  12:  -745.15727797189163   -3.12525e-09   3.89512e-08 DIIS
   @RHF iter  13:  -745.15727797225702   -3.65389e-10   1.32687e-08 DIIS
   @RHF iter  14:  -745.15727797228612   -2.91038e-11   5.01908e-09 DIIS
   @RHF iter  15:  -745.15727797228612    0.00000e+00   2.03847e-09 DIIS
   @RHF iter  16:  -745.15727797229579   -9.66338e-12   9.38574e-10 DIIS
   @RHF iter  17:  -745.15727797228942    6.36646e-12   5.07369e-10 DIIS
   @RHF iter  18:  -745.15727797228760    1.81899e-12   1.91887e-10 DIIS
   @RHF iter  19:  -745.15727797229772   -1.01181e-11   8.03841e-11 DIIS
  Energy and wave function converged.

  ==> Post-Iterations <==

    Orbital Energies [Eh]
    ---------------------

    Doubly Occupied:

       1A    -20.598003     2A    -15.594223     3A    -11.310131
       4A    -11.258048     5A    -11.254868     6A    -11.247231
       7A    -11.246947     8A    -11.242759     9A    -11.242238
      10A    -11.239705    11A    -11.233467    12A    -11.226583
      13A    -11.225551    14A    -11.223755    15A    -11.218333
      16A    -11.216799    17A    -11.215063    18A    -11.208476
      19A     -1.415412    20A     -1.288303    21A     -1.157867
      22A     -1.120897    23A     -1.068611    24A     -1.044502
      25A     -1.026025    26A     -0.990620    27A     -0.981760
      28A     -0.933576    29A     -0.925441    30A     -0.852811
      31A     -0.833903    32A     -0.812629    33A     -0.797397
      34A     -0.745716    35A     -0.744731    36A     -0.714059
      37A     -0.676715    38A     -0.657130    39A     -0.650437
      40A     -0.637334    41A     -0.616321    42A     -0.599397
      43A     -0.597187    44A     -0.595355    45A     -0.585752
      46A     -0.583368    47A     -0.578965    48A     -0.574246
      49A     -0.560243    50A     -0.547261    51A     -0.532075
      52A     -0.531531    53A     -0.520200    54A     -0.505462
      55A     -0.493362    56A     -0.488098    57A     -0.476095
      58A     -0.464932    59A     -0.454716    60A     -0.366514
      61A     -0.346746    62A     -0.310869    63A     -0.288624
      64A     -0.268092

    Virtual:

      65A      0.120175    66A      0.130936    67A      0.145532
      68A      0.153356    69A      0.174856    70A      0.180331
      71A      0.196630    72A      0.201571    73A      0.210244
      74A      0.212546    75A      0.226593    76A      0.228333
      77A      0.243016    78A      0.252155    79A      0.254200
      80A      0.261127    81A      0.272023    82A      0.274544
      83A      0.286419    84A      0.289434    85A      0.304118
      86A      0.310186    87A      0.363695    88A      0.365202
      89A      0.375911    90A      0.387115    91A      0.409625
      92A      0.427783    93A      0.431329    94A      0.449237
      95A      0.449546    96A      0.475064    97A      0.477028
      98A      0.485430    99A      0.487859   100A      0.507022
     101A      0.511687   102A      0.516362   103A      0.600767
     104A      0.603878   105A      0.618000   106A      0.626882
     107A      0.637076   108A      0.646425   109A      0.652173
     110A      0.652662   111A      0.664921   112A      0.680644
     113A      0.694239   114A      0.699030   115A      0.701484
     116A      0.708871   117A      0.722582   118A      0.726617
     119A      0.729311   120A      0.731710   121A      0.737023
     122A      0.743100   123A      0.747048   124A      0.750048
     125A      0.753196   126A      0.762560   127A      0.768265
     128A      0.769089   129A      0.770589   130A      0.776027
     131A      0.786972   132A      0.796726   133A      0.806472
     134A      0.826998   135A      0.839964   136A      0.847254
     137A      0.848407   138A      0.855539   139A      0.871221
     140A      0.872737   141A      0.875179   142A      0.879706
     143A      0.884901   144A      0.889254   145A      0.896973
     146A      0.899419   147A      0.903657   148A      0.916336
     149A      0.920797   150A      0.928315   151A      0.933940
     152A      0.939163   153A      0.947193   154A      0.959736
     155A      0.973050   156A      0.987859   157A      0.992343
     158A      0.992822   159A      1.011417   160A      1.023572
     161A      1.036562   162A      1.056687   163A      1.069297
     164A      1.090888   165A      1.101454   166A      1.115507
     167A      1.130848   168A      1.133199   169A      1.136686
     170A      1.139289   171A      1.154352   172A      1.159702
     173A      1.172073   174A      1.177014   175A      1.203623
     176A      1.208994   177A      1.227599   178A      1.232643
     179A      1.237822   180A      1.244318   181A      1.252151
     182A      1.260550   183A      1.273105   184A      1.281279
     185A      1.286186   186A      1.291650   187A      1.301509
     188A      1.303170   189A      1.318061   190A      1.333475
     191A      1.335889   192A      1.349435   193A      1.356717
     194A      1.361554   195A      1.369702   196A      1.378730
     197A      1.386617   198A      1.437398   199A      1.458644
     200A      1.476100   201A      1.498771   202A      1.514077
     203A      1.521384   204A      1.543893   205A      1.548141
     206A      1.586484   207A      1.601547   208A      1.607490
     209A      1.624283   210A      1.633748   211A      1.650644
     212A      1.671384   213A      1.682687   214A      1.691257
     215A      1.697809   216A      1.717305   217A      1.726702
     218A      1.738583   219A      1.749336   220A      1.764800
     221A      1.769978   222A      1.780050   223A      1.789052
     224A      1.794919   225A      1.809446   226A      1.815473
     227A      1.833263   228A      1.838769   229A      1.869225
     230A      1.882353   231A      1.883641   232A      1.892020
     233A      1.894039   234A      1.903701   235A      1.905721
     236A      1.910989   237A      1.914280   238A      1.927194
     239A      1.932131   240A      1.934297   241A      1.943319
     242A      1.947943   243A      1.952935   244A      1.959317
     245A      1.962756   246A      1.985998   247A      1.994274
     248A      2.003699   249A      2.007565   250A      2.019060
     251A      2.023116   252A      2.042646   253A      2.049319
     254A      2.056082   255A      2.058692   256A      2.063657
     257A      2.080005   258A      2.088758   259A      2.095973
     260A      2.111408   261A      2.112852   262A      2.120334
     263A      2.135994   264A      2.137191   265A      2.159917
     266A      2.166459   267A      2.172393   268A      2.179009
     269A      2.182960   270A      2.189393   271A      2.217318
     272A      2.237285   273A      2.247812   274A      2.261242
     275A      2.277368   276A      2.295553   277A      2.305914
     278A      2.316186   279A      2.321329   280A      2.330635
     281A      2.343768   282A      2.352112   283A      2.391640
     284A      2.400331   285A      2.407868   286A      2.417398
     287A      2.457434   288A      2.460654   289A      2.466567
     290A      2.475082   291A      2.496776   292A      2.520376
     293A      2.544213   294A      2.566839   295A      2.595542
     296A      2.606543   297A      2.622592   298A      2.630208
     299A      2.632634   300A      2.672525   301A      2.687213
     302A      2.723719   303A      2.735716   304A      2.762107
     305A      2.776565   306A      2.779367   307A      2.784062
     308A      2.797228   309A      2.798243   310A      2.806252
     311A      2.843635   312A      2.853147   313A      2.864607
     314A      2.889184   315A      2.901331   316A      2.945197
     317A      2.964236   318A      2.979151   319A      2.994362
     320A      3.026263   321A      3.054588   322A      3.075732
     323A      3.079354   324A      3.106816   325A      3.126066
     326A      3.206079   327A      3.242100   328A      3.266235
     329A      3.308533   330A      3.338546   331A      3.389569
     332A      3.569530   333A      3.660379   334A      3.756598
     335A      3.947613   336A      3.968379   337A      4.184271

    Final Occupation by Irrep:
              A
    DOCC [    64 ]

  @RHF Final Energy:  -745.15727797229772

   => Energetics <=

    Nuclear Repulsion Energy =           1169.4485028976653211
    One-Electron Energy =               -3333.2846230115546859
    Two-Electron Energy =                1418.6788421415917583
    Total Energy =                       -745.1572779722978339

Computation Completed

Properties will be evaluated at   0.000000,   0.000000,   0.000000 [a0]

Properties computed using the SCF density matrix

  Nuclear Dipole Moment: [e a0]
     X:    -3.0521      Y:    10.5301      Z:    -3.8062

  Electronic Dipole Moment: [e a0]
     X:     3.7906      Y:   -10.0450      Z:     2.8068

  Dipole Moment: [e a0]
     X:     0.7386      Y:     0.4852      Z:    -0.9994     Total:     1.3341

  Dipole Moment: [D]
     X:     1.8772      Y:     1.2332      Z:    -2.5403     Total:     3.3909

*** tstop() called on ds3 at Mon Apr 27 15:57:21 2020
Module time:
	user time   =     770.10 seconds =      12.84 minutes
	system time =     376.57 seconds =       6.28 minutes
	total time  =       8715 seconds =     145.25 minutes
Total time:
	user time   =     770.10 seconds =      12.84 minutes
	system time =     376.57 seconds =       6.28 minutes
	total time  =       8715 seconds =     145.25 minutes
                                     G D M A

                                 by Anthony Stone

                           version 2.2.06, 22 June 2011

               Distributed Multipoles from Gaussian wavefunctions

Starting at 15:57:21 on 27 Apr 2020

Using SCF density matrix from file ./SSI/SSI-071TRP-166TYR-1-dimer.test.7038.fchk

                         Distributed Multipole Analysis

Standard DMA

Positions and radii in angstrom
Multipole moments in atomic units, ea_0^k for rank k

C          x = -2.858102  y =  0.480321  z =  0.244214 angstrom
           Maximum rank =  0   Radius =  0.650 angstrom
                   Q00  =  -0.211119

C          x = -0.626102  y = -0.665679  z = -0.174786 angstrom
           Maximum rank =  0   Radius =  0.650 angstrom
                   Q00  =   0.070073

C          x = -1.887102  y = -0.639679  z =  0.333214 angstrom
           Maximum rank =  0   Radius =  0.650 angstrom
                   Q00  =  -0.133375

C          x = -0.824102  y = -2.576679  z =  0.985214 angstrom
           Maximum rank =  0   Radius =  0.650 angstrom
                   Q00  =   0.301803

C          x = -2.047102  y = -1.857679  z =  1.079214 angstrom
           Maximum rank =  0   Radius =  0.650 angstrom
                   Q00  =  -0.059589

C          x = -0.630102  y = -3.807679  z =  1.604214 angstrom
           Maximum rank =  0   Radius =  0.650 angstrom
                   Q00  =  -0.120295

C          x = -3.098102  y = -2.414679  z =  1.824214 angstrom
           Maximum rank =  0   Radius =  0.650 angstrom
                   Q00  =  -0.100908

C          x = -1.684102  y = -4.337679  z =  2.332214 angstrom
           Maximum rank =  0   Radius =  0.650 angstrom
                   Q00  =  -0.070237

C          x = -2.905102  y = -3.654679  z =  2.443214 angstrom
           Maximum rank =  0   Radius =  0.650 angstrom
                   Q00  =  -0.089130

N          x =  0.015898  y = -1.817679  z =  0.213214 angstrom
           Maximum rank =  0   Radius =  0.650 angstrom
                   Q00  =  -0.476899

H          x = -0.186102  y =  0.131321  z = -0.762786 angstrom
           Maximum rank =  0   Radius =  0.325 angstrom
                   Q00  =   0.108562

H          x =  0.964898  y = -2.056679  z = -0.039786 angstrom
           Maximum rank =  0   Radius =  0.325 angstrom
                   Q00  =   0.209960

H          x = -2.266102  y =  1.389321  z =  0.243214 angstrom
           Maximum rank =  0   Radius =  0.325 angstrom
                   Q00  =   0.103253

H          x = -3.435102  y =  0.473321  z =  1.170214 angstrom
           Maximum rank =  0   Radius =  0.325 angstrom
                   Q00  =   0.100556

H          x =  0.303898  y = -4.340679  z =  1.502214 angstrom
           Maximum rank =  0   Radius =  0.325 angstrom
                   Q00  =   0.070524

H          x = -4.044102  y = -1.898679  z =  1.901214 angstrom
           Maximum rank =  0   Radius =  0.325 angstrom
                   Q00  =   0.070124

H          x = -1.571102  y = -5.301679  z =  2.806214 angstrom
           Maximum rank =  0   Radius =  0.325 angstrom
                   Q00  =   0.062866

H          x = -3.713102  y = -4.130679  z =  2.976214 angstrom
           Maximum rank =  0   Radius =  0.325 angstrom
                   Q00  =   0.059233

H          x = -3.542292  y =  0.504761  z = -0.616766 angstrom
           Maximum rank =  0   Radius =  0.325 angstrom
                   Q00  =   0.097137

C          x =  1.205898  y =  5.232321  z = -2.158786 angstrom
           Maximum rank =  0   Radius =  0.650 angstrom
                   Q00  =  -0.195014

C          x =  2.379898  y =  1.285321  z = -0.883786 angstrom
           Maximum rank =  0   Radius =  0.650 angstrom
                   Q00  =   0.299664

C          x =  2.010898  y =  1.511321  z = -2.210786 angstrom
           Maximum rank =  0   Radius =  0.650 angstrom
                   Q00  =  -0.194085

C          x =  2.354898  y =  2.333321  z =  0.035214 angstrom
           Maximum rank =  0   Radius =  0.650 angstrom
                   Q00  =  -0.115744

C          x =  1.621898  y =  2.785321  z = -2.616786 angstrom
           Maximum rank =  0   Radius =  0.650 angstrom
                   Q00  =  -0.017414

C          x =  1.961898  y =  3.608321  z = -0.380786 angstrom
           Maximum rank =  0   Radius =  0.650 angstrom
                   Q00  =   0.033811

C          x =  1.593898  y =  3.845321  z = -1.707786 angstrom
           Maximum rank =  0   Radius =  0.650 angstrom
                   Q00  =  -0.132646

O          x =  2.765898  y =  0.038321  z = -0.491786 angstrom
           Maximum rank =  0   Radius =  0.650 angstrom
                   Q00  =  -0.667378

H          x =  2.024898  y =  0.715321  z = -2.932786 angstrom
           Maximum rank =  0   Radius =  0.325 angstrom
                   Q00  =   0.072967

H          x =  2.808898  y = -0.578679  z = -1.221786 angstrom
           Maximum rank =  0   Radius =  0.325 angstrom
                   Q00  =   0.400533

H          x =  2.652898  y =  2.156321  z =  1.058214 angstrom
           Maximum rank =  0   Radius =  0.325 angstrom
                   Q00  =   0.085790

H          x =  1.350898  y =  2.946321  z = -3.649786 angstrom
           Maximum rank =  0   Radius =  0.325 angstrom
                   Q00  =   0.071558

H          x =  1.966898  y =  4.423321  z =  0.332214 angstrom
           Maximum rank =  0   Radius =  0.325 angstrom
                   Q00  =   0.069297

H          x =  1.725898  y =  5.449321  z = -3.091786 angstrom
           Maximum rank =  0   Radius =  0.325 angstrom
                   Q00  =   0.096746

H          x =  1.562898  y =  5.960321  z = -1.427786 angstrom
           Maximum rank =  0   Radius =  0.325 angstrom
                   Q00  =   0.096835

H          x =  0.126058  y =  5.384121  z = -2.303386 angstrom
           Maximum rank =  0   Radius =  0.325 angstrom
                   Q00  =   0.102541

Total multipoles referred to origin at
           x =   0.000000,  y =    0.000000,  z =    0.000000 angstrom
                   Q00  =  -0.000000

Finished at 15:57:21 on 27 Apr 2020

  DMA results are available in the Python driver through the
	  variable('DMA DISTRIBUTED MULTIPOLES')
  and
	  variable('DMA TOTAL MULTIPOLES')
  commands.

    Psi4 stopped on: Monday, 27 April 2020 03:57PM
    Psi4 wall time for execution: 2:25:15.33

*** Psi4 exiting successfully. Buy a developer a beer!
