                               Psi4 1.3.2 release

  ==> Input File <==

--------------------------------------------------------------------------
import numpy as np
set {scf_type pk
basis cc-pvdz
d_convergence 10
gdma_switch   0
gdma_limit    0
gdma_origin   [ 0.0,  0.0,  0.0 ]
}
molecule test {
    units Angstrom
    0 1
    --
    0 1
    C               -2.864964480570697    -2.463623358244087     1.792309729942382
    C               -2.733964480570696    -3.934623358244087     1.417309729942382
    H               -2.099964480570696    -1.873623358244087     1.287309729942382
    H               -3.849964480570696    -2.086623358244087     1.514309729942382
    H               -2.739964480570696    -2.346623358244087     2.870309729942383
    H               -3.485964480570696    -4.498623358244086     1.974309729942382
    H               -1.727934480570696    -4.301963358244087     1.668249729942382
    H               -2.949714480570696    -4.070463358244087     0.347264329942382
    C               -1.367964480570696    -0.820623358244087    -1.292690270057618
    C               -1.037964480570696    -0.803623358244087    -2.781690270057617
    C               -0.700964480570696     0.341376641755913    -0.661690270057618
    C               -1.211964480570696     1.588376641755913    -0.493690270057618
    C                0.658035519429304     0.397376641755913    -0.213690270057618
    C                0.896035519429304     1.711376641755913     0.256309729942382
    C                1.693035519429304    -0.539623358244087    -0.140690270057618
    C                2.117035519429304     2.102376641755913     0.784309729942382
    C                2.918035519429303    -0.151623358244087     0.390309729942382
    C                3.126035519429303     1.158376641755913     0.841309729942382
    N               -0.265964480570696     2.411376641755913     0.070309729942382
    H               -2.443964480570696    -0.783623358244087    -1.127690270057618
    H               -0.974964480570696    -1.735623358244087    -0.850690270057618
    H                0.050035519429304    -0.759623358244087    -2.839690270057617
    H               -2.223964480570696     1.882376641755913    -0.752690270057618
    H               -0.424964480570696     3.383376641755913     0.315309729942382
    H                1.504035519429304    -1.549623358244087    -0.457690270057618
    H                2.274035519429304     3.113376641755913     1.136309729942382
    H                3.724035519429304    -0.870623358244087     0.470309729942382
    H                4.090035519429304     1.432376641755913     1.251309729942382
    H               -1.421324480570696     0.115526641755913    -3.248811270057617
    H               -1.350334480570696    -1.712533358244087    -3.316768270057618

}
e, wfn = energy('scf', return_wfn=True)
gdma(wfn)
dmavals = variable('DMA DISTRIBUTED MULTIPOLES')
charges = np.array(dmavals)
print(charges)
np.save('SSI-170ALA-175TRP-1-dimer.npy', np.array(charges))--------------------------------------------------------------------------

*** tstart() called on ds3
*** at Mon Apr 27 14:55:09 2020

   => Loading Basis Set <=

    Name: CC-PVDZ
    Role: ORBITAL
    Keyword: BASIS
    atoms 1-2, 9-18  entry C          line   138 file /theoryfs2/ds/metcalf/miniconda2/envs/tf2gpu/share/psi4/basis/cc-pvdz.gbs
    atoms 3-8, 20-30 entry H          line    22 file /theoryfs2/ds/metcalf/miniconda2/envs/tf2gpu/share/psi4/basis/cc-pvdz.gbs
    atoms 19         entry N          line   168 file /theoryfs2/ds/metcalf/miniconda2/envs/tf2gpu/share/psi4/basis/cc-pvdz.gbs

         ---------------------------------------------------------
                                   SCF
               by Justin Turney, Rob Parrish, Andy Simmonett
                          and Daniel G. A. Smith
                              RHF Reference
                        1 Threads,    500 MiB Core
         ---------------------------------------------------------

  ==> Geometry <==

    Molecular point group: c1
    Full point group: C1

    Geometry (in Angstrom), charge = 0, multiplicity = 1:

       Center              X                  Y                   Z               Mass
    ------------   -----------------  -----------------  -----------------  -----------------
         C           -2.864964480571    -2.463623358244     1.792309729942    12.000000000000
         C           -2.733964480571    -3.934623358244     1.417309729942    12.000000000000
         H           -2.099964480571    -1.873623358244     1.287309729942     1.007825032230
         H           -3.849964480571    -2.086623358244     1.514309729942     1.007825032230
         H           -2.739964480571    -2.346623358244     2.870309729942     1.007825032230
         H           -3.485964480571    -4.498623358244     1.974309729942     1.007825032230
         H           -1.727934480571    -4.301963358244     1.668249729942     1.007825032230
         H           -2.949714480571    -4.070463358244     0.347264329942     1.007825032230
         C           -1.367964480571    -0.820623358244    -1.292690270058    12.000000000000
         C           -1.037964480571    -0.803623358244    -2.781690270058    12.000000000000
         C           -0.700964480571     0.341376641756    -0.661690270058    12.000000000000
         C           -1.211964480571     1.588376641756    -0.493690270058    12.000000000000
         C            0.658035519429     0.397376641756    -0.213690270058    12.000000000000
         C            0.896035519429     1.711376641756     0.256309729942    12.000000000000
         C            1.693035519429    -0.539623358244    -0.140690270058    12.000000000000
         C            2.117035519429     2.102376641756     0.784309729942    12.000000000000
         C            2.918035519429    -0.151623358244     0.390309729942    12.000000000000
         C            3.126035519429     1.158376641756     0.841309729942    12.000000000000
         N           -0.265964480571     2.411376641756     0.070309729942    14.003074004430
         H           -2.443964480571    -0.783623358244    -1.127690270058     1.007825032230
         H           -0.974964480571    -1.735623358244    -0.850690270058     1.007825032230
         H            0.050035519429    -0.759623358244    -2.839690270058     1.007825032230
         H           -2.223964480571     1.882376641756    -0.752690270058     1.007825032230
         H           -0.424964480571     3.383376641756     0.315309729942     1.007825032230
         H            1.504035519429    -1.549623358244    -0.457690270058     1.007825032230
         H            2.274035519429     3.113376641756     1.136309729942     1.007825032230
         H            3.724035519429    -0.870623358244     0.470309729942     1.007825032230
         H            4.090035519429     1.432376641756     1.251309729942     1.007825032230
         H           -1.421324480571     0.115526641756    -3.248811270058     1.007825032230
         H           -1.350334480571    -1.712533358244    -3.316768270058     1.007825032230

  Running in c1 symmetry.

  Rotational constants: A =      0.03187  B =      0.01394  C =      0.01260 [cm^-1]
  Rotational constants: A =    955.36608  B =    417.98920  C =    377.74046 [MHz]
  Nuclear repulsion =  748.962299639548064

  Charge       = 0
  Multiplicity = 1
  Electrons    = 96
  Nalpha       = 48
  Nbeta        = 48

  ==> Algorithm <==

  SCF Algorithm Type is PK.
  DIIS enabled.
  MOM disabled.
  Fractional occupation disabled.
  Guess Type is SAD.
  Energy threshold   = 1.00e-06
  Density threshold  = 1.00e-10
  Integral threshold = 0.00e+00

  ==> Primary Basis <==

  Basis Set: CC-PVDZ
    Blend: CC-PVDZ
    Number of shells: 129
    Number of basis function: 267
    Number of Cartesian functions: 280
    Spherical Harmonics?: true
    Max angular momentum: 2

  ==> Pre-Iterations <==

   -------------------------------------------------------
    Irrep   Nso     Nmo     Nalpha   Nbeta   Ndocc  Nsocc
   -------------------------------------------------------
     A        267     267       0       0       0       0
   -------------------------------------------------------
    Total     267     267      48      48      48       0
   -------------------------------------------------------

  ==> Integral Setup <==

  Using integral reordering PK algorithm.
  Sizing the integral batches needed.
  Building batch lookup table.
   Calculation information:
      Number of atoms:                  30
      Number of AO shells:             129
      Number of primitives:            371
      Number of atomic orbitals:       280
      Number of basis functions:       267

      Integral cutoff                 1.00e-12
      Number of threads:                 1

	Batch   1 pq = [       0,    9405] index = [             0,44231715] size =     44231715
	Batch   2 pq = [    9405,   13301] index = [      44231715,88464951] size =     44233236
	Batch   3 pq = [   13301,   16290] index = [      88464951,132690195] size =     44225244
	Batch   4 pq = [   16290,   18810] index = [     132690195,176917455] size =     44227260
	Batch   5 pq = [   18810,   21030] index = [     176917455,221140965] size =     44223510
	Batch   6 pq = [   21030,   23037] index = [     221140965,265363203] size =     44222238
	Batch   7 pq = [   23037,   24883] index = [     265363203,309594286] size =     44231083
	Batch   8 pq = [   24883,   26601] index = [     309594286,353819901] size =     44225615
	Batch   9 pq = [   26601,   28214] index = [     353819901,398029005] size =     44209104
	Batch  10 pq = [   28214,   29740] index = [     398029005,442248670] size =     44219665
	Batch  11 pq = [   29740,   31191] index = [     442248670,486454836] size =     44206166
	Batch  12 pq = [   31191,   32578] index = [     486454836,530679331] size =     44224495
	Batch  13 pq = [   32578,   33908] index = [     530679331,574893186] size =     44213855
	Batch  14 pq = [   33908,   35188] index = [     574893186,619115266] size =     44222080
	Batch  15 pq = [   35188,   35778] index = [     619115266,640050531] size =     20935265
  Task number: 58
  Buffer size: 11059200
  Buffer per thread: 2
  We computed 34130650 shell quartets total.
  Whereas there are 35158305 unique shell quartets.

  ==> DiskJK: Disk-Based J/K Matrices <==

    J tasked:                  Yes
    K tasked:                  Yes
    wK tasked:                  No
    Memory [MiB]:              375
    Schwarz Cutoff:          1E-12

    OpenMP threads:              1

  Minimum eigenvalue in the overlap matrix is 2.3624795848E-04.
  Using Symmetric Orthogonalization.

  SCF Guess: Superposition of Atomic Densities via on-the-fly atomic UHF.

  ==> Iterations <==

                        Total Energy        Delta E     RMS |[F,P]|

   @RHF iter SAD:  -518.14599772456893   -5.18146e+02   0.00000e+00
   @RHF iter   1:  -518.49059623641824   -3.44599e-01   2.51220e-03 DIIS
   @RHF iter   2:  -518.74826363392810   -2.57667e-01   1.14512e-03 DIIS
   @RHF iter   3:  -518.79723369062208   -4.89701e-02   3.00528e-04 DIIS
   @RHF iter   4:  -518.80164064848236   -4.40696e-03   1.40465e-04 DIIS
   @RHF iter   5:  -518.80243045488237   -7.89806e-04   1.90118e-05 DIIS
   @RHF iter   6:  -518.80246233873788   -3.18839e-05   8.57700e-06 DIIS
   @RHF iter   7:  -518.80246851934589   -6.18061e-06   3.66583e-06 DIIS
   @RHF iter   8:  -518.80247031172314   -1.79238e-06   1.45920e-06 DIIS
   @RHF iter   9:  -518.80247070064536   -3.88922e-07   6.51275e-07 DIIS
   @RHF iter  10:  -518.80247077862293   -7.79776e-08   2.94419e-07 DIIS
   @RHF iter  11:  -518.80247079593119   -1.73083e-08   1.10297e-07 DIIS
   @RHF iter  12:  -518.80247079841354   -2.48235e-09   4.14223e-08 DIIS
   @RHF iter  13:  -518.80247079861476   -2.01226e-10   1.29241e-08 DIIS
   @RHF iter  14:  -518.80247079863364   -1.88720e-11   4.56947e-09 DIIS
   @RHF iter  15:  -518.80247079863216    1.47793e-12   1.91155e-09 DIIS
   @RHF iter  16:  -518.80247079863341   -1.25056e-12   8.63449e-10 DIIS
   @RHF iter  17:  -518.80247079863170    1.70530e-12   3.86685e-10 DIIS
   @RHF iter  18:  -518.80247079863454   -2.84217e-12   1.56508e-10 DIIS
   @RHF iter  19:  -518.80247079863136    3.18323e-12   5.98996e-11 DIIS
  Energy and wave function converged.

  ==> Post-Iterations <==

    Orbital Energies [Eh]
    ---------------------

    Doubly Occupied:

       1A    -15.600933     2A    -11.263051     3A    -11.262878
       4A    -11.230227     5A    -11.230027     6A    -11.228769
       7A    -11.224802     8A    -11.221570     9A    -11.219055
      10A    -11.216498    11A    -11.215680    12A    -11.212455
      13A    -11.211440    14A     -1.295992    15A     -1.130024
      16A     -1.089408    17A     -1.016214    18A     -1.014916
      19A     -0.993385    20A     -0.967044    21A     -0.856300
      22A     -0.839462    23A     -0.831498    24A     -0.804763
      25A     -0.748982    26A     -0.719565    27A     -0.664930
      28A     -0.644584    29A     -0.618165    30A     -0.601522
      31A     -0.596493    32A     -0.592209    33A     -0.588866
      34A     -0.584607    35A     -0.573431    36A     -0.542953
      37A     -0.516240    38A     -0.505842    39A     -0.500984
      40A     -0.495965    41A     -0.484382    42A     -0.480847
      43A     -0.477055    44A     -0.465837    45A     -0.460833
      46A     -0.372885    47A     -0.295724    48A     -0.274885

    Virtual:

      49A      0.125231    50A      0.168215    51A      0.172652
      52A      0.180757    53A      0.198862    54A      0.200866
      55A      0.215359    56A      0.219920    57A      0.236918
      58A      0.241500    59A      0.248853    60A      0.251268
      61A      0.263217    62A      0.267603    63A      0.275469
      64A      0.285999    65A      0.293159    66A      0.301871
      67A      0.308842    68A      0.336461    69A      0.383891
      70A      0.385992    71A      0.396367    72A      0.412197
      73A      0.424103    74A      0.428659    75A      0.446799
      76A      0.470822    77A      0.487453    78A      0.505817
      79A      0.518619    80A      0.586474    81A      0.591224
      82A      0.603305    83A      0.605263    84A      0.614101
      85A      0.635166    86A      0.643287    87A      0.654696
      88A      0.663674    89A      0.671817    90A      0.682670
      91A      0.694759    92A      0.717257    93A      0.725058
      94A      0.732737    95A      0.739449    96A      0.744266
      97A      0.746115    98A      0.754349    99A      0.763616
     100A      0.780449   101A      0.784121   102A      0.791555
     103A      0.794887   104A      0.840192   105A      0.849342
     106A      0.854759   107A      0.871804   108A      0.876595
     109A      0.883766   110A      0.887602   111A      0.890927
     112A      0.891623   113A      0.899666   114A      0.903351
     115A      0.913488   116A      0.918463   117A      0.924791
     118A      0.936294   119A      0.949546   120A      0.957197
     121A      0.959631   122A      0.971294   123A      0.976357
     124A      0.983513   125A      0.993547   126A      1.022487
     127A      1.036347   128A      1.047977   129A      1.077113
     130A      1.089389   131A      1.094799   132A      1.132331
     133A      1.134298   134A      1.137827   135A      1.140865
     136A      1.149489   137A      1.160502   138A      1.173190
     139A      1.199871   140A      1.222540   141A      1.231913
     142A      1.240106   143A      1.250326   144A      1.265219
     145A      1.277829   146A      1.284561   147A      1.304085
     148A      1.328051   149A      1.335281   150A      1.361751
     151A      1.369213   152A      1.382646   153A      1.405509
     154A      1.440611   155A      1.465964   156A      1.480070
     157A      1.488771   158A      1.530124   159A      1.554243
     160A      1.568432   161A      1.587442   162A      1.610852
     163A      1.635130   164A      1.651534   165A      1.676139
     166A      1.681829   167A      1.691858   168A      1.707831
     169A      1.733698   170A      1.744145   171A      1.760581
     172A      1.777137   173A      1.788125   174A      1.807431
     175A      1.822072   176A      1.844174   177A      1.858622
     178A      1.877331   179A      1.880490   180A      1.883770
     181A      1.885848   182A      1.898980   183A      1.909094
     184A      1.911689   185A      1.916851   186A      1.925358
     187A      1.942879   188A      1.946975   189A      1.948793
     190A      1.955678   191A      1.957475   192A      1.961029
     193A      1.968989   194A      1.973232   195A      1.976765
     196A      1.995454   197A      1.997411   198A      2.009481
     199A      2.018362   200A      2.043471   201A      2.049954
     202A      2.065104   203A      2.088980   204A      2.092607
     205A      2.100725   206A      2.103380   207A      2.107762
     208A      2.118359   209A      2.133563   210A      2.150966
     211A      2.157935   212A      2.163638   213A      2.176397
     214A      2.209891   215A      2.232853   216A      2.267636
     217A      2.280345   218A      2.296701   219A      2.297581
     220A      2.317819   221A      2.321843   222A      2.337646
     223A      2.341185   224A      2.349546   225A      2.368516
     226A      2.410080   227A      2.452594   228A      2.459575
     229A      2.474037   230A      2.493780   231A      2.521716
     232A      2.554786   233A      2.575880   234A      2.577552
     235A      2.584204   236A      2.602352   237A      2.617820
     238A      2.644248   239A      2.678607   240A      2.707598
     241A      2.718654   242A      2.765232   243A      2.767794
     244A      2.771716   245A      2.786451   246A      2.799020
     247A      2.805349   248A      2.826226   249A      2.836571
     250A      2.848838   251A      2.864852   252A      2.893430
     253A      2.910892   254A      2.930946   255A      2.960089
     256A      2.977966   257A      2.981603   258A      3.002930
     259A      3.055120   260A      3.062672   261A      3.105338
     262A      3.141976   263A      3.219607   264A      3.321117
     265A      3.393846   266A      3.748371   267A      3.959660

    Final Occupation by Irrep:
              A
    DOCC [    48 ]

  @RHF Final Energy:  -518.80247079863136

   => Energetics <=

    Nuclear Repulsion Energy =            748.9622996395480641
    One-Electron Energy =               -2187.5611855544862010
    Two-Electron Energy =                 919.7964151163067754
    Total Energy =                       -518.8024707986313615

Computation Completed

Properties will be evaluated at   0.000000,   0.000000,   0.000000 [a0]

Properties computed using the SCF density matrix

  Nuclear Dipole Moment: [e a0]
     X:   -13.1715      Y:   -15.6276      Z:     0.2257

  Electronic Dipole Moment: [e a0]
     X:    12.7109      Y:    16.3050      Z:    -0.1905

  Dipole Moment: [e a0]
     X:    -0.4606      Y:     0.6774      Z:     0.0352     Total:     0.8199

  Dipole Moment: [D]
     X:    -1.1707      Y:     1.7217      Z:     0.0894     Total:     2.0839

*** tstop() called on ds3 at Mon Apr 27 15:00:55 2020
Module time:
	user time   =     250.17 seconds =       4.17 minutes
	system time =     101.56 seconds =       1.69 minutes
	total time  =        346 seconds =       5.77 minutes
Total time:
	user time   =     250.17 seconds =       4.17 minutes
	system time =     101.56 seconds =       1.69 minutes
	total time  =        346 seconds =       5.77 minutes
                                     G D M A

                                 by Anthony Stone

                           version 2.2.06, 22 June 2011

               Distributed Multipoles from Gaussian wavefunctions

Starting at 15:0:55 on 27 Apr 2020

Using SCF density matrix from file ./SSI/SSI-170ALA-175TRP-1-dimer.test.15194.fchk

                         Distributed Multipole Analysis

Standard DMA

Positions and radii in angstrom
Multipole moments in atomic units, ea_0^k for rank k

C          x = -2.864964  y = -2.463623  z =  1.792310 angstrom
           Maximum rank =  0   Radius =  0.650 angstrom
                   Q00  =  -0.231306

C          x = -2.733964  y = -3.934623  z =  1.417310 angstrom
           Maximum rank =  0   Radius =  0.650 angstrom
                   Q00  =  -0.242703

H          x = -2.099964  y = -1.873623  z =  1.287310 angstrom
           Maximum rank =  0   Radius =  0.325 angstrom
                   Q00  =   0.086399

H          x = -3.849964  y = -2.086623  z =  1.514310 angstrom
           Maximum rank =  0   Radius =  0.325 angstrom
                   Q00  =   0.074761

H          x = -2.739964  y = -2.346623  z =  2.870310 angstrom
           Maximum rank =  0   Radius =  0.325 angstrom
                   Q00  =   0.077358

H          x = -3.485964  y = -4.498623  z =  1.974310 angstrom
           Maximum rank =  0   Radius =  0.325 angstrom
                   Q00  =   0.076244

H          x = -1.727934  y = -4.301963  z =  1.668250 angstrom
           Maximum rank =  0   Radius =  0.325 angstrom
                   Q00  =   0.079982

H          x = -2.949714  y = -4.070463  z =  0.347264 angstrom
           Maximum rank =  0   Radius =  0.325 angstrom
                   Q00  =   0.075291

C          x = -1.367964  y = -0.820623  z = -1.292690 angstrom
           Maximum rank =  0   Radius =  0.650 angstrom
                   Q00  =  -0.037810

C          x = -1.037964  y = -0.803623  z = -2.781690 angstrom
           Maximum rank =  0   Radius =  0.650 angstrom
                   Q00  =  -0.242263

C          x = -0.700964  y =  0.341377  z = -0.661690 angstrom
           Maximum rank =  0   Radius =  0.650 angstrom
                   Q00  =  -0.113513

C          x = -1.211964  y =  1.588377  z = -0.493690 angstrom
           Maximum rank =  0   Radius =  0.650 angstrom
                   Q00  =   0.070670

C          x =  0.658036  y =  0.397377  z = -0.213690 angstrom
           Maximum rank =  0   Radius =  0.650 angstrom
                   Q00  =  -0.058889

C          x =  0.896036  y =  1.711377  z =  0.256310 angstrom
           Maximum rank =  0   Radius =  0.650 angstrom
                   Q00  =   0.296552

C          x =  1.693036  y = -0.539623  z = -0.140690 angstrom
           Maximum rank =  0   Radius =  0.650 angstrom
                   Q00  =  -0.107085

C          x =  2.117036  y =  2.102377  z =  0.784310 angstrom
           Maximum rank =  0   Radius =  0.650 angstrom
                   Q00  =  -0.119561

C          x =  2.918036  y = -0.151623  z =  0.390310 angstrom
           Maximum rank =  0   Radius =  0.650 angstrom
                   Q00  =  -0.085045

C          x =  3.126036  y =  1.158377  z =  0.841310 angstrom
           Maximum rank =  0   Radius =  0.650 angstrom
                   Q00  =  -0.067889

N          x = -0.265964  y =  2.411377  z =  0.070310 angstrom
           Maximum rank =  0   Radius =  0.650 angstrom
                   Q00  =  -0.499462

H          x = -2.443964  y = -0.783623  z = -1.127690 angstrom
           Maximum rank =  0   Radius =  0.325 angstrom
                   Q00  =   0.075243

H          x = -0.974964  y = -1.735623  z = -0.850690 angstrom
           Maximum rank =  0   Radius =  0.325 angstrom
                   Q00  =   0.069621

H          x =  0.050036  y = -0.759623  z = -2.839690 angstrom
           Maximum rank =  0   Radius =  0.325 angstrom
                   Q00  =   0.081241

H          x = -2.223964  y =  1.882377  z = -0.752690 angstrom
           Maximum rank =  0   Radius =  0.325 angstrom
                   Q00  =   0.101617

H          x = -0.424964  y =  3.383377  z =  0.315310 angstrom
           Maximum rank =  0   Radius =  0.325 angstrom
                   Q00  =   0.216703

H          x =  1.504036  y = -1.549623  z = -0.457690 angstrom
           Maximum rank =  0   Radius =  0.325 angstrom
                   Q00  =   0.069935

H          x =  2.274036  y =  3.113377  z =  1.136310 angstrom
           Maximum rank =  0   Radius =  0.325 angstrom
                   Q00  =   0.073218

H          x =  3.724036  y = -0.870623  z =  0.470310 angstrom
           Maximum rank =  0   Radius =  0.325 angstrom
                   Q00  =   0.060358

H          x =  4.090036  y =  1.432377  z =  1.251310 angstrom
           Maximum rank =  0   Radius =  0.325 angstrom
                   Q00  =   0.064541

H          x = -1.421324  y =  0.115527  z = -3.248811 angstrom
           Maximum rank =  0   Radius =  0.325 angstrom
                   Q00  =   0.079079

H          x = -1.350334  y = -1.712533  z = -3.316768 angstrom
           Maximum rank =  0   Radius =  0.325 angstrom
                   Q00  =   0.076715

Total multipoles referred to origin at
           x =   0.000000,  y =    0.000000,  z =    0.000000 angstrom
                   Q00  =  -0.000000

Finished at 15:0:55 on 27 Apr 2020

  DMA results are available in the Python driver through the
	  variable('DMA DISTRIBUTED MULTIPOLES')
  and
	  variable('DMA TOTAL MULTIPOLES')
  commands.

    Psi4 stopped on: Monday, 27 April 2020 03:00PM
    Psi4 wall time for execution: 0:05:46.22

*** Psi4 exiting successfully. Buy a developer a beer!
