                               Psi4 1.3.2 release

  ==> Input File <==

--------------------------------------------------------------------------
import numpy as np
set {scf_type pk
basis cc-pvdz
d_convergence 10
gdma_switch   0
gdma_limit    0
gdma_origin   [ 0.0,  0.0,  0.0 ]
}
molecule test {
    units Angstrom
    0 1
    --
    0 1
    C               -1.688931178229602    -0.523726602744795    -0.047890341240528
    C               -3.029931178229602    -1.281726602744795    -0.145890341240528
    H               -0.907931178229602    -1.052726602744795    -0.597890341240528
    H               -1.796931178229602     0.473273397255205    -0.469890341240528
    H               -1.380931178229602    -0.408726602744795     0.992109658759472
    H               -3.720931178229602    -0.820726602744795     0.562109658759472
    H               -2.859471178229602    -2.324476602744795     0.160086658759472
    H               -3.491071178229602    -1.151096602744795    -1.135984341240528
    C                2.031068821770398     0.328273397255205    -0.303890341240528
    C                2.686068821770399     1.466273397255205     0.496109658759472
    H                1.121068821770398     0.002273397255205     0.201109658759472
    H                1.779068821770398     0.675273397255205    -1.306890341240528
    H                2.712068821770398    -0.518726602744795    -0.399890341240528
    H                3.625068821770398     1.714273397255206     0.002109658759472
    H                2.892668821770398     1.179323397255206     1.537731658759472
    H                2.047858821770398     2.361923397255206     0.473879658759472

}
e, wfn = energy('scf', return_wfn=True)
gdma(wfn)
dmavals = variable('DMA DISTRIBUTED MULTIPOLES')
charges = np.array(dmavals)
print(charges)
np.save('SSI-040ILE-054VAL-1-dimer.npy', np.array(charges))--------------------------------------------------------------------------

*** tstart() called on ds3
*** at Mon Apr 27 11:22:29 2020

   => Loading Basis Set <=

    Name: CC-PVDZ
    Role: ORBITAL
    Keyword: BASIS
    atoms 1-2, 9-10  entry C          line   138 file /theoryfs2/ds/metcalf/miniconda2/envs/tf2gpu/share/psi4/basis/cc-pvdz.gbs
    atoms 3-8, 11-16 entry H          line    22 file /theoryfs2/ds/metcalf/miniconda2/envs/tf2gpu/share/psi4/basis/cc-pvdz.gbs

         ---------------------------------------------------------
                                   SCF
               by Justin Turney, Rob Parrish, Andy Simmonett
                          and Daniel G. A. Smith
                              RHF Reference
                        1 Threads,    500 MiB Core
         ---------------------------------------------------------

  ==> Geometry <==

    Molecular point group: c1
    Full point group: C1

    Geometry (in Angstrom), charge = 0, multiplicity = 1:

       Center              X                  Y                   Z               Mass
    ------------   -----------------  -----------------  -----------------  -----------------
         C           -1.688931178230    -0.523726602745    -0.047890341241    12.000000000000
         C           -3.029931178230    -1.281726602745    -0.145890341241    12.000000000000
         H           -0.907931178230    -1.052726602745    -0.597890341241     1.007825032230
         H           -1.796931178230     0.473273397255    -0.469890341241     1.007825032230
         H           -1.380931178230    -0.408726602745     0.992109658759     1.007825032230
         H           -3.720931178230    -0.820726602745     0.562109658759     1.007825032230
         H           -2.859471178230    -2.324476602745     0.160086658759     1.007825032230
         H           -3.491071178230    -1.151096602745    -1.135984341241     1.007825032230
         C            2.031068821770     0.328273397255    -0.303890341241    12.000000000000
         C            2.686068821770     1.466273397255     0.496109658759    12.000000000000
         H            1.121068821770     0.002273397255     0.201109658759     1.007825032230
         H            1.779068821770     0.675273397255    -1.306890341241     1.007825032230
         H            2.712068821770    -0.518726602745    -0.399890341241     1.007825032230
         H            3.625068821770     1.714273397255     0.002109658759     1.007825032230
         H            2.892668821770     1.179323397255     1.537731658759     1.007825032230
         H            2.047858821770     2.361923397255     0.473879658759     1.007825032230

  Running in c1 symmetry.

  Rotational constants: A =      0.73178  B =      0.03974  C =      0.03884 [cm^-1]
  Rotational constants: A =  21938.26095  B =   1191.39223  C =   1164.45140 [MHz]
  Nuclear repulsion =  119.216423443565560

  Charge       = 0
  Multiplicity = 1
  Electrons    = 36
  Nalpha       = 18
  Nbeta        = 18

  ==> Algorithm <==

  SCF Algorithm Type is PK.
  DIIS enabled.
  MOM disabled.
  Fractional occupation disabled.
  Guess Type is SAD.
  Energy threshold   = 1.00e-06
  Density threshold  = 1.00e-10
  Integral threshold = 0.00e+00

  ==> Primary Basis <==

  Basis Set: CC-PVDZ
    Blend: CC-PVDZ
    Number of shells: 60
    Number of basis function: 116
    Number of Cartesian functions: 120
    Spherical Harmonics?: true
    Max angular momentum: 2

  ==> Pre-Iterations <==

   -------------------------------------------------------
    Irrep   Nso     Nmo     Nalpha   Nbeta   Ndocc  Nsocc
   -------------------------------------------------------
     A        116     116       0       0       0       0
   -------------------------------------------------------
    Total     116     116      18      18      18       0
   -------------------------------------------------------

  ==> Integral Setup <==

  Using integral reordering PK algorithm.
  Sizing the integral batches needed.
  Building batch lookup table.
   Calculation information:
      Number of atoms:                  16
      Number of AO shells:              60
      Number of primitives:            148
      Number of atomic orbitals:       120
      Number of basis functions:       116

      Integral cutoff                 1.00e-12
      Number of threads:                 1

	Batch   1 pq = [       0,    6786] index = [             0,23028291] size =     23028291
  Task number: 3
  Buffer size: 11059200
  Buffer per thread: 2
  We computed 1337850 shell quartets total.
  Whereas there are 1675365 unique shell quartets.

  ==> DiskJK: Disk-Based J/K Matrices <==

    J tasked:                  Yes
    K tasked:                  Yes
    wK tasked:                  No
    Memory [MiB]:              375
    Schwarz Cutoff:          1E-12

    OpenMP threads:              1

  Minimum eigenvalue in the overlap matrix is 6.3937278520E-03.
  Using Symmetric Orthogonalization.

  SCF Guess: Superposition of Atomic Densities via on-the-fly atomic UHF.

  ==> Iterations <==

                        Total Energy        Delta E     RMS |[F,P]|

   @RHF iter SAD:  -157.30592726333958   -1.57306e+02   0.00000e+00
   @RHF iter   1:  -158.30869265052988   -1.00277e+00   4.17149e-03 DIIS
   @RHF iter   2:  -158.44013865729940   -1.31446e-01   1.77032e-03 DIIS
   @RHF iter   3:  -158.46295753757502   -2.28189e-02   3.47988e-04 DIIS
   @RHF iter   4:  -158.46477863658112   -1.82110e-03   3.91362e-05 DIIS
   @RHF iter   5:  -158.46480300837626   -2.43718e-05   6.72580e-06 DIIS
   @RHF iter   6:  -158.46480368689561   -6.78519e-07   1.13424e-06 DIIS
   @RHF iter   7:  -158.46480370036892   -1.34733e-08   3.40754e-07 DIIS
   @RHF iter   8:  -158.46480370148970   -1.12078e-09   5.10768e-08 DIIS
   @RHF iter   9:  -158.46480370153748   -4.77769e-11   1.04603e-08 DIIS
   @RHF iter  10:  -158.46480370153893   -1.44951e-12   2.55004e-09 DIIS
   @RHF iter  11:  -158.46480370153955   -6.25278e-13   5.42076e-10 DIIS
   @RHF iter  12:  -158.46480370153964   -8.52651e-14   1.73061e-10 DIIS
   @RHF iter  13:  -158.46480370153949    1.42109e-13   3.51584e-11 DIIS
  Energy and wave function converged.

  ==> Post-Iterations <==

    Orbital Energies [Eh]
    ---------------------

    Doubly Occupied:

       1A    -11.221011     2A    -11.219078     3A    -11.217658
       4A    -11.216117     5A     -1.015733     6A     -1.013841
       7A     -0.840065     8A     -0.834398     9A     -0.601716
      10A     -0.596164    11A     -0.594390    12A     -0.592389
      13A     -0.502538    14A     -0.498305    15A     -0.489414
      16A     -0.485684    17A     -0.484034    18A     -0.477436

    Virtual:

      19A      0.176832    20A      0.192649    21A      0.225068
      22A      0.238071    23A      0.244067    24A      0.258173
      25A      0.261581    26A      0.276347    27A      0.283612
      28A      0.288267    29A      0.293416    30A      0.326410
      31A      0.398124    32A      0.408796    33A      0.579909
      34A      0.590246    35A      0.597518    36A      0.603847
      37A      0.610420    38A      0.637995    39A      0.678383
      40A      0.683106    41A      0.716674    42A      0.744673
      43A      0.840780    44A      0.877995    45A      0.885783
      46A      0.890193    47A      0.892604    48A      0.894701
      49A      0.902008    50A      0.905764    51A      0.909742
      52A      0.916628    53A      0.928068    54A      0.944323
      55A      0.964794    56A      1.011803    57A      1.119987
      58A      1.123801    59A      1.129202    60A      1.143279
      61A      1.226258    62A      1.270199    63A      1.467014
      64A      1.470154    65A      1.482069    66A      1.483840
      67A      1.575231    68A      1.579745    69A      1.670400
      70A      1.683432    71A      1.694721    72A      1.696618
      73A      1.849148    74A      1.864852    75A      1.866226
      76A      1.880788    77A      1.886993    78A      1.909577
      79A      1.923584    80A      1.936767    81A      1.940313
      82A      1.943698    83A      1.946493    84A      1.950357
      85A      1.956631    86A      1.961245    87A      1.981626
      88A      2.027931    89A      2.088478    90A      2.109551
      91A      2.131650    92A      2.135083    93A      2.295380
      94A      2.303567    95A      2.311786    96A      2.325222
      97A      2.428346    98A      2.446528    99A      2.463532
     100A      2.474332   101A      2.552017   102A      2.554884
     103A      2.580174   104A      2.587568   105A      2.759268
     106A      2.762015   107A      2.774790   108A      2.796091
     109A      2.833704   110A      2.847151   111A      2.852197
     112A      2.859230   113A      2.925617   114A      2.947269
     115A      2.956038   116A      2.978029

    Final Occupation by Irrep:
              A
    DOCC [    18 ]

  @RHF Final Energy:  -158.46480370153949

   => Energetics <=

    Nuclear Repulsion Energy =            119.2164234435655601
    One-Electron Energy =                -447.5625086918332727
    Two-Electron Energy =                 169.8812815467282462
    Total Energy =                       -158.4648037015394948

Computation Completed

Properties will be evaluated at   0.000000,   0.000000,   0.000000 [a0]

Properties computed using the SCF density matrix

  Nuclear Dipole Moment: [e a0]
     X:     0.0193      Y:     0.1217      Z:     0.0174

  Electronic Dipole Moment: [e a0]
     X:    -0.0355      Y:    -0.1146      Z:    -0.0186

  Dipole Moment: [e a0]
     X:    -0.0162      Y:     0.0071      Z:    -0.0011     Total:     0.0177

  Dipole Moment: [D]
     X:    -0.0412      Y:     0.0182      Z:    -0.0029     Total:     0.0451

*** tstop() called on ds3 at Mon Apr 27 11:23:39 2020
Module time:
	user time   =       6.76 seconds =       0.11 minutes
	system time =       2.50 seconds =       0.04 minutes
	total time  =         70 seconds =       1.17 minutes
Total time:
	user time   =       6.76 seconds =       0.11 minutes
	system time =       2.50 seconds =       0.04 minutes
	total time  =         70 seconds =       1.17 minutes
                                     G D M A

                                 by Anthony Stone

                           version 2.2.06, 22 June 2011

               Distributed Multipoles from Gaussian wavefunctions

Starting at 11:23:39 on 27 Apr 2020

Using SCF density matrix from file ./SSI/SSI-040ILE-054VAL-1-dimer.test.2939.fchk

                         Distributed Multipole Analysis

Standard DMA

Positions and radii in angstrom
Multipole moments in atomic units, ea_0^k for rank k

C          x = -1.688931  y = -0.523727  z = -0.047890 angstrom
           Maximum rank =  0   Radius =  0.650 angstrom
                   Q00  =  -0.248022

C          x = -3.029931  y = -1.281727  z = -0.145890 angstrom
           Maximum rank =  0   Radius =  0.650 angstrom
                   Q00  =  -0.207383

H          x = -0.907931  y = -1.052727  z = -0.597890 angstrom
           Maximum rank =  0   Radius =  0.325 angstrom
                   Q00  =   0.079800

H          x = -1.796931  y =  0.473273  z = -0.469890 angstrom
           Maximum rank =  0   Radius =  0.325 angstrom
                   Q00  =   0.080211

H          x = -1.380931  y = -0.408727  z =  0.992110 angstrom
           Maximum rank =  0   Radius =  0.325 angstrom
                   Q00  =   0.077934

H          x = -3.720931  y = -0.820727  z =  0.562110 angstrom
           Maximum rank =  0   Radius =  0.325 angstrom
                   Q00  =   0.077071

H          x = -2.859471  y = -2.324477  z =  0.160087 angstrom
           Maximum rank =  0   Radius =  0.325 angstrom
                   Q00  =   0.069688

H          x = -3.491071  y = -1.151097  z = -1.135984 angstrom
           Maximum rank =  0   Radius =  0.325 angstrom
                   Q00  =   0.072366

C          x =  2.031069  y =  0.328273  z = -0.303890 angstrom
           Maximum rank =  0   Radius =  0.650 angstrom
                   Q00  =  -0.251334

C          x =  2.686069  y =  1.466273  z =  0.496110 angstrom
           Maximum rank =  0   Radius =  0.650 angstrom
                   Q00  =  -0.230328

H          x =  1.121069  y =  0.002273  z =  0.201110 angstrom
           Maximum rank =  0   Radius =  0.325 angstrom
                   Q00  =   0.084169

H          x =  1.779069  y =  0.675273  z = -1.306890 angstrom
           Maximum rank =  0   Radius =  0.325 angstrom
                   Q00  =   0.079519

H          x =  2.712069  y = -0.518727  z = -0.399890 angstrom
           Maximum rank =  0   Radius =  0.325 angstrom
                   Q00  =   0.078890

H          x =  3.625069  y =  1.714273  z =  0.002110 angstrom
           Maximum rank =  0   Radius =  0.325 angstrom
                   Q00  =   0.076873

H          x =  2.892669  y =  1.179323  z =  1.537732 angstrom
           Maximum rank =  0   Radius =  0.325 angstrom
                   Q00  =   0.081535

H          x =  2.047859  y =  2.361923  z =  0.473880 angstrom
           Maximum rank =  0   Radius =  0.325 angstrom
                   Q00  =   0.079010

Total multipoles referred to origin at
           x =   0.000000,  y =    0.000000,  z =    0.000000 angstrom
                   Q00  =  -0.000000

Finished at 11:23:39 on 27 Apr 2020

  DMA results are available in the Python driver through the
	  variable('DMA DISTRIBUTED MULTIPOLES')
  and
	  variable('DMA TOTAL MULTIPOLES')
  commands.

    Psi4 stopped on: Monday, 27 April 2020 11:23AM
    Psi4 wall time for execution: 0:01:09.86

*** Psi4 exiting successfully. Buy a developer a beer!
