                               Psi4 1.3.2 release

  ==> Input File <==

--------------------------------------------------------------------------
import numpy as np
set {scf_type pk
basis cc-pvdz
d_convergence 10
gdma_switch   0
gdma_limit    0
gdma_origin   [ 0.0,  0.0,  0.0 ]
}
molecule test {
    units Angstrom
    0 1
    --
    0 1
    C                0.199771885019408     2.709025224561542    -2.399098337625869
    C                0.821771885019408    -0.580974775438458    -0.608098337625870
    C                1.274771885019408    -1.386974775438458    -1.644098337625870
    C                0.469771885019408     0.743025224561542    -0.855098337625870
    C                0.564771885019408     1.272025224561542    -2.139098337625870
    C                1.382771885019408    -0.864974775438458    -2.926098337625870
    C                1.033771885019408     0.460025224561542    -3.170098337625870
    H                0.771771885019408    -0.981974775438458     0.391901662374130
    H                1.534771885019408    -2.417974775438458    -1.457098337625870
    H                0.131771885019408     1.362025224561542    -0.035098337625870
    H                1.739771885019408    -1.487974775438458    -3.734098337625869
    H                0.959771885019408     3.139025224561542    -3.052098337625869
    H                0.235771885019408     3.258025224561541    -1.458098337625870
    H                1.140771885019408     0.855025224561542    -4.171098337625870
    H               -0.786608114980592     2.853722224561542    -2.863991337625869
    C               -1.233228114980592    -1.455974775438458     4.238901662374130
    C               -1.257228114980592    -0.595974775438458     2.990901662374130
    O               -1.161228114980592    -1.095974775438458     1.873901662374130
    N               -1.398228114980592     0.707025224561542     3.171901662374130
    H               -2.259228114980592    -1.560974775438458     4.590901662374131
    H               -0.644228114980592    -0.949974775438458     4.999901662374131
    H               -1.455228114980592     1.302025224561542     2.360901662374130
    H               -1.487228114980592     1.088025224561542     4.100901662374131
    H               -0.804788114980592    -2.451585675438458     4.051280662374130

}
e, wfn = energy('scf', return_wfn=True)
gdma(wfn)
dmavals = variable('DMA DISTRIBUTED MULTIPOLES')
charges = np.array(dmavals)
print(charges)
np.save('SSI-127PHE-237ASN-1-dimer.npy', np.array(charges))--------------------------------------------------------------------------

*** tstart() called on ds3
*** at Sun Apr 26 18:49:21 2020

   => Loading Basis Set <=

    Name: CC-PVDZ
    Role: ORBITAL
    Keyword: BASIS
    atoms 1-7, 16-17  entry C          line   138 file /theoryfs2/ds/metcalf/miniconda2/envs/tf2gpu/share/psi4/basis/cc-pvdz.gbs
    atoms 8-15, 20-24 entry H          line    22 file /theoryfs2/ds/metcalf/miniconda2/envs/tf2gpu/share/psi4/basis/cc-pvdz.gbs
    atoms 18          entry O          line   198 file /theoryfs2/ds/metcalf/miniconda2/envs/tf2gpu/share/psi4/basis/cc-pvdz.gbs
    atoms 19          entry N          line   168 file /theoryfs2/ds/metcalf/miniconda2/envs/tf2gpu/share/psi4/basis/cc-pvdz.gbs

         ---------------------------------------------------------
                                   SCF
               by Justin Turney, Rob Parrish, Andy Simmonett
                          and Daniel G. A. Smith
                              RHF Reference
                        1 Threads,    500 MiB Core
         ---------------------------------------------------------

  ==> Geometry <==

    Molecular point group: c1
    Full point group: C1

    Geometry (in Angstrom), charge = 0, multiplicity = 1:

       Center              X                  Y                   Z               Mass
    ------------   -----------------  -----------------  -----------------  -----------------
         C            0.199771885019     2.709025224562    -2.399098337626    12.000000000000
         C            0.821771885019    -0.580974775438    -0.608098337626    12.000000000000
         C            1.274771885019    -1.386974775438    -1.644098337626    12.000000000000
         C            0.469771885019     0.743025224562    -0.855098337626    12.000000000000
         C            0.564771885019     1.272025224562    -2.139098337626    12.000000000000
         C            1.382771885019    -0.864974775438    -2.926098337626    12.000000000000
         C            1.033771885019     0.460025224562    -3.170098337626    12.000000000000
         H            0.771771885019    -0.981974775438     0.391901662374     1.007825032230
         H            1.534771885019    -2.417974775438    -1.457098337626     1.007825032230
         H            0.131771885019     1.362025224562    -0.035098337626     1.007825032230
         H            1.739771885019    -1.487974775438    -3.734098337626     1.007825032230
         H            0.959771885019     3.139025224562    -3.052098337626     1.007825032230
         H            0.235771885019     3.258025224562    -1.458098337626     1.007825032230
         H            1.140771885019     0.855025224562    -4.171098337626     1.007825032230
         H           -0.786608114981     2.853722224562    -2.863991337626     1.007825032230
         C           -1.233228114981    -1.455974775438     4.238901662374    12.000000000000
         C           -1.257228114981    -0.595974775438     2.990901662374    12.000000000000
         O           -1.161228114981    -1.095974775438     1.873901662374    15.994914619570
         N           -1.398228114981     0.707025224562     3.171901662374    14.003074004430
         H           -2.259228114981    -1.560974775438     4.590901662374     1.007825032230
         H           -0.644228114981    -0.949974775438     4.999901662374     1.007825032230
         H           -1.455228114981     1.302025224562     2.360901662374     1.007825032230
         H           -1.487228114981     1.088025224562     4.100901662374     1.007825032230
         H           -0.804788114981    -2.451585675438     4.051280662374     1.007825032230

  Running in c1 symmetry.

  Rotational constants: A =      0.06747  B =      0.01344  C =      0.01142 [cm^-1]
  Rotational constants: A =   2022.84594  B =    403.03154  C =    342.45349 [MHz]
  Nuclear repulsion =  545.011198048247820

  Charge       = 0
  Multiplicity = 1
  Electrons    = 82
  Nalpha       = 41
  Nbeta        = 41

  ==> Algorithm <==

  SCF Algorithm Type is PK.
  DIIS enabled.
  MOM disabled.
  Fractional occupation disabled.
  Guess Type is SAD.
  Energy threshold   = 1.00e-06
  Density threshold  = 1.00e-10
  Integral threshold = 0.00e+00

  ==> Primary Basis <==

  Basis Set: CC-PVDZ
    Blend: CC-PVDZ
    Number of shells: 105
    Number of basis function: 219
    Number of Cartesian functions: 230
    Spherical Harmonics?: true
    Max angular momentum: 2

  ==> Pre-Iterations <==

   -------------------------------------------------------
    Irrep   Nso     Nmo     Nalpha   Nbeta   Ndocc  Nsocc
   -------------------------------------------------------
     A        219     219       0       0       0       0
   -------------------------------------------------------
    Total     219     219      41      41      41       0
   -------------------------------------------------------

  ==> Integral Setup <==

  Using integral reordering PK algorithm.
  Sizing the integral batches needed.
  Building batch lookup table.
   Calculation information:
      Number of atoms:                  24
      Number of AO shells:             105
      Number of primitives:            307
      Number of atomic orbitals:       230
      Number of basis functions:       219

      Integral cutoff                 1.00e-12
      Number of threads:                 1

	Batch   1 pq = [       0,    9405] index = [             0,44231715] size =     44231715
	Batch   2 pq = [    9405,   13301] index = [      44231715,88464951] size =     44233236
	Batch   3 pq = [   13301,   16290] index = [      88464951,132690195] size =     44225244
	Batch   4 pq = [   16290,   18810] index = [     132690195,176917455] size =     44227260
	Batch   5 pq = [   18810,   21030] index = [     176917455,221140965] size =     44223510
	Batch   6 pq = [   21030,   23037] index = [     221140965,265363203] size =     44222238
	Batch   7 pq = [   23037,   24090] index = [     265363203,290176095] size =     24812892
  Task number: 27
  Buffer size: 11059200
  Buffer per thread: 2
  We computed 11524805 shell quartets total.
  Whereas there are 15487395 unique shell quartets.

  ==> DiskJK: Disk-Based J/K Matrices <==

    J tasked:                  Yes
    K tasked:                  Yes
    wK tasked:                  No
    Memory [MiB]:              375
    Schwarz Cutoff:          1E-12

    OpenMP threads:              1

  Minimum eigenvalue in the overlap matrix is 3.0014979064E-04.
  Using Symmetric Orthogonalization.

  SCF Guess: Superposition of Atomic Densities via on-the-fly atomic UHF.

  ==> Iterations <==

                        Total Energy        Delta E     RMS |[F,P]|

   @RHF iter SAD:  -476.48009311621286   -4.76480e+02   0.00000e+00
   @RHF iter   1:  -477.45671634357888   -9.76623e-01   3.22127e-03 DIIS
   @RHF iter   2:  -477.69235928138528   -2.35643e-01   1.72117e-03 DIIS
   @RHF iter   3:  -477.74895946805776   -5.66002e-02   3.96893e-04 DIIS
   @RHF iter   4:  -477.75328282893128   -4.32336e-03   1.57202e-04 DIIS
   @RHF iter   5:  -477.75398088497610   -6.98056e-04   2.36515e-05 DIIS
   @RHF iter   6:  -477.75401321439335   -3.23294e-05   1.09665e-05 DIIS
   @RHF iter   7:  -477.75401925528263   -6.04089e-06   4.15225e-06 DIIS
   @RHF iter   8:  -477.75402044471434   -1.18943e-06   1.59872e-06 DIIS
   @RHF iter   9:  -477.75402061407397   -1.69360e-07   6.29358e-07 DIIS
   @RHF iter  10:  -477.75402063366886   -1.95949e-08   1.80372e-07 DIIS
   @RHF iter  11:  -477.75402063607709   -2.40823e-09   5.84480e-08 DIIS
   @RHF iter  12:  -477.75402063630719   -2.30102e-10   2.53314e-08 DIIS
   @RHF iter  13:  -477.75402063637864   -7.14522e-11   1.22638e-08 DIIS
   @RHF iter  14:  -477.75402063640064   -2.19984e-11   5.44215e-09 DIIS
   @RHF iter  15:  -477.75402063640234   -1.70530e-12   2.09195e-09 DIIS
   @RHF iter  16:  -477.75402063640314   -7.95808e-13   5.62575e-10 DIIS
   @RHF iter  17:  -477.75402063639945    3.69482e-12   2.10773e-10 DIIS
   @RHF iter  18:  -477.75402063639945    0.00000e+00   6.78808e-11 DIIS
  Energy and wave function converged.

  ==> Post-Iterations <==

    Orbital Energies [Eh]
    ---------------------

    Doubly Occupied:

       1A    -20.508891     2A    -15.594005     3A    -11.352091
       4A    -11.245908     5A    -11.227392     6A    -11.221156
       7A    -11.220735     8A    -11.215833     9A    -11.215013
      10A    -11.213543    11A    -11.212368    12A     -1.374139
      13A     -1.223920    14A     -1.138252    15A     -1.031473
      16A     -1.004881    17A     -0.995417    18A     -0.919791
      19A     -0.809642    20A     -0.805115    21A     -0.780449
      22A     -0.734359    23A     -0.676782    24A     -0.659058
      25A     -0.620145    26A     -0.617495    27A     -0.613536
      28A     -0.576465    29A     -0.567816    30A     -0.565161
      31A     -0.561139    32A     -0.548992    33A     -0.527936
      34A     -0.524715    35A     -0.473308    36A     -0.469977
      37A     -0.465746    38A     -0.413995    39A     -0.409283
      40A     -0.315829    41A     -0.307860

    Virtual:

      42A      0.151841    43A      0.155252    44A      0.156495
      45A      0.186590    46A      0.196956    47A      0.207576
      48A      0.216846    49A      0.223680    50A      0.248500
      51A      0.254491    52A      0.269832    53A      0.273594
      54A      0.274770    55A      0.284697    56A      0.306387
      57A      0.337010    58A      0.376206    59A      0.382516
      60A      0.396165    61A      0.468118    62A      0.473019
      63A      0.480970    64A      0.496616    65A      0.519564
      66A      0.545939    67A      0.575939    68A      0.609929
      69A      0.630256    70A      0.640664    71A      0.645258
      72A      0.689971    73A      0.700618    74A      0.704317
      75A      0.710292    76A      0.722725    77A      0.731360
      78A      0.740069    79A      0.742858    80A      0.755781
      81A      0.756052    82A      0.762129    83A      0.774618
      84A      0.782781    85A      0.788648    86A      0.799111
      87A      0.839775    88A      0.845821    89A      0.856548
      90A      0.863871    91A      0.874721    92A      0.882812
      93A      0.885584    94A      0.893604    95A      0.905136
      96A      0.918792    97A      0.926042    98A      0.932311
      99A      0.943955   100A      0.947856   101A      0.966595
     102A      0.997412   103A      1.002169   104A      1.021190
     105A      1.035906   106A      1.060491   107A      1.078048
     108A      1.127348   109A      1.142842   110A      1.146990
     111A      1.169332   112A      1.176106   113A      1.191099
     114A      1.207072   115A      1.255498   116A      1.256845
     117A      1.266108   118A      1.273535   119A      1.313980
     120A      1.318533   121A      1.328495   122A      1.335186
     123A      1.347280   124A      1.362993   125A      1.391214
     126A      1.400252   127A      1.429723   128A      1.450618
     129A      1.471102   130A      1.495191   131A      1.525872
     132A      1.555511   133A      1.577689   134A      1.617759
     135A      1.650161   136A      1.652331   137A      1.691341
     138A      1.707016   139A      1.717861   140A      1.750173
     141A      1.763619   142A      1.776921   143A      1.800547
     144A      1.809512   145A      1.825630   146A      1.852665
     147A      1.873464   148A      1.877191   149A      1.892820
     150A      1.901170   151A      1.909852   152A      1.913548
     153A      1.920036   154A      1.933702   155A      1.950061
     156A      1.954136   157A      1.956169   158A      1.969653
     159A      1.973830   160A      1.991175   161A      1.997528
     162A      2.021960   163A      2.031898   164A      2.052805
     165A      2.068842   166A      2.079173   167A      2.086835
     168A      2.127224   169A      2.155546   170A      2.164012
     171A      2.181587   172A      2.185239   173A      2.191509
     174A      2.207471   175A      2.215080   176A      2.256515
     177A      2.261852   178A      2.294802   179A      2.313677
     180A      2.320966   181A      2.337228   182A      2.348126
     183A      2.416221   184A      2.448566   185A      2.476991
     186A      2.491116   187A      2.491348   188A      2.526927
     189A      2.537368   190A      2.553139   191A      2.585805
     192A      2.615897   193A      2.637206   194A      2.710913
     195A      2.744166   196A      2.757229   197A      2.767831
     198A      2.779416   199A      2.791515   200A      2.806979
     201A      2.837723   202A      2.862524   203A      2.870553
     204A      2.881769   205A      2.983154   206A      3.001505
     207A      3.026298   208A      3.041335   209A      3.091086
     210A      3.137671   211A      3.175249   212A      3.221109
     213A      3.287826   214A      3.318853   215A      3.507723
     216A      3.532496   217A      3.863121   218A      3.925161
     219A      3.989692

    Final Occupation by Irrep:
              A
    DOCC [    41 ]

  @RHF Final Energy:  -477.75402063639945

   => Energetics <=

    Nuclear Repulsion Energy =            545.0111980482478202
    One-Electron Energy =               -1729.6112164330215819
    Two-Electron Energy =                 706.8459977483742023
    Total Energy =                       -477.7540206363994457

Computation Completed

Properties will be evaluated at   0.000000,   0.000000,   0.000000 [a0]

Properties computed using the SCF density matrix

  Nuclear Dipole Moment: [e a0]
     X:    -0.8667      Y:     3.7495      Z:     3.4911

  Electronic Dipole Moment: [e a0]
     X:     0.5485      Y:    -2.8184      Z:    -1.8701

  Dipole Moment: [e a0]
     X:    -0.3183      Y:     0.9311      Z:     1.6211     Total:     1.8964

  Dipole Moment: [D]
     X:    -0.8089      Y:     2.3667      Z:     4.1204     Total:     4.8201

*** tstop() called on ds3 at Sun Apr 26 18:51:35 2020
Module time:
	user time   =      91.77 seconds =       1.53 minutes
	system time =      47.89 seconds =       0.80 minutes
	total time  =        134 seconds =       2.23 minutes
Total time:
	user time   =      91.77 seconds =       1.53 minutes
	system time =      47.89 seconds =       0.80 minutes
	total time  =        134 seconds =       2.23 minutes
                                     G D M A

                                 by Anthony Stone

                           version 2.2.06, 22 June 2011

               Distributed Multipoles from Gaussian wavefunctions

Starting at 18:51:35 on 26 Apr 2020

Using SCF density matrix from file ./SSI/SSI-127PHE-237ASN-1-dimer.test.19274.fchk

                         Distributed Multipole Analysis

Standard DMA

Positions and radii in angstrom
Multipole moments in atomic units, ea_0^k for rank k

C          x =  0.199772  y =  2.709025  z = -2.399098 angstrom
           Maximum rank =  0   Radius =  0.650 angstrom
                   Q00  =  -0.201633

C          x =  0.821772  y = -0.580975  z = -0.608098 angstrom
           Maximum rank =  0   Radius =  0.650 angstrom
                   Q00  =  -0.033729

C          x =  1.274772  y = -1.386975  z = -1.644098 angstrom
           Maximum rank =  0   Radius =  0.650 angstrom
                   Q00  =  -0.082917

C          x =  0.469772  y =  0.743025  z = -0.855098 angstrom
           Maximum rank =  0   Radius =  0.650 angstrom
                   Q00  =  -0.079321

C          x =  0.564772  y =  1.272025  z = -2.139098 angstrom
           Maximum rank =  0   Radius =  0.650 angstrom
                   Q00  =  -0.103266

C          x =  1.382772  y = -0.864975  z = -2.926098 angstrom
           Maximum rank =  0   Radius =  0.650 angstrom
                   Q00  =  -0.077111

C          x =  1.033772  y =  0.460025  z = -3.170098 angstrom
           Maximum rank =  0   Radius =  0.650 angstrom
                   Q00  =   0.002403

H          x =  0.771772  y = -0.981975  z =  0.391902 angstrom
           Maximum rank =  0   Radius =  0.325 angstrom
                   Q00  =   0.078507

H          x =  1.534772  y = -2.417975  z = -1.457098 angstrom
           Maximum rank =  0   Radius =  0.325 angstrom
                   Q00  =   0.055895

H          x =  0.131772  y =  1.362025  z = -0.035098 angstrom
           Maximum rank =  0   Radius =  0.325 angstrom
                   Q00  =   0.033592

H          x =  1.739772  y = -1.487975  z = -3.734098 angstrom
           Maximum rank =  0   Radius =  0.325 angstrom
                   Q00  =   0.059167

H          x =  0.959772  y =  3.139025  z = -3.052098 angstrom
           Maximum rank =  0   Radius =  0.325 angstrom
                   Q00  =   0.095814

H          x =  0.235772  y =  3.258025  z = -1.458098 angstrom
           Maximum rank =  0   Radius =  0.325 angstrom
                   Q00  =   0.090716

H          x =  1.140772  y =  0.855025  z = -4.171098 angstrom
           Maximum rank =  0   Radius =  0.325 angstrom
                   Q00  =   0.049133

H          x = -0.786608  y =  2.853722  z = -2.863991 angstrom
           Maximum rank =  0   Radius =  0.325 angstrom
                   Q00  =   0.102937

C          x = -1.233228  y = -1.455975  z =  4.238902 angstrom
           Maximum rank =  0   Radius =  0.650 angstrom
                   Q00  =  -0.258191

C          x = -1.257228  y = -0.595975  z =  2.990902 angstrom
           Maximum rank =  0   Radius =  0.650 angstrom
                   Q00  =   0.813579

O          x = -1.161228  y = -1.095975  z =  1.873902 angstrom
           Maximum rank =  0   Radius =  0.650 angstrom
                   Q00  =  -0.789626

N          x = -1.398228  y =  0.707025  z =  3.171902 angstrom
           Maximum rank =  0   Radius =  0.650 angstrom
                   Q00  =  -0.529510

H          x = -2.259228  y = -1.560975  z =  4.590902 angstrom
           Maximum rank =  0   Radius =  0.325 angstrom
                   Q00  =   0.122778

H          x = -0.644228  y = -0.949975  z =  4.999902 angstrom
           Maximum rank =  0   Radius =  0.325 angstrom
                   Q00  =   0.087023

H          x = -1.455228  y =  1.302025  z =  2.360902 angstrom
           Maximum rank =  0   Radius =  0.325 angstrom
                   Q00  =   0.225519

H          x = -1.487228  y =  1.088025  z =  4.100902 angstrom
           Maximum rank =  0   Radius =  0.325 angstrom
                   Q00  =   0.206237

H          x = -0.804788  y = -2.451586  z =  4.051281 angstrom
           Maximum rank =  0   Radius =  0.325 angstrom
                   Q00  =   0.132003

Total multipoles referred to origin at
           x =   0.000000,  y =    0.000000,  z =    0.000000 angstrom
                   Q00  =  -0.000000

Finished at 18:51:35 on 26 Apr 2020

  DMA results are available in the Python driver through the
	  variable('DMA DISTRIBUTED MULTIPOLES')
  and
	  variable('DMA TOTAL MULTIPOLES')
  commands.

    Psi4 stopped on: Sunday, 26 April 2020 06:51PM
    Psi4 wall time for execution: 0:02:14.35

*** Psi4 exiting successfully. Buy a developer a beer!
