                               Psi4 1.3.2 release

  ==> Input File <==

--------------------------------------------------------------------------
import numpy as np
set {scf_type pk
basis cc-pvdz
d_convergence 10
gdma_switch   0
gdma_limit    0
gdma_origin   [ 0.0,  0.0,  0.0 ]
}
molecule test {
    units Angstrom
    0 1
    --
    0 1
    C                2.233810512871922     2.677023041958644     0.691404985298350
    C                3.092810512871922     3.448023041958645     1.702404985298350
    H                2.578810512871923     2.869023041958644    -0.324595014701650
    H                2.276810512871922     1.606023041958644     0.887404985298350
    H                1.188810512871922     2.974023041958645     0.768404985298350
    H                2.701810512871922     3.276023041958644     2.707404985298350
    H                3.069230512871922     4.527660041958645     1.493050985298350
    H                4.129350512871922     3.081931041958644     1.662924985298350
    C               -0.296189487128077     0.163023041958644    -2.454595014701650
    C               -0.501189487128077     0.084023041958644     0.048404985298350
    C               -0.657189487128077    -0.545976958041356    -1.186595014701650
    C               -0.821189487128077    -0.587976958041356     1.232404985298350
    C               -1.299189487128077    -1.885976958041355     1.174404985298350
    C               -1.132189487128077    -1.851976958041355    -1.231595014701650
    C               -1.453189487128077    -2.510976958041356    -0.056595014701650
    H               -0.135189487128077     1.099023041958644     0.093404985298350
    H               -0.706189487128077    -0.099976958041356     2.186404985298350
    H                0.021810512871923    -0.580976958041356    -3.184595014701650
    H                0.572810512871923     0.788023041958644    -2.262595014701650
    H               -1.564189487128077    -2.404976958041355     2.083404985298350
    H               -1.259189487128078    -2.353976958041356    -2.179595014701650
    H               -1.842189487128077    -3.518976958041355    -0.091595014701650
    H               -1.105709487128077     0.772490041958644    -2.882656014701650

}
e, wfn = energy('scf', return_wfn=True)
gdma(wfn)
dmavals = variable('DMA DISTRIBUTED MULTIPOLES')
charges = np.array(dmavals)
print(charges)
np.save('SSI-132ILE-135PHE-1-dimer.npy', np.array(charges))--------------------------------------------------------------------------

*** tstart() called on ds3
*** at Mon Apr 27 12:47:21 2020

   => Loading Basis Set <=

    Name: CC-PVDZ
    Role: ORBITAL
    Keyword: BASIS
    atoms 1-2, 9-15  entry C          line   138 file /theoryfs2/ds/metcalf/miniconda2/envs/tf2gpu/share/psi4/basis/cc-pvdz.gbs
    atoms 3-8, 16-23 entry H          line    22 file /theoryfs2/ds/metcalf/miniconda2/envs/tf2gpu/share/psi4/basis/cc-pvdz.gbs

         ---------------------------------------------------------
                                   SCF
               by Justin Turney, Rob Parrish, Andy Simmonett
                          and Daniel G. A. Smith
                              RHF Reference
                        1 Threads,    500 MiB Core
         ---------------------------------------------------------

  ==> Geometry <==

    Molecular point group: c1
    Full point group: C1

    Geometry (in Angstrom), charge = 0, multiplicity = 1:

       Center              X                  Y                   Z               Mass
    ------------   -----------------  -----------------  -----------------  -----------------
         C            2.233810512872     2.677023041959     0.691404985298    12.000000000000
         C            3.092810512872     3.448023041959     1.702404985298    12.000000000000
         H            2.578810512872     2.869023041959    -0.324595014702     1.007825032230
         H            2.276810512872     1.606023041959     0.887404985298     1.007825032230
         H            1.188810512872     2.974023041959     0.768404985298     1.007825032230
         H            2.701810512872     3.276023041959     2.707404985298     1.007825032230
         H            3.069230512872     4.527660041959     1.493050985298     1.007825032230
         H            4.129350512872     3.081931041959     1.662924985298     1.007825032230
         C           -0.296189487128     0.163023041959    -2.454595014702    12.000000000000
         C           -0.501189487128     0.084023041959     0.048404985298    12.000000000000
         C           -0.657189487128    -0.545976958041    -1.186595014702    12.000000000000
         C           -0.821189487128    -0.587976958041     1.232404985298    12.000000000000
         C           -1.299189487128    -1.885976958041     1.174404985298    12.000000000000
         C           -1.132189487128    -1.851976958041    -1.231595014702    12.000000000000
         C           -1.453189487128    -2.510976958041    -0.056595014702    12.000000000000
         H           -0.135189487128     1.099023041959     0.093404985298     1.007825032230
         H           -0.706189487128    -0.099976958041     2.186404985298     1.007825032230
         H            0.021810512872    -0.580976958041    -3.184595014702     1.007825032230
         H            0.572810512872     0.788023041959    -2.262595014702     1.007825032230
         H           -1.564189487128    -2.404976958041     2.083404985298     1.007825032230
         H           -1.259189487128    -2.353976958041    -2.179595014702     1.007825032230
         H           -1.842189487128    -3.518976958041    -0.091595014702     1.007825032230
         H           -1.105709487128     0.772490041959    -2.882656014702     1.007825032230

  Running in c1 symmetry.

  Rotational constants: A =      0.08022  B =      0.02023  C =      0.01664 [cm^-1]
  Rotational constants: A =   2404.99723  B =    606.49199  C =    498.89756 [MHz]
  Nuclear repulsion =  398.083911404075934

  Charge       = 0
  Multiplicity = 1
  Electrons    = 68
  Nalpha       = 34
  Nbeta        = 34

  ==> Algorithm <==

  SCF Algorithm Type is PK.
  DIIS enabled.
  MOM disabled.
  Fractional occupation disabled.
  Guess Type is SAD.
  Energy threshold   = 1.00e-06
  Density threshold  = 1.00e-10
  Integral threshold = 0.00e+00

  ==> Primary Basis <==

  Basis Set: CC-PVDZ
    Blend: CC-PVDZ
    Number of shells: 96
    Number of basis function: 196
    Number of Cartesian functions: 205
    Spherical Harmonics?: true
    Max angular momentum: 2

  ==> Pre-Iterations <==

   -------------------------------------------------------
    Irrep   Nso     Nmo     Nalpha   Nbeta   Ndocc  Nsocc
   -------------------------------------------------------
     A        196     196       0       0       0       0
   -------------------------------------------------------
    Total     196     196      34      34      34       0
   -------------------------------------------------------

  ==> Integral Setup <==

  Using integral reordering PK algorithm.
  Sizing the integral batches needed.
  Building batch lookup table.
   Calculation information:
      Number of atoms:                  23
      Number of AO shells:              96
      Number of primitives:            268
      Number of atomic orbitals:       205
      Number of basis functions:       196

      Integral cutoff                 1.00e-12
      Number of threads:                 1

	Batch   1 pq = [       0,    9405] index = [             0,44231715] size =     44231715
	Batch   2 pq = [    9405,   13301] index = [      44231715,88464951] size =     44233236
	Batch   3 pq = [   13301,   16290] index = [      88464951,132690195] size =     44225244
	Batch   4 pq = [   16290,   18810] index = [     132690195,176917455] size =     44227260
	Batch   5 pq = [   18810,   19306] index = [     176917455,186370471] size =      9453016
  Task number: 17
  Buffer size: 11059200
  Buffer per thread: 2
  We computed 8475717 shell quartets total.
  Whereas there are 10841496 unique shell quartets.

  ==> DiskJK: Disk-Based J/K Matrices <==

    J tasked:                  Yes
    K tasked:                  Yes
    wK tasked:                  No
    Memory [MiB]:              375
    Schwarz Cutoff:          1E-12

    OpenMP threads:              1

  Minimum eigenvalue in the overlap matrix is 2.9669266018E-04.
  Using Symmetric Orthogonalization.

  SCF Guess: Superposition of Atomic Densities via on-the-fly atomic UHF.

  ==> Iterations <==

                        Total Energy        Delta E     RMS |[F,P]|

   @RHF iter SAD:  -347.89788390234429   -3.47898e+02   0.00000e+00
   @RHF iter   1:  -348.76745706300346   -8.69573e-01   2.89904e-03 DIIS
   @RHF iter   2:  -348.96044978201490   -1.92993e-01   1.20401e-03 DIIS
   @RHF iter   3:  -348.99078509880587   -3.03353e-02   2.59344e-04 DIIS
   @RHF iter   4:  -348.99327443240907   -2.48933e-03   5.35793e-05 DIIS
   @RHF iter   5:  -348.99334968106729   -7.52487e-05   1.77792e-05 DIIS
   @RHF iter   6:  -348.99335743941350   -7.75835e-06   4.82972e-06 DIIS
   @RHF iter   7:  -348.99335809248197   -6.53068e-07   1.22483e-06 DIIS
   @RHF iter   8:  -348.99335813862069   -4.61387e-08   2.75527e-07 DIIS
   @RHF iter   9:  -348.99335814253885   -3.91816e-09   1.11989e-07 DIIS
   @RHF iter  10:  -348.99335814321898   -6.80132e-10   4.73385e-08 DIIS
   @RHF iter  11:  -348.99335814344306   -2.24077e-10   2.01745e-08 DIIS
   @RHF iter  12:  -348.99335814348598   -4.29168e-11   1.04204e-08 DIIS
   @RHF iter  13:  -348.99335814349496   -8.98126e-12   3.91671e-09 DIIS
   @RHF iter  14:  -348.99335814349666   -1.70530e-12   1.11148e-09 DIIS
   @RHF iter  15:  -348.99335814349729   -6.25278e-13   3.66869e-10 DIIS
   @RHF iter  16:  -348.99335814349791   -6.25278e-13   1.18976e-10 DIIS
   @RHF iter  17:  -348.99335814349854   -6.25278e-13   5.19228e-11 DIIS
  Energy and wave function converged.

  ==> Post-Iterations <==

    Orbital Energies [Eh]
    ---------------------

    Doubly Occupied:

       1A    -11.238104     2A    -11.233956     3A    -11.232685
       4A    -11.228781     5A    -11.228453     6A    -11.227997
       7A    -11.226530     8A    -11.222030     9A    -11.219502
      10A     -1.152997    11A     -1.045324    12A     -1.018557
      13A     -1.010821    14A     -0.930546    15A     -0.840750
      16A     -0.824696    17A     -0.793725    18A     -0.690778
      19A     -0.631092    20A     -0.629384    21A     -0.599817
      22A     -0.597255    23A     -0.581753    24A     -0.578213
      25A     -0.561963    26A     -0.531874    27A     -0.503588
      28A     -0.489422    29A     -0.488293    30A     -0.486020
      31A     -0.482780    32A     -0.479328    33A     -0.331284
      34A     -0.321280

    Virtual:

      35A      0.136419    36A      0.141837    37A      0.173936
      38A      0.192763    39A      0.200117    40A      0.215022
      41A      0.236400    42A      0.239756    43A      0.251643
      44A      0.258886    45A      0.270366    46A      0.275705
      47A      0.284500    48A      0.289440    49A      0.299676
      50A      0.333087    51A      0.369398    52A      0.383486
      53A      0.406454    54A      0.456819    55A      0.468334
      56A      0.482630    57A      0.491788    58A      0.562044
      59A      0.590345    60A      0.597022    61A      0.598111
      62A      0.623566    63A      0.653678    64A      0.677689
      65A      0.688148    66A      0.690391    67A      0.694466
      68A      0.707991    69A      0.725200    70A      0.740940
      71A      0.745068    72A      0.746893    73A      0.759681
      74A      0.773705    75A      0.779022    76A      0.784103
      77A      0.827425    78A      0.849981    79A      0.861795
      80A      0.866752    81A      0.878769    82A      0.879637
      83A      0.889826    84A      0.892288    85A      0.899350
      86A      0.901644    87A      0.910612    88A      0.912981
      89A      0.925897    90A      0.945576    91A      0.952274
      92A      0.964726    93A      0.991503    94A      1.009945
      95A      1.034823    96A      1.053674    97A      1.122441
      98A      1.126036    99A      1.139277   100A      1.142681
     101A      1.157619   102A      1.179222   103A      1.192897
     104A      1.225781   105A      1.243904   106A      1.248198
     107A      1.254516   108A      1.257885   109A      1.307087
     110A      1.316419   111A      1.327689   112A      1.336545
     113A      1.414738   114A      1.466576   115A      1.479080
     116A      1.511902   117A      1.527041   118A      1.561314
     119A      1.579003   120A      1.605082   121A      1.679956
     122A      1.683923   123A      1.695809   124A      1.703706
     125A      1.732350   126A      1.753186   127A      1.761808
     128A      1.789549   129A      1.810902   130A      1.860769
     131A      1.865922   132A      1.871918   133A      1.892240
     134A      1.900322   135A      1.903484   136A      1.913183
     137A      1.922175   138A      1.924793   139A      1.939955
     140A      1.941561   141A      1.947392   142A      1.949918
     143A      1.952529   144A      1.954050   145A      1.976746
     146A      1.989101   147A      1.993320   148A      2.012259
     149A      2.044485   150A      2.068532   151A      2.081269
     152A      2.091241   153A      2.105840   154A      2.112065
     155A      2.152010   156A      2.158341   157A      2.170159
     158A      2.177161   159A      2.182414   160A      2.258812
     161A      2.278711   162A      2.299423   163A      2.307533
     164A      2.312676   165A      2.313775   166A      2.326298
     167A      2.340204   168A      2.454571   169A      2.461770
     170A      2.481116   171A      2.487030   172A      2.501096
     173A      2.547721   174A      2.553807   175A      2.568698
     176A      2.627935   177A      2.744037   178A      2.755846
     179A      2.765064   180A      2.773731   181A      2.783389
     182A      2.792100   183A      2.826794   184A      2.851960
     185A      2.856414   186A      2.861573   187A      2.882788
     188A      2.946054   189A      2.953226   190A      2.988426
     191A      3.017906   192A      3.028109   193A      3.160970
     194A      3.211517   195A      3.309347   196A      3.982232

    Final Occupation by Irrep:
              A
    DOCC [    34 ]

  @RHF Final Energy:  -348.99335814349854

   => Energetics <=

    Nuclear Repulsion Energy =            398.0839114040759341
    One-Electron Energy =               -1258.8353821681994305
    Two-Electron Energy =                 511.7581126206249564
    Total Energy =                       -348.9933581434985399

Computation Completed

Properties will be evaluated at   0.000000,   0.000000,   0.000000 [a0]

Properties computed using the SCF density matrix

  Nuclear Dipole Moment: [e a0]
     X:     9.3061      Y:    11.2828      Z:     0.8969

  Electronic Dipole Moment: [e a0]
     X:    -9.2666      Y:   -11.2208      Z:    -0.9889

  Dipole Moment: [e a0]
     X:     0.0395      Y:     0.0620      Z:    -0.0919     Total:     0.1177

  Dipole Moment: [D]
     X:     0.1004      Y:     0.1575      Z:    -0.2336     Total:     0.2991

*** tstop() called on ds3 at Mon Apr 27 12:48:57 2020
Module time:
	user time   =      66.56 seconds =       1.11 minutes
	system time =      33.67 seconds =       0.56 minutes
	total time  =         96 seconds =       1.60 minutes
Total time:
	user time   =      66.56 seconds =       1.11 minutes
	system time =      33.67 seconds =       0.56 minutes
	total time  =         96 seconds =       1.60 minutes
                                     G D M A

                                 by Anthony Stone

                           version 2.2.06, 22 June 2011

               Distributed Multipoles from Gaussian wavefunctions

Starting at 12:48:57 on 27 Apr 2020

Using SCF density matrix from file ./SSI/SSI-132ILE-135PHE-1-dimer.test.4070.fchk

                         Distributed Multipole Analysis

Standard DMA

Positions and radii in angstrom
Multipole moments in atomic units, ea_0^k for rank k

C          x =  2.233811  y =  2.677023  z =  0.691405 angstrom
           Maximum rank =  0   Radius =  0.650 angstrom
                   Q00  =  -0.247835

C          x =  3.092811  y =  3.448023  z =  1.702405 angstrom
           Maximum rank =  0   Radius =  0.650 angstrom
                   Q00  =  -0.233154

H          x =  2.578811  y =  2.869023  z = -0.324595 angstrom
           Maximum rank =  0   Radius =  0.325 angstrom
                   Q00  =   0.081855

H          x =  2.276811  y =  1.606023  z =  0.887405 angstrom
           Maximum rank =  0   Radius =  0.325 angstrom
                   Q00  =   0.084004

H          x =  1.188811  y =  2.974023  z =  0.768405 angstrom
           Maximum rank =  0   Radius =  0.325 angstrom
                   Q00  =   0.074361

H          x =  2.701811  y =  3.276023  z =  2.707405 angstrom
           Maximum rank =  0   Radius =  0.325 angstrom
                   Q00  =   0.079811

H          x =  3.069231  y =  4.527660  z =  1.493051 angstrom
           Maximum rank =  0   Radius =  0.325 angstrom
                   Q00  =   0.081328

H          x =  4.129351  y =  3.081931  z =  1.662925 angstrom
           Maximum rank =  0   Radius =  0.325 angstrom
                   Q00  =   0.081249

C          x = -0.296189  y =  0.163023  z = -2.454595 angstrom
           Maximum rank =  0   Radius =  0.650 angstrom
                   Q00  =  -0.198694

C          x = -0.501189  y =  0.084023  z =  0.048405 angstrom
           Maximum rank =  0   Radius =  0.650 angstrom
                   Q00  =  -0.071847

C          x = -0.657189  y = -0.545977  z = -1.186595 angstrom
           Maximum rank =  0   Radius =  0.650 angstrom
                   Q00  =  -0.105460

C          x = -0.821189  y = -0.587977  z =  1.232405 angstrom
           Maximum rank =  0   Radius =  0.650 angstrom
                   Q00  =  -0.077056

C          x = -1.299189  y = -1.885977  z =  1.174405 angstrom
           Maximum rank =  0   Radius =  0.650 angstrom
                   Q00  =  -0.078769

C          x = -1.132189  y = -1.851977  z = -1.231595 angstrom
           Maximum rank =  0   Radius =  0.650 angstrom
                   Q00  =  -0.087431

C          x = -1.453189  y = -2.510977  z = -0.056595 angstrom
           Maximum rank =  0   Radius =  0.650 angstrom
                   Q00  =   0.018382

H          x = -0.135189  y =  1.099023  z =  0.093405 angstrom
           Maximum rank =  0   Radius =  0.325 angstrom
                   Q00  =   0.058110

H          x = -0.706189  y = -0.099977  z =  2.186405 angstrom
           Maximum rank =  0   Radius =  0.325 angstrom
                   Q00  =   0.062388

H          x =  0.021811  y = -0.580977  z = -3.184595 angstrom
           Maximum rank =  0   Radius =  0.325 angstrom
                   Q00  =   0.096386

H          x =  0.572811  y =  0.788023  z = -2.262595 angstrom
           Maximum rank =  0   Radius =  0.325 angstrom
                   Q00  =   0.098930

H          x = -1.564189  y = -2.404977  z =  2.083405 angstrom
           Maximum rank =  0   Radius =  0.325 angstrom
                   Q00  =   0.059432

H          x = -1.259189  y = -2.353977  z = -2.179595 angstrom
           Maximum rank =  0   Radius =  0.325 angstrom
                   Q00  =   0.056164

H          x = -1.842189  y = -3.518977  z = -0.091595 angstrom
           Maximum rank =  0   Radius =  0.325 angstrom
                   Q00  =   0.062308

H          x = -1.105709  y =  0.772490  z = -2.882656 angstrom
           Maximum rank =  0   Radius =  0.325 angstrom
                   Q00  =   0.105535

Total multipoles referred to origin at
           x =   0.000000,  y =    0.000000,  z =    0.000000 angstrom
                   Q00  =  -0.000000

Finished at 12:48:57 on 27 Apr 2020

  DMA results are available in the Python driver through the
	  variable('DMA DISTRIBUTED MULTIPOLES')
  and
	  variable('DMA TOTAL MULTIPOLES')
  commands.

    Psi4 stopped on: Monday, 27 April 2020 12:48PM
    Psi4 wall time for execution: 0:01:36.11

*** Psi4 exiting successfully. Buy a developer a beer!
