                               Psi4 1.3.2 release

  ==> Input File <==

--------------------------------------------------------------------------
import numpy as np
set {scf_type pk
basis cc-pvdz
d_convergence 10
gdma_switch   0
gdma_limit    0
gdma_origin   [ 0.0,  0.0,  0.0 ]
}
molecule test {
    units Angstrom
    0 1
    --
    0 1
    C                1.247073792155315    -2.661593512839324     2.064397225921486
    C                0.420073792155315    -3.847593512839324     2.575397225921487
    H                1.135073792155315    -1.793593512839324     2.711397225921486
    H                2.296073792155314    -2.927593512839324     2.078397225921487
    H                0.952073792155315    -2.411593512839325     1.044397225921487
    H                0.713073792155315    -4.022593512839324     3.607397225921486
    H               -0.660246207844685    -3.645573512839325     2.529548225921487
    H                0.646723792155315    -4.761423512839325     2.006596225921486
    C               -2.647926207844685     0.557406487160676    -0.893602774078513
    C               -0.375926207844685     0.216406487160676     0.129397225921487
    C               -1.181926207844685     0.840406487160676    -0.823602774078513
    C                0.968073792155315     0.525406487160676     0.219397225921487
    C               -0.626926207844685     1.793406487160676    -1.669602774078513
    C                1.527073792155315     1.463406487160676    -0.651602774078513
    C                0.728073792155315     2.100406487160676    -1.597602774078513
    H               -0.806926207844685    -0.509593512839324     0.804397225921487
    H                1.591073792155315     0.041406487160676     0.959397225921487
    H               -2.861926207844685    -0.406593512839324    -0.428602774078513
    H               -2.929926207844685     0.488406487160676    -1.942602774078513
    H               -1.247926207844685     2.299406487160676    -2.395602774078514
    H                2.579073792155315     1.705406487160676    -0.586602774078513
    H                1.154073792155315     2.837406487160675    -2.263602774078513
    H               -3.246886207844685     1.346646487160676    -0.415735774078513

}
e, wfn = energy('scf', return_wfn=True)
gdma(wfn)
dmavals = variable('DMA DISTRIBUTED MULTIPOLES')
charges = np.array(dmavals)
print(charges)
np.save('SSI-053LEU-057PHE-1-dimer.npy', np.array(charges))--------------------------------------------------------------------------

*** tstart() called on ds3
*** at Tue Apr 28 20:04:48 2020

   => Loading Basis Set <=

    Name: CC-PVDZ
    Role: ORBITAL
    Keyword: BASIS
    atoms 1-2, 9-15  entry C          line   138 file /theoryfs2/ds/metcalf/miniconda2/envs/tf2gpu/share/psi4/basis/cc-pvdz.gbs
    atoms 3-8, 16-23 entry H          line    22 file /theoryfs2/ds/metcalf/miniconda2/envs/tf2gpu/share/psi4/basis/cc-pvdz.gbs

         ---------------------------------------------------------
                                   SCF
               by Justin Turney, Rob Parrish, Andy Simmonett
                          and Daniel G. A. Smith
                              RHF Reference
                        1 Threads,    500 MiB Core
         ---------------------------------------------------------

  ==> Geometry <==

    Molecular point group: c1
    Full point group: C1

    Geometry (in Angstrom), charge = 0, multiplicity = 1:

       Center              X                  Y                   Z               Mass
    ------------   -----------------  -----------------  -----------------  -----------------
         C            1.247073792155    -2.661593512839     2.064397225921    12.000000000000
         C            0.420073792155    -3.847593512839     2.575397225921    12.000000000000
         H            1.135073792155    -1.793593512839     2.711397225921     1.007825032230
         H            2.296073792155    -2.927593512839     2.078397225921     1.007825032230
         H            0.952073792155    -2.411593512839     1.044397225921     1.007825032230
         H            0.713073792155    -4.022593512839     3.607397225921     1.007825032230
         H           -0.660246207845    -3.645573512839     2.529548225921     1.007825032230
         H            0.646723792155    -4.761423512839     2.006596225921     1.007825032230
         C           -2.647926207845     0.557406487161    -0.893602774079    12.000000000000
         C           -0.375926207845     0.216406487161     0.129397225921    12.000000000000
         C           -1.181926207845     0.840406487161    -0.823602774079    12.000000000000
         C            0.968073792155     0.525406487161     0.219397225921    12.000000000000
         C           -0.626926207845     1.793406487161    -1.669602774079    12.000000000000
         C            1.527073792155     1.463406487161    -0.651602774079    12.000000000000
         C            0.728073792155     2.100406487161    -1.597602774079    12.000000000000
         H           -0.806926207845    -0.509593512839     0.804397225921     1.007825032230
         H            1.591073792155     0.041406487161     0.959397225921     1.007825032230
         H           -2.861926207845    -0.406593512839    -0.428602774079     1.007825032230
         H           -2.929926207845     0.488406487161    -1.942602774079     1.007825032230
         H           -1.247926207845     2.299406487161    -2.395602774079     1.007825032230
         H            2.579073792155     1.705406487161    -0.586602774079     1.007825032230
         H            1.154073792155     2.837406487161    -2.263602774079     1.007825032230
         H           -3.246886207845     1.346646487161    -0.415735774079     1.007825032230

  Running in c1 symmetry.

  Rotational constants: A =      0.07769  B =      0.02182  C =      0.01737 [cm^-1]
  Rotational constants: A =   2329.02867  B =    654.14943  C =    520.77721 [MHz]
  Nuclear repulsion =  400.797017422629438

  Charge       = 0
  Multiplicity = 1
  Electrons    = 68
  Nalpha       = 34
  Nbeta        = 34

  ==> Algorithm <==

  SCF Algorithm Type is PK.
  DIIS enabled.
  MOM disabled.
  Fractional occupation disabled.
  Guess Type is SAD.
  Energy threshold   = 1.00e-06
  Density threshold  = 1.00e-10
  Integral threshold = 0.00e+00

  ==> Primary Basis <==

  Basis Set: CC-PVDZ
    Blend: CC-PVDZ
    Number of shells: 96
    Number of basis function: 196
    Number of Cartesian functions: 205
    Spherical Harmonics?: true
    Max angular momentum: 2

  ==> Pre-Iterations <==

   -------------------------------------------------------
    Irrep   Nso     Nmo     Nalpha   Nbeta   Ndocc  Nsocc
   -------------------------------------------------------
     A        196     196       0       0       0       0
   -------------------------------------------------------
    Total     196     196      34      34      34       0
   -------------------------------------------------------

  ==> Integral Setup <==

  Using integral reordering PK algorithm.
  Sizing the integral batches needed.
  Building batch lookup table.
   Calculation information:
      Number of atoms:                  23
      Number of AO shells:              96
      Number of primitives:            268
      Number of atomic orbitals:       205
      Number of basis functions:       196

      Integral cutoff                 1.00e-12
      Number of threads:                 1

	Batch   1 pq = [       0,    9405] index = [             0,44231715] size =     44231715
	Batch   2 pq = [    9405,   13301] index = [      44231715,88464951] size =     44233236
	Batch   3 pq = [   13301,   16290] index = [      88464951,132690195] size =     44225244
	Batch   4 pq = [   16290,   18810] index = [     132690195,176917455] size =     44227260
	Batch   5 pq = [   18810,   19306] index = [     176917455,186370471] size =      9453016
  Task number: 17
  Buffer size: 11059200
  Buffer per thread: 2
  We computed 8660545 shell quartets total.
  Whereas there are 10841496 unique shell quartets.

  ==> DiskJK: Disk-Based J/K Matrices <==

    J tasked:                  Yes
    K tasked:                  Yes
    wK tasked:                  No
    Memory [MiB]:              375
    Schwarz Cutoff:          1E-12

    OpenMP threads:              1

  Minimum eigenvalue in the overlap matrix is 3.0472274718E-04.
  Using Symmetric Orthogonalization.

  SCF Guess: Superposition of Atomic Densities via on-the-fly atomic UHF.

  ==> Iterations <==

                        Total Energy        Delta E     RMS |[F,P]|

   @RHF iter SAD:  -347.90746303736421   -3.47907e+02   0.00000e+00
   @RHF iter   1:  -348.76664493197131   -8.59182e-01   2.89780e-03 DIIS
   @RHF iter   2:  -348.95992529870517   -1.93280e-01   1.19998e-03 DIIS
   @RHF iter   3:  -348.99009395304614   -3.01687e-02   2.61096e-04 DIIS
   @RHF iter   4:  -348.99258798480355   -2.49403e-03   5.90851e-05 DIIS
   @RHF iter   5:  -348.99267542048932   -8.74357e-05   1.97806e-05 DIIS
   @RHF iter   6:  -348.99268494154603   -9.52106e-06   4.99151e-06 DIIS
   @RHF iter   7:  -348.99268565373700   -7.12191e-07   1.19116e-06 DIIS
   @RHF iter   8:  -348.99268569734386   -4.36069e-08   2.64797e-07 DIIS
   @RHF iter   9:  -348.99268570028755   -2.94369e-09   8.79004e-08 DIIS
   @RHF iter  10:  -348.99268570058439   -2.96836e-10   3.08948e-08 DIIS
   @RHF iter  11:  -348.99268570063236   -4.79758e-11   8.15461e-09 DIIS
   @RHF iter  12:  -348.99268570063697   -4.60432e-12   4.09391e-09 DIIS
   @RHF iter  13:  -348.99268570063884   -1.87583e-12   1.93537e-09 DIIS
   @RHF iter  14:  -348.99268570063856    2.84217e-13   6.06745e-10 DIIS
   @RHF iter  15:  -348.99268570063725    1.30740e-12   1.76302e-10 DIIS
   @RHF iter  16:  -348.99268570063930   -2.04636e-12   8.12019e-11 DIIS
  Energy and wave function converged.

  ==> Post-Iterations <==

    Orbital Energies [Eh]
    ---------------------

    Doubly Occupied:

       1A    -11.237982     2A    -11.234563     3A    -11.233151
       4A    -11.230059     5A    -11.228275     6A    -11.228193
       7A    -11.227511     8A    -11.220876     9A    -11.217811
      10A     -1.152785    11A     -1.044221    12A     -1.019461
      13A     -1.012193    14A     -0.929765    15A     -0.840789
      16A     -0.823401    17A     -0.794620    18A     -0.689742
      19A     -0.631402    20A     -0.628885    21A     -0.602296
      22A     -0.597018    23A     -0.582164    24A     -0.577636
      25A     -0.560445    26A     -0.534651    27A     -0.503978
      28A     -0.490091    29A     -0.487022    30A     -0.483451
      31A     -0.482825    32A     -0.480799    33A     -0.332628
      34A     -0.319362

    Virtual:

      35A      0.137131    36A      0.140774    37A      0.172072
      38A      0.194662    39A      0.201483    40A      0.221543
      41A      0.230914    42A      0.242554    43A      0.255708
      44A      0.261685    45A      0.269175    46A      0.279558
      47A      0.282122    48A      0.285542    49A      0.304215
      50A      0.320340    51A      0.366933    52A      0.382051
      53A      0.404500    54A      0.453134    55A      0.460617
      56A      0.484646    57A      0.492066    58A      0.557127
      59A      0.593322    60A      0.599472    61A      0.611842
      62A      0.635802    63A      0.641068    64A      0.674509
      65A      0.682024    66A      0.696941    67A      0.704714
      68A      0.712332    69A      0.723323    70A      0.740079
      71A      0.743814    72A      0.749016    73A      0.768859
      74A      0.775618    75A      0.784505    76A      0.809415
      77A      0.836928    78A      0.848998    79A      0.860155
      80A      0.867546    81A      0.881532    82A      0.888190
      83A      0.891914    84A      0.895119    85A      0.897834
      86A      0.902140    87A      0.911298    88A      0.921571
      89A      0.934343    90A      0.941784    91A      0.944405
      92A      0.957537    93A      0.984095    94A      1.007779
      95A      1.026231    96A      1.056586    97A      1.112499
      98A      1.124648    99A      1.134879   100A      1.149439
     101A      1.160046   102A      1.173056   103A      1.207779
     104A      1.234437   105A      1.241384   106A      1.252049
     107A      1.257089   108A      1.272782   109A      1.309678
     110A      1.315425   111A      1.324695   112A      1.328167
     113A      1.414844   114A      1.474594   115A      1.479510
     116A      1.512122   117A      1.523818   118A      1.568093
     119A      1.589332   120A      1.614907   121A      1.674236
     122A      1.682209   123A      1.694390   124A      1.703999
     125A      1.737606   126A      1.744972   127A      1.758943
     128A      1.793299   129A      1.813071   130A      1.857074
     131A      1.862992   132A      1.875017   133A      1.892282
     134A      1.897143   135A      1.900032   136A      1.914566
     137A      1.917021   138A      1.924477   139A      1.930832
     140A      1.944277   141A      1.945351   142A      1.948763
     143A      1.966102   144A      1.976176   145A      1.985996
     146A      1.996713   147A      2.001282   148A      2.003242
     149A      2.045389   150A      2.064347   151A      2.081107
     152A      2.090276   153A      2.116614   154A      2.120645
     155A      2.145258   156A      2.169626   157A      2.171789
     158A      2.178204   159A      2.199779   160A      2.255861
     161A      2.279456   162A      2.294078   163A      2.301946
     164A      2.306468   165A      2.324229   166A      2.334452
     167A      2.338004   168A      2.453797   169A      2.462997
     170A      2.470830   171A      2.488225   172A      2.514194
     173A      2.544717   174A      2.552939   175A      2.582451
     176A      2.631597   177A      2.746690   178A      2.754662
     179A      2.761475   180A      2.772589   181A      2.789191
     182A      2.799798   183A      2.821581   184A      2.845673
     185A      2.858783   186A      2.863252   187A      2.877214
     188A      2.957807   189A      2.964217   190A      2.986546
     191A      3.013113   192A      3.027566   193A      3.158701
     194A      3.210105   195A      3.306176   196A      3.976738

    Final Occupation by Irrep:
              A
    DOCC [    34 ]

  @RHF Final Energy:  -348.99268570063930

   => Energetics <=

    Nuclear Repulsion Energy =            400.7970174226294375
    One-Electron Energy =               -1264.2593058507382011
    Two-Electron Energy =                 514.4696027274694643
    Total Energy =                       -348.9926857006392993

Computation Completed

Properties will be evaluated at   0.000000,   0.000000,   0.000000 [a0]

Properties computed using the SCF density matrix

  Nuclear Dipole Moment: [e a0]
     X:    -0.6437      Y:   -11.0245      Z:     7.2267

  Electronic Dipole Moment: [e a0]
     X:     0.5436      Y:    11.0125      Z:    -7.2254

  Dipole Moment: [e a0]
     X:    -0.1001      Y:    -0.0120      Z:     0.0013     Total:     0.1008

  Dipole Moment: [D]
     X:    -0.2544      Y:    -0.0306      Z:     0.0033     Total:     0.2563

*** tstop() called on ds3 at Tue Apr 28 20:06:10 2020
Module time:
	user time   =      58.81 seconds =       0.98 minutes
	system time =      27.18 seconds =       0.45 minutes
	total time  =         82 seconds =       1.37 minutes
Total time:
	user time   =      58.81 seconds =       0.98 minutes
	system time =      27.18 seconds =       0.45 minutes
	total time  =         82 seconds =       1.37 minutes
                                     G D M A

                                 by Anthony Stone

                           version 2.2.06, 22 June 2011

               Distributed Multipoles from Gaussian wavefunctions

Starting at 20:6:10 on 28 Apr 2020

Using SCF density matrix from file ./SSI/SSI-053LEU-057PHE-1-dimer.test.29609.fchk

                         Distributed Multipole Analysis

Standard DMA

Positions and radii in angstrom
Multipole moments in atomic units, ea_0^k for rank k

C          x =  1.247074  y = -2.661594  z =  2.064397 angstrom
           Maximum rank =  0   Radius =  0.650 angstrom
                   Q00  =  -0.255801

C          x =  0.420074  y = -3.847594  z =  2.575397 angstrom
           Maximum rank =  0   Radius =  0.650 angstrom
                   Q00  =  -0.225946

H          x =  1.135074  y = -1.793594  z =  2.711397 angstrom
           Maximum rank =  0   Radius =  0.325 angstrom
                   Q00  =   0.076048

H          x =  2.296074  y = -2.927594  z =  2.078397 angstrom
           Maximum rank =  0   Radius =  0.325 angstrom
                   Q00  =   0.082358

H          x =  0.952074  y = -2.411594  z =  1.044397 angstrom
           Maximum rank =  0   Radius =  0.325 angstrom
                   Q00  =   0.083792

H          x =  0.713074  y = -4.022594  z =  3.607397 angstrom
           Maximum rank =  0   Radius =  0.325 angstrom
                   Q00  =   0.078676

H          x = -0.660246  y = -3.645574  z =  2.529548 angstrom
           Maximum rank =  0   Radius =  0.325 angstrom
                   Q00  =   0.079565

H          x =  0.646724  y = -4.761424  z =  2.006596 angstrom
           Maximum rank =  0   Radius =  0.325 angstrom
                   Q00  =   0.081804

C          x = -2.647926  y =  0.557406  z = -0.893603 angstrom
           Maximum rank =  0   Radius =  0.650 angstrom
                   Q00  =  -0.200804

C          x = -0.375926  y =  0.216406  z =  0.129397 angstrom
           Maximum rank =  0   Radius =  0.650 angstrom
                   Q00  =  -0.053003

C          x = -1.181926  y =  0.840406  z = -0.823603 angstrom
           Maximum rank =  0   Radius =  0.650 angstrom
                   Q00  =  -0.092226

C          x =  0.968074  y =  0.525406  z =  0.219397 angstrom
           Maximum rank =  0   Radius =  0.650 angstrom
                   Q00  =  -0.077950

C          x = -0.626926  y =  1.793406  z = -1.669603 angstrom
           Maximum rank =  0   Radius =  0.650 angstrom
                   Q00  =  -0.019702

C          x =  1.527074  y =  1.463406  z = -0.651603 angstrom
           Maximum rank =  0   Radius =  0.650 angstrom
                   Q00  =  -0.090437

C          x =  0.728074  y =  2.100406  z = -1.597603 angstrom
           Maximum rank =  0   Radius =  0.650 angstrom
                   Q00  =  -0.067692

H          x = -0.806926  y = -0.509594  z =  0.804397 angstrom
           Maximum rank =  0   Radius =  0.325 angstrom
                   Q00  =   0.056137

H          x =  1.591074  y =  0.041406  z =  0.959397 angstrom
           Maximum rank =  0   Radius =  0.325 angstrom
                   Q00  =   0.067306

H          x = -2.861926  y = -0.406594  z = -0.428603 angstrom
           Maximum rank =  0   Radius =  0.325 angstrom
                   Q00  =   0.096867

H          x = -2.929926  y =  0.488406  z = -1.942603 angstrom
           Maximum rank =  0   Radius =  0.325 angstrom
                   Q00  =   0.097478

H          x = -1.247926  y =  2.299406  z = -2.395603 angstrom
           Maximum rank =  0   Radius =  0.325 angstrom
                   Q00  =   0.054125

H          x =  2.579074  y =  1.705406  z = -0.586603 angstrom
           Maximum rank =  0   Radius =  0.325 angstrom
                   Q00  =   0.060530

H          x =  1.154074  y =  2.837406  z = -2.263603 angstrom
           Maximum rank =  0   Radius =  0.325 angstrom
                   Q00  =   0.065102

H          x = -3.246886  y =  1.346646  z = -0.415736 angstrom
           Maximum rank =  0   Radius =  0.325 angstrom
                   Q00  =   0.103772

Total multipoles referred to origin at
           x =   0.000000,  y =    0.000000,  z =    0.000000 angstrom
                   Q00  =  -0.000000

Finished at 20:6:10 on 28 Apr 2020

  DMA results are available in the Python driver through the
	  variable('DMA DISTRIBUTED MULTIPOLES')
  and
	  variable('DMA TOTAL MULTIPOLES')
  commands.

    Psi4 stopped on: Tuesday, 28 April 2020 08:06PM
    Psi4 wall time for execution: 0:01:22.99

*** Psi4 exiting successfully. Buy a developer a beer!
