                               Psi4 1.3.2 release

  ==> Input File <==

--------------------------------------------------------------------------
import numpy as np
set {scf_type pk
basis cc-pvdz
d_convergence 10
gdma_switch   0
gdma_limit    0
gdma_origin   [ 0.0,  0.0,  0.0 ]
}
molecule test {
    units Angstrom
    0 1
    --
    0 1
    C                3.053846375440180     0.243385609604191    -1.706093627920064
    C               -0.454153624559820     0.540385609604191    -0.296093627920064
    C               -0.225153624559820     0.898385609604191     1.025906372079936
    C                0.609846375440180     0.339385609604191    -1.163093627920064
    C                1.924846375440180     0.459385609604191    -0.719093627920064
    C                1.080846375440180     1.062385609604191     1.478906372079936
    C                2.153846375440180     0.861385609604191     0.603906372079936
    H               -1.466153624559820     0.442385609604191    -0.661093627920064
    H               -1.054153624559820     1.042385609604191     1.700906372079936
    H                0.407846375440180     0.080385609604191    -2.191093627920064
    H                1.254846375440180     1.358385609604191     2.500906372079936
    H                3.310846375440180     1.211385609604191    -2.137093627920065
    H                2.688846375440180    -0.390614390395809    -2.515093627920064
    H                3.155846375440180     1.020385609604191     0.963906372079935
    H                3.961716375440180    -0.219522390395809    -1.291993627920065
    C               -3.445153624559820    -1.200614390395809     0.594906372079935
    C               -3.885153624559820    -2.622614390395809     0.266906372079936
    H               -3.981153624559820    -0.840614390395809     1.471906372079935
    H               -2.378153624559820    -1.194614390395809     0.809906372079936
    H               -3.639153624559820    -0.537614390395809    -0.247093627920064
    H               -3.388153624559820    -2.937614390395809    -0.647093627920065
    H               -4.976225624559820    -2.663395390395809     0.133116372079936
    H               -3.584403624559820    -3.294793390395809     1.084046372079935

}
e, wfn = energy('scf', return_wfn=True)
gdma(wfn)
dmavals = variable('DMA DISTRIBUTED MULTIPOLES')
charges = np.array(dmavals)
print(charges)
np.save('SSI-021PHE-038VAL-1-dimer.npy', np.array(charges))--------------------------------------------------------------------------

*** tstart() called on ds3
*** at Tue Apr 28 20:26:54 2020

   => Loading Basis Set <=

    Name: CC-PVDZ
    Role: ORBITAL
    Keyword: BASIS
    atoms 1-7, 16-17  entry C          line   138 file /theoryfs2/ds/metcalf/miniconda2/envs/tf2gpu/share/psi4/basis/cc-pvdz.gbs
    atoms 8-15, 18-23 entry H          line    22 file /theoryfs2/ds/metcalf/miniconda2/envs/tf2gpu/share/psi4/basis/cc-pvdz.gbs

         ---------------------------------------------------------
                                   SCF
               by Justin Turney, Rob Parrish, Andy Simmonett
                          and Daniel G. A. Smith
                              RHF Reference
                        1 Threads,    500 MiB Core
         ---------------------------------------------------------

  ==> Geometry <==

    Molecular point group: c1
    Full point group: C1

    Geometry (in Angstrom), charge = 0, multiplicity = 1:

       Center              X                  Y                   Z               Mass
    ------------   -----------------  -----------------  -----------------  -----------------
         C            3.053846375440     0.243385609604    -1.706093627920    12.000000000000
         C           -0.454153624560     0.540385609604    -0.296093627920    12.000000000000
         C           -0.225153624560     0.898385609604     1.025906372080    12.000000000000
         C            0.609846375440     0.339385609604    -1.163093627920    12.000000000000
         C            1.924846375440     0.459385609604    -0.719093627920    12.000000000000
         C            1.080846375440     1.062385609604     1.478906372080    12.000000000000
         C            2.153846375440     0.861385609604     0.603906372080    12.000000000000
         H           -1.466153624560     0.442385609604    -0.661093627920     1.007825032230
         H           -1.054153624560     1.042385609604     1.700906372080     1.007825032230
         H            0.407846375440     0.080385609604    -2.191093627920     1.007825032230
         H            1.254846375440     1.358385609604     2.500906372080     1.007825032230
         H            3.310846375440     1.211385609604    -2.137093627920     1.007825032230
         H            2.688846375440    -0.390614390396    -2.515093627920     1.007825032230
         H            3.155846375440     1.020385609604     0.963906372080     1.007825032230
         H            3.961716375440    -0.219522390396    -1.291993627920     1.007825032230
         C           -3.445153624560    -1.200614390396     0.594906372080    12.000000000000
         C           -3.885153624560    -2.622614390396     0.266906372080    12.000000000000
         H           -3.981153624560    -0.840614390396     1.471906372080     1.007825032230
         H           -2.378153624560    -1.194614390396     0.809906372080     1.007825032230
         H           -3.639153624560    -0.537614390396    -0.247093627920     1.007825032230
         H           -3.388153624560    -2.937614390396    -0.647093627920     1.007825032230
         H           -4.976225624560    -2.663395390396     0.133116372080     1.007825032230
         H           -3.584403624560    -3.294793390396     1.084046372080     1.007825032230

  Running in c1 symmetry.

  Rotational constants: A =      0.09326  B =      0.01969  C =      0.01731 [cm^-1]
  Rotational constants: A =   2795.85097  B =    590.17738  C =    518.90303 [MHz]
  Nuclear repulsion =  399.711609920714409

  Charge       = 0
  Multiplicity = 1
  Electrons    = 68
  Nalpha       = 34
  Nbeta        = 34

  ==> Algorithm <==

  SCF Algorithm Type is PK.
  DIIS enabled.
  MOM disabled.
  Fractional occupation disabled.
  Guess Type is SAD.
  Energy threshold   = 1.00e-06
  Density threshold  = 1.00e-10
  Integral threshold = 0.00e+00

  ==> Primary Basis <==

  Basis Set: CC-PVDZ
    Blend: CC-PVDZ
    Number of shells: 96
    Number of basis function: 196
    Number of Cartesian functions: 205
    Spherical Harmonics?: true
    Max angular momentum: 2

  ==> Pre-Iterations <==

   -------------------------------------------------------
    Irrep   Nso     Nmo     Nalpha   Nbeta   Ndocc  Nsocc
   -------------------------------------------------------
     A        196     196       0       0       0       0
   -------------------------------------------------------
    Total     196     196      34      34      34       0
   -------------------------------------------------------

  ==> Integral Setup <==

  Using integral reordering PK algorithm.
  Sizing the integral batches needed.
  Building batch lookup table.
   Calculation information:
      Number of atoms:                  23
      Number of AO shells:              96
      Number of primitives:            268
      Number of atomic orbitals:       205
      Number of basis functions:       196

      Integral cutoff                 1.00e-12
      Number of threads:                 1

	Batch   1 pq = [       0,    9405] index = [             0,44231715] size =     44231715
	Batch   2 pq = [    9405,   13301] index = [      44231715,88464951] size =     44233236
	Batch   3 pq = [   13301,   16290] index = [      88464951,132690195] size =     44225244
	Batch   4 pq = [   16290,   18810] index = [     132690195,176917455] size =     44227260
	Batch   5 pq = [   18810,   19306] index = [     176917455,186370471] size =      9453016
  Task number: 17
  Buffer size: 11059200
  Buffer per thread: 2
  We computed 8555405 shell quartets total.
  Whereas there are 10841496 unique shell quartets.

  ==> DiskJK: Disk-Based J/K Matrices <==

    J tasked:                  Yes
    K tasked:                  Yes
    wK tasked:                  No
    Memory [MiB]:              375
    Schwarz Cutoff:          1E-12

    OpenMP threads:              1

  Minimum eigenvalue in the overlap matrix is 3.1231072016E-04.
  Using Symmetric Orthogonalization.

  SCF Guess: Superposition of Atomic Densities via on-the-fly atomic UHF.

  ==> Iterations <==

                        Total Energy        Delta E     RMS |[F,P]|

   @RHF iter SAD:  -347.87270072109430   -3.47873e+02   0.00000e+00
   @RHF iter   1:  -348.76652506546230   -8.93824e-01   2.88939e-03 DIIS
   @RHF iter   2:  -348.95894619409410   -1.92421e-01   1.19120e-03 DIIS
   @RHF iter   3:  -348.98868781603875   -2.97416e-02   2.57955e-04 DIIS
   @RHF iter   4:  -348.99116325290078   -2.47544e-03   5.04556e-05 DIIS
   @RHF iter   5:  -348.99123184167809   -6.85888e-05   1.72589e-05 DIIS
   @RHF iter   6:  -348.99123913637379   -7.29470e-06   4.63469e-06 DIIS
   @RHF iter   7:  -348.99123974601480   -6.09641e-07   1.27362e-06 DIIS
   @RHF iter   8:  -348.99123979296201   -4.69472e-08   2.67384e-07 DIIS
   @RHF iter   9:  -348.99123979631429   -3.35228e-09   9.56852e-08 DIIS
   @RHF iter  10:  -348.99123979670884   -3.94550e-10   3.77475e-08 DIIS
   @RHF iter  11:  -348.99123979679689   -8.80505e-11   1.49386e-08 DIIS
   @RHF iter  12:  -348.99123979681309   -1.62004e-11   7.73669e-09 DIIS
   @RHF iter  13:  -348.99123979681997   -6.87805e-12   3.63581e-09 DIIS
   @RHF iter  14:  -348.99123979681866    1.30740e-12   1.04327e-09 DIIS
   @RHF iter  15:  -348.99123979681934   -6.82121e-13   3.30556e-10 DIIS
   @RHF iter  16:  -348.99123979682105   -1.70530e-12   9.18339e-11 DIIS
  Energy and wave function converged.

  ==> Post-Iterations <==

    Orbital Energies [Eh]
    ---------------------

    Doubly Occupied:

       1A    -11.242563     2A    -11.235364     3A    -11.232338
       4A    -11.231271     5A    -11.230432     6A    -11.229131
       7A    -11.228331     8A    -11.217739     9A    -11.214576
      10A     -1.150945    11A     -1.042480    12A     -1.019413
      13A     -1.010301    14A     -0.930893    15A     -0.836468
      16A     -0.822779    17A     -0.795280    18A     -0.690766
      19A     -0.630956    20A     -0.629017    21A     -0.599918
      22A     -0.598049    23A     -0.581136    24A     -0.575739
      25A     -0.562445    26A     -0.534934    27A     -0.499604
      28A     -0.489862    29A     -0.488253    30A     -0.482849
      31A     -0.482460    32A     -0.476610    33A     -0.331051
      34A     -0.320588

    Virtual:

      35A      0.136484    36A      0.141396    37A      0.178385
      38A      0.192135    39A      0.205073    40A      0.218269
      41A      0.230710    42A      0.242930    43A      0.256565
      44A      0.261282    45A      0.269893    46A      0.280415
      47A      0.283169    48A      0.287855    49A      0.301026
      50A      0.335014    51A      0.366529    52A      0.375257
      53A      0.392169    54A      0.457569    55A      0.466857
      56A      0.478255    57A      0.490334    58A      0.555741
      59A      0.595252    60A      0.598919    61A      0.607980
      62A      0.631289    63A      0.633055    64A      0.673647
      65A      0.680351    66A      0.689768    67A      0.699192
      68A      0.716293    69A      0.720736    70A      0.738405
      71A      0.743519    72A      0.749724    73A      0.755399
      74A      0.758905    75A      0.790522    76A      0.818429
      77A      0.844590    78A      0.853332    79A      0.860135
      80A      0.872354    81A      0.879873    82A      0.886063
      83A      0.892253    84A      0.894276    85A      0.899804
      86A      0.904831    87A      0.915527    88A      0.919436
      89A      0.929940    90A      0.938049    91A      0.942627
      92A      0.952611    93A      0.984677    94A      0.998827
      95A      1.034604    96A      1.064514    97A      1.109675
      98A      1.128282    99A      1.136463   100A      1.148246
     101A      1.167345   102A      1.191027   103A      1.208287
     104A      1.231398   105A      1.237938   106A      1.245123
     107A      1.257376   108A      1.270714   109A      1.293445
     110A      1.310404   111A      1.321938   112A      1.332171
     113A      1.411600   114A      1.478985   115A      1.485789
     116A      1.503191   117A      1.521990   118A      1.565086
     119A      1.583957   120A      1.603442   121A      1.665190
     122A      1.681480   123A      1.700712   124A      1.707509
     125A      1.735849   126A      1.750593   127A      1.763320
     128A      1.792199   129A      1.816665   130A      1.855510
     131A      1.861867   132A      1.870197   133A      1.888880
     134A      1.891382   135A      1.905149   136A      1.911486
     137A      1.926789   138A      1.931746   139A      1.937437
     140A      1.943748   141A      1.944823   142A      1.948664
     143A      1.961776   144A      1.966136   145A      1.968880
     146A      1.979566   147A      1.994860   148A      2.014500
     149A      2.042255   150A      2.074519   151A      2.082033
     152A      2.101583   153A      2.115570   154A      2.119939
     155A      2.151849   156A      2.162930   157A      2.167910
     158A      2.181083   159A      2.189107   160A      2.263017
     161A      2.272411   162A      2.291950   163A      2.298712
     164A      2.301980   165A      2.314408   166A      2.323826
     167A      2.342333   168A      2.448689   169A      2.467171
     170A      2.475573   171A      2.480392   172A      2.484263
     173A      2.546523   174A      2.568635   175A      2.584989
     176A      2.631586   177A      2.739695   178A      2.748450
     179A      2.765707   180A      2.766538   181A      2.790818
     182A      2.798983   183A      2.820038   184A      2.845701
     185A      2.849811   186A      2.857517   187A      2.863539
     188A      2.957709   189A      2.970867   190A      2.996156
     191A      3.019127   192A      3.025275   193A      3.162040
     194A      3.201620   195A      3.305132   196A      3.964173

    Final Occupation by Irrep:
              A
    DOCC [    34 ]

  @RHF Final Energy:  -348.99123979682105

   => Energetics <=

    Nuclear Repulsion Energy =            399.7116099207144089
    One-Electron Energy =               -1262.1166198326486665
    Two-Electron Energy =                 513.4137701151131523
    Total Energy =                       -348.9912397968211053

Computation Completed

Properties will be evaluated at   0.000000,   0.000000,   0.000000 [a0]

Properties computed using the SCF density matrix

  Nuclear Dipole Moment: [e a0]
     X:    -9.0818      Y:    -6.4905      Z:    -0.9617

  Electronic Dipole Moment: [e a0]
     X:     9.2030      Y:     6.5034      Z:     0.8716

  Dipole Moment: [e a0]
     X:     0.1211      Y:     0.0128      Z:    -0.0901     Total:     0.1515

  Dipole Moment: [D]
     X:     0.3079      Y:     0.0326      Z:    -0.2290     Total:     0.3851

*** tstop() called on ds3 at Tue Apr 28 20:29:01 2020
Module time:
	user time   =      57.91 seconds =       0.97 minutes
	system time =      23.94 seconds =       0.40 minutes
	total time  =        127 seconds =       2.12 minutes
Total time:
	user time   =      57.91 seconds =       0.97 minutes
	system time =      23.94 seconds =       0.40 minutes
	total time  =        127 seconds =       2.12 minutes
                                     G D M A

                                 by Anthony Stone

                           version 2.2.06, 22 June 2011

               Distributed Multipoles from Gaussian wavefunctions

Starting at 20:29:1 on 28 Apr 2020

Using SCF density matrix from file ./SSI/SSI-021PHE-038VAL-1-dimer.test.27944.fchk

                         Distributed Multipole Analysis

Standard DMA

Positions and radii in angstrom
Multipole moments in atomic units, ea_0^k for rank k

C          x =  3.053846  y =  0.243386  z = -1.706094 angstrom
           Maximum rank =  0   Radius =  0.650 angstrom
                   Q00  =  -0.214345

C          x = -0.454154  y =  0.540386  z = -0.296094 angstrom
           Maximum rank =  0   Radius =  0.650 angstrom
                   Q00  =  -0.036523

C          x = -0.225154  y =  0.898386  z =  1.025906 angstrom
           Maximum rank =  0   Radius =  0.650 angstrom
                   Q00  =  -0.084316

C          x =  0.609846  y =  0.339386  z = -1.163094 angstrom
           Maximum rank =  0   Radius =  0.650 angstrom
                   Q00  =  -0.006465

C          x =  1.924846  y =  0.459386  z = -0.719094 angstrom
           Maximum rank =  0   Radius =  0.650 angstrom
                   Q00  =  -0.096517

C          x =  1.080846  y =  1.062386  z =  1.478906 angstrom
           Maximum rank =  0   Radius =  0.650 angstrom
                   Q00  =  -0.077902

C          x =  2.153846  y =  0.861386  z =  0.603906 angstrom
           Maximum rank =  0   Radius =  0.650 angstrom
                   Q00  =  -0.091060

H          x = -1.466154  y =  0.442386  z = -0.661094 angstrom
           Maximum rank =  0   Radius =  0.325 angstrom
                   Q00  =   0.066666

H          x = -1.054154  y =  1.042386  z =  1.700906 angstrom
           Maximum rank =  0   Radius =  0.325 angstrom
                   Q00  =   0.061376

H          x =  0.407846  y =  0.080386  z = -2.191094 angstrom
           Maximum rank =  0   Radius =  0.325 angstrom
                   Q00  =   0.054394

H          x =  1.254846  y =  1.358386  z =  2.500906 angstrom
           Maximum rank =  0   Radius =  0.325 angstrom
                   Q00  =   0.065117

H          x =  3.310846  y =  1.211386  z = -2.137094 angstrom
           Maximum rank =  0   Radius =  0.325 angstrom
                   Q00  =   0.104683

H          x =  2.688846  y = -0.390614  z = -2.515094 angstrom
           Maximum rank =  0   Radius =  0.325 angstrom
                   Q00  =   0.097285

H          x =  3.155846  y =  1.020386  z =  0.963906 angstrom
           Maximum rank =  0   Radius =  0.325 angstrom
                   Q00  =   0.056978

H          x =  3.961716  y = -0.219522  z = -1.291994 angstrom
           Maximum rank =  0   Radius =  0.325 angstrom
                   Q00  =   0.102683

C          x = -3.445154  y = -1.200614  z =  0.594906 angstrom
           Maximum rank =  0   Radius =  0.650 angstrom
                   Q00  =  -0.251645

C          x = -3.885154  y = -2.622614  z =  0.266906 angstrom
           Maximum rank =  0   Radius =  0.650 angstrom
                   Q00  =  -0.223773

H          x = -3.981154  y = -0.840614  z =  1.471906 angstrom
           Maximum rank =  0   Radius =  0.325 angstrom
                   Q00  =   0.077463

H          x = -2.378154  y = -1.194614  z =  0.809906 angstrom
           Maximum rank =  0   Radius =  0.325 angstrom
                   Q00  =   0.087716

H          x = -3.639154  y = -0.537614  z = -0.247094 angstrom
           Maximum rank =  0   Radius =  0.325 angstrom
                   Q00  =   0.073578

H          x = -3.388154  y = -2.937614  z = -0.647094 angstrom
           Maximum rank =  0   Radius =  0.325 angstrom
                   Q00  =   0.078920

H          x = -4.976226  y = -2.663395  z =  0.133116 angstrom
           Maximum rank =  0   Radius =  0.325 angstrom
                   Q00  =   0.076809

H          x = -3.584404  y = -3.294793  z =  1.084046 angstrom
           Maximum rank =  0   Radius =  0.325 angstrom
                   Q00  =   0.078879

Total multipoles referred to origin at
           x =   0.000000,  y =    0.000000,  z =    0.000000 angstrom
                   Q00  =  -0.000000

Finished at 20:29:1 on 28 Apr 2020

  DMA results are available in the Python driver through the
	  variable('DMA DISTRIBUTED MULTIPOLES')
  and
	  variable('DMA TOTAL MULTIPOLES')
  commands.

    Psi4 stopped on: Tuesday, 28 April 2020 08:29PM
    Psi4 wall time for execution: 0:02:07.11

*** Psi4 exiting successfully. Buy a developer a beer!
