                               Psi4 1.3.2 release

  ==> Input File <==

--------------------------------------------------------------------------
import numpy as np
set {scf_type pk
basis cc-pvdz
d_convergence 10
gdma_switch   0
gdma_limit    0
gdma_origin   [ 0.0,  0.0,  0.0 ]
}
molecule test {
    units Angstrom
    -1 1
    --
    -1 1
    C                0.601486379665166     0.294066173861201    -1.629575473559449
    C               -0.742513620334834     0.559066173861201    -0.977575473559450
    O               -0.809513620334834     0.607066173861201     0.270424526440550
    O               -1.730513620334834     0.743066173861201    -1.715575473559450
    H                1.289486379665166    -0.016933826138799    -0.845575473559450
    H                0.992486379665166     1.223066173861201    -2.049575473559449
    H                0.564916379665166    -0.460493826138799    -2.429140473559449
    C                1.723486379665166    -0.769933826138799     2.355424526440550
    O                0.788486379665166    -1.300933826138799     1.413424526440550
    H                0.224486379665166    -0.566933826138799     1.083424526440550
    H                1.600486379665166     0.307066173861201     2.419424526440551
    H                1.552746379665165    -1.243583826138799     3.333436526440551
    H                2.731546379665165    -1.013633826138798     1.988790526440550

}
e, wfn = energy('scf', return_wfn=True)
gdma(wfn)
dmavals = variable('DMA DISTRIBUTED MULTIPOLES')
charges = np.array(dmavals)
print(charges)
np.save('SSI-140GLU-155THR-1-dimer.npy', np.array(charges))--------------------------------------------------------------------------

*** tstart() called on ds3
*** at Mon Apr 27 23:02:52 2020

   => Loading Basis Set <=

    Name: CC-PVDZ
    Role: ORBITAL
    Keyword: BASIS
    atoms 1-2, 8     entry C          line   138 file /theoryfs2/ds/metcalf/miniconda2/envs/tf2gpu/share/psi4/basis/cc-pvdz.gbs
    atoms 3-4, 9     entry O          line   198 file /theoryfs2/ds/metcalf/miniconda2/envs/tf2gpu/share/psi4/basis/cc-pvdz.gbs
    atoms 5-7, 10-13 entry H          line    22 file /theoryfs2/ds/metcalf/miniconda2/envs/tf2gpu/share/psi4/basis/cc-pvdz.gbs

         ---------------------------------------------------------
                                   SCF
               by Justin Turney, Rob Parrish, Andy Simmonett
                          and Daniel G. A. Smith
                              RHF Reference
                        1 Threads,    500 MiB Core
         ---------------------------------------------------------

  ==> Geometry <==

    Molecular point group: c1
    Full point group: C1

    Geometry (in Angstrom), charge = -1, multiplicity = 1:

       Center              X                  Y                   Z               Mass
    ------------   -----------------  -----------------  -----------------  -----------------
         C            0.601486379665     0.294066173861    -1.629575473559    12.000000000000
         C           -0.742513620335     0.559066173861    -0.977575473559    12.000000000000
         O           -0.809513620335     0.607066173861     0.270424526441    15.994914619570
         O           -1.730513620335     0.743066173861    -1.715575473559    15.994914619570
         H            1.289486379665    -0.016933826139    -0.845575473559     1.007825032230
         H            0.992486379665     1.223066173861    -2.049575473559     1.007825032230
         H            0.564916379665    -0.460493826139    -2.429140473559     1.007825032230
         C            1.723486379665    -0.769933826139     2.355424526441    12.000000000000
         O            0.788486379665    -1.300933826139     1.413424526441    15.994914619570
         H            0.224486379665    -0.566933826139     1.083424526441     1.007825032230
         H            1.600486379665     0.307066173861     2.419424526441     1.007825032230
         H            1.552746379665    -1.243583826139     3.333436526441     1.007825032230
         H            2.731546379665    -1.013633826139     1.988790526441     1.007825032230

  Running in c1 symmetry.

  Rotational constants: A =      0.25590  B =      0.04667  C =      0.04242 [cm^-1]
  Rotational constants: A =   7671.61173  B =   1399.23776  C =   1271.82453 [MHz]
  Nuclear repulsion =  231.230425722240369

  Charge       = -1
  Multiplicity = 1
  Electrons    = 50
  Nalpha       = 25
  Nbeta        = 25

  ==> Algorithm <==

  SCF Algorithm Type is PK.
  DIIS enabled.
  MOM disabled.
  Fractional occupation disabled.
  Guess Type is SAD.
  Energy threshold   = 1.00e-06
  Density threshold  = 1.00e-10
  Integral threshold = 0.00e+00

  ==> Primary Basis <==

  Basis Set: CC-PVDZ
    Blend: CC-PVDZ
    Number of shells: 57
    Number of basis function: 119
    Number of Cartesian functions: 125
    Spherical Harmonics?: true
    Max angular momentum: 2

  ==> Pre-Iterations <==

   -------------------------------------------------------
    Irrep   Nso     Nmo     Nalpha   Nbeta   Ndocc  Nsocc
   -------------------------------------------------------
     A        119     119       0       0       0       0
   -------------------------------------------------------
    Total     119     119      25      25      25       0
   -------------------------------------------------------

  ==> Integral Setup <==

  Using integral reordering PK algorithm.
  Sizing the integral batches needed.
  Building batch lookup table.
   Calculation information:
      Number of atoms:                  13
      Number of AO shells:              57
      Number of primitives:            167
      Number of atomic orbitals:       125
      Number of basis functions:       119

      Integral cutoff                 1.00e-12
      Number of threads:                 1

	Batch   1 pq = [       0,    7140] index = [             0,25493370] size =     25493370
  Task number: 3
  Buffer size: 11059200
  Buffer per thread: 2
  We computed 1206738 shell quartets total.
  Whereas there are 1367031 unique shell quartets.

  ==> DiskJK: Disk-Based J/K Matrices <==

    J tasked:                  Yes
    K tasked:                  Yes
    wK tasked:                  No
    Memory [MiB]:              375
    Schwarz Cutoff:          1E-12

    OpenMP threads:              1

  Minimum eigenvalue in the overlap matrix is 5.3243765488E-03.
  Using Symmetric Orthogonalization.

  SCF Guess: Superposition of Atomic Densities via on-the-fly atomic UHF.

  ==> Iterations <==

                        Total Energy        Delta E     RMS |[F,P]|

   @RHF iter SAD:  -340.66956491275192   -3.40670e+02   0.00000e+00
   @RHF iter   1:  -342.07965647067124   -1.41009e+00   5.96339e-03 DIIS
   @RHF iter   2:  -342.25080918086343   -1.71153e-01   3.41188e-03 DIIS
   @RHF iter   3:  -342.30805935922700   -5.72502e-02   4.71276e-04 DIIS
   @RHF iter   4:  -342.31014615400323   -2.08679e-03   1.71333e-04 DIIS
   @RHF iter   5:  -342.31043390819980   -2.87754e-04   3.80555e-05 DIIS
   @RHF iter   6:  -342.31044744819530   -1.35400e-05   1.66078e-05 DIIS
   @RHF iter   7:  -342.31044967953108   -2.23134e-06   3.62907e-06 DIIS
   @RHF iter   8:  -342.31044991664476   -2.37114e-07   1.62701e-06 DIIS
   @RHF iter   9:  -342.31044995068817   -3.40434e-08   6.80440e-07 DIIS
   @RHF iter  10:  -342.31044995959280   -8.90464e-09   2.07302e-07 DIIS
   @RHF iter  11:  -342.31044996056801   -9.75206e-10   5.22070e-08 DIIS
   @RHF iter  12:  -342.31044996062212   -5.41149e-11   1.73664e-08 DIIS
   @RHF iter  13:  -342.31044996062576   -3.63798e-12   5.03724e-09 DIIS
   @RHF iter  14:  -342.31044996062809   -2.33058e-12   1.38431e-09 DIIS
   @RHF iter  15:  -342.31044996062758    5.11591e-13   4.82828e-10 DIIS
   @RHF iter  16:  -342.31044996062798   -3.97904e-13   1.49270e-10 DIIS
   @RHF iter  17:  -342.31044996062610    1.87583e-12   6.19263e-11 DIIS
  Energy and wave function converged.

  ==> Post-Iterations <==

    Orbital Energies [Eh]
    ---------------------

    Doubly Occupied:

       1A    -20.373647     2A    -20.284453     3A    -20.268865
       4A    -11.140484     5A    -11.130449     6A    -11.053963
       7A     -1.177486     8A     -1.166296     9A     -1.055071
      10A     -0.804034    11A     -0.776973    12A     -0.533927
      13A     -0.508964    14A     -0.471567    15A     -0.439348
      16A     -0.419464    17A     -0.418043    18A     -0.414182
      19A     -0.355549    20A     -0.339786    21A     -0.317699
      22A     -0.280498    23A     -0.203217    24A     -0.185899
      25A     -0.179766

    Virtual:

      26A      0.313817    27A      0.355361    28A      0.379628
      29A      0.387663    30A      0.389415    31A      0.430223
      32A      0.469838    33A      0.475131    34A      0.562380
      35A      0.591357    36A      0.697998    37A      0.729851
      38A      0.760666    39A      0.804104    40A      0.822612
      41A      0.860935    42A      0.887528    43A      0.944355
      44A      0.954206    45A      0.979146    46A      0.990113
      47A      1.007514    48A      1.024634    49A      1.028213
      50A      1.044642    51A      1.059471    52A      1.097190
      53A      1.141576    54A      1.215861    55A      1.270584
      56A      1.300733    57A      1.315683    58A      1.333813
      59A      1.341961    60A      1.388977    61A      1.503735
      62A      1.530801    63A      1.545222    64A      1.564055
      65A      1.590055    66A      1.609939    67A      1.640074
      68A      1.712181    69A      1.728815    70A      1.788860
      71A      1.812536    72A      1.827018    73A      1.843650
      74A      1.863133    75A      1.876255    76A      1.984934
      77A      2.034848    78A      2.048710    79A      2.067420
      80A      2.077643    81A      2.083457    82A      2.101424
      83A      2.124267    84A      2.187407    85A      2.217893
      86A      2.272209    87A      2.281026    88A      2.336646
      89A      2.375620    90A      2.432661    91A      2.451783
      92A      2.525352    93A      2.543719    94A      2.570306
      95A      2.637319    96A      2.675109    97A      2.745680
      98A      2.868111    99A      2.878103   100A      2.895651
     101A      2.919143   102A      2.946835   103A      2.968795
     104A      3.007591   105A      3.249842   106A      3.267306
     107A      3.334535   108A      3.373231   109A      3.468184
     110A      3.548459   111A      3.593928   112A      3.631657
     113A      3.760547   114A      3.774807   115A      3.825504
     116A      4.050513   117A      4.082983   118A      4.184335
     119A      4.303806

    Final Occupation by Irrep:
              A
    DOCC [    25 ]

  @RHF Final Energy:  -342.31044996062610

   => Energetics <=

    Nuclear Repulsion Energy =            231.2304257222403692
    One-Electron Energy =                -938.4824951808146807
    Two-Electron Energy =                 364.9416194979481816
    Total Energy =                       -342.3104499606261015

Computation Completed

Properties will be evaluated at   0.000000,   0.000000,   0.000000 [a0]

Properties computed using the SCF density matrix

  Nuclear Dipole Moment: [e a0]
     X:     8.3877      Y:    -1.6604      Z:     3.2817

  Electronic Dipole Moment: [e a0]
     X:    -6.1723      Y:     1.3455      Z:    -2.3762

  Dipole Moment: [e a0]
     X:     2.2155      Y:    -0.3149      Z:     0.9055     Total:     2.4140

  Dipole Moment: [D]
     X:     5.6311      Y:    -0.8005      Z:     2.3015     Total:     6.1357

*** tstop() called on ds3 at Mon Apr 27 23:03:09 2020
Module time:
	user time   =      11.47 seconds =       0.19 minutes
	system time =       5.62 seconds =       0.09 minutes
	total time  =         17 seconds =       0.28 minutes
Total time:
	user time   =      11.47 seconds =       0.19 minutes
	system time =       5.62 seconds =       0.09 minutes
	total time  =         17 seconds =       0.28 minutes
                                     G D M A

                                 by Anthony Stone

                           version 2.2.06, 22 June 2011

               Distributed Multipoles from Gaussian wavefunctions

Starting at 23:3:9 on 27 Apr 2020

Using SCF density matrix from file ./SSI/SSI-140GLU-155THR-1-dimer.test.777.fchk

                         Distributed Multipole Analysis

Standard DMA

Positions and radii in angstrom
Multipole moments in atomic units, ea_0^k for rank k

C          x =  0.601486  y =  0.294066  z = -1.629575 angstrom
           Maximum rank =  0   Radius =  0.650 angstrom
                   Q00  =  -0.285753

C          x = -0.742514  y =  0.559066  z = -0.977575 angstrom
           Maximum rank =  0   Radius =  0.650 angstrom
                   Q00  =   0.948009

O          x = -0.809514  y =  0.607066  z =  0.270425 angstrom
           Maximum rank =  0   Radius =  0.650 angstrom
                   Q00  =  -0.941985

O          x = -1.730514  y =  0.743066  z = -1.715575 angstrom
           Maximum rank =  0   Radius =  0.650 angstrom
                   Q00  =  -0.910008

H          x =  1.289486  y = -0.016934  z = -0.845575 angstrom
           Maximum rank =  0   Radius =  0.325 angstrom
                   Q00  =   0.052851

H          x =  0.992486  y =  1.223066  z = -2.049575 angstrom
           Maximum rank =  0   Radius =  0.325 angstrom
                   Q00  =   0.075831

H          x =  0.564916  y = -0.460494  z = -2.429140 angstrom
           Maximum rank =  0   Radius =  0.325 angstrom
                   Q00  =   0.072797

C          x =  1.723486  y = -0.769934  z =  2.355425 angstrom
           Maximum rank =  0   Radius =  0.650 angstrom
                   Q00  =  -0.013761

O          x =  0.788486  y = -1.300934  z =  1.413425 angstrom
           Maximum rank =  0   Radius =  0.650 angstrom
                   Q00  =  -0.683959

H          x =  0.224486  y = -0.566934  z =  1.083425 angstrom
           Maximum rank =  0   Radius =  0.325 angstrom
                   Q00  =   0.525099

H          x =  1.600486  y =  0.307066  z =  2.419425 angstrom
           Maximum rank =  0   Radius =  0.325 angstrom
                   Q00  =   0.064668

H          x =  1.552746  y = -1.243584  z =  3.333437 angstrom
           Maximum rank =  0   Radius =  0.325 angstrom
                   Q00  =   0.047184

H          x =  2.731546  y = -1.013634  z =  1.988791 angstrom
           Maximum rank =  0   Radius =  0.325 angstrom
                   Q00  =   0.049028

Total multipoles referred to origin at
           x =   0.000000,  y =    0.000000,  z =    0.000000 angstrom
                   Q00  =  -1.000000

Finished at 23:3:9 on 27 Apr 2020

  DMA results are available in the Python driver through the
	  variable('DMA DISTRIBUTED MULTIPOLES')
  and
	  variable('DMA TOTAL MULTIPOLES')
  commands.

    Psi4 stopped on: Monday, 27 April 2020 11:03PM
    Psi4 wall time for execution: 0:00:16.90

*** Psi4 exiting successfully. Buy a developer a beer!
