                               Psi4 1.3.2 release

  ==> Input File <==

--------------------------------------------------------------------------
import numpy as np
set {scf_type pk
basis cc-pvdz
d_convergence 10
gdma_switch   0
gdma_limit    0
gdma_origin   [ 0.0,  0.0,  0.0 ]
}
molecule test {
    units Angstrom
    0 1
    --
    0 1
    C               -1.876372275641700    -1.190126270622538     1.805150307607103
    C               -1.457372275641700    -2.654126270622537     1.697150307607103
    H               -1.176372275641700    -0.630126270622538     2.423150307607103
    H               -1.863372275641700    -0.748126270622538     0.808150307607103
    H               -2.888372275641701    -1.108126270622538     2.205150307607104
    H               -0.382372275641700    -2.714126270622538     1.523150307607103
    H               -1.976372275641700    -3.092126270622538     0.846150307607103
    H               -1.733823275641700    -3.189076270622537     2.617695407607104
    C               -0.285372275641700    -1.354126270622538    -2.615849692392897
    C                1.047627724358300    -0.723126270622538    -0.578849692392897
    C                0.067627724358300    -0.377126270622538    -1.515849692392897
    C                1.429627724358300     0.165873729377462     0.420150307607103
    C                0.816627724358300     1.418873729377462     0.508150307607103
    C               -0.536372275641700     0.883873729377462    -1.424849692392897
    C               -0.170372275641700     1.776873729377462    -0.414849692392897
    O                1.187627724358300     2.308873729377463     1.478150307607103
    H                1.526627724358300    -1.693126270622538    -0.634849692392897
    H                2.189627724358300    -0.118126270622538     1.135150307607103
    H                0.108627724358300    -2.345126270622537    -2.378849692392897
    H                0.249627724358300    -1.007126270622538    -3.501849692392897
    H               -1.277372275641700     1.193873729377462    -2.137849692392897
    H                1.864627724358300     1.954873729377462     2.060150307607103
    H               -0.652372275641700     2.735873729377463    -0.326849692392897
    H               -1.354867275641700    -1.436566270622538    -2.859540692392897

}
e, wfn = energy('scf', return_wfn=True)
gdma(wfn)
dmavals = variable('DMA DISTRIBUTED MULTIPOLES')
charges = np.array(dmavals)
print(charges)
np.save('SSI-062ILE-069TYR-1-dimer.npy', np.array(charges))--------------------------------------------------------------------------

*** tstart() called on ds3
*** at Tue Apr 28 21:08:08 2020

   => Loading Basis Set <=

    Name: CC-PVDZ
    Role: ORBITAL
    Keyword: BASIS
    atoms 1-2, 9-15  entry C          line   138 file /theoryfs2/ds/metcalf/miniconda2/envs/tf2gpu/share/psi4/basis/cc-pvdz.gbs
    atoms 3-8, 17-24 entry H          line    22 file /theoryfs2/ds/metcalf/miniconda2/envs/tf2gpu/share/psi4/basis/cc-pvdz.gbs
    atoms 16         entry O          line   198 file /theoryfs2/ds/metcalf/miniconda2/envs/tf2gpu/share/psi4/basis/cc-pvdz.gbs

         ---------------------------------------------------------
                                   SCF
               by Justin Turney, Rob Parrish, Andy Simmonett
                          and Daniel G. A. Smith
                              RHF Reference
                        1 Threads,    500 MiB Core
         ---------------------------------------------------------

  ==> Geometry <==

    Molecular point group: c1
    Full point group: C1

    Geometry (in Angstrom), charge = 0, multiplicity = 1:

       Center              X                  Y                   Z               Mass
    ------------   -----------------  -----------------  -----------------  -----------------
         C           -1.876372275642    -1.190126270623     1.805150307607    12.000000000000
         C           -1.457372275642    -2.654126270623     1.697150307607    12.000000000000
         H           -1.176372275642    -0.630126270623     2.423150307607     1.007825032230
         H           -1.863372275642    -0.748126270623     0.808150307607     1.007825032230
         H           -2.888372275642    -1.108126270623     2.205150307607     1.007825032230
         H           -0.382372275642    -2.714126270623     1.523150307607     1.007825032230
         H           -1.976372275642    -3.092126270623     0.846150307607     1.007825032230
         H           -1.733823275642    -3.189076270623     2.617695407607     1.007825032230
         C           -0.285372275642    -1.354126270623    -2.615849692393    12.000000000000
         C            1.047627724358    -0.723126270623    -0.578849692393    12.000000000000
         C            0.067627724358    -0.377126270623    -1.515849692393    12.000000000000
         C            1.429627724358     0.165873729377     0.420150307607    12.000000000000
         C            0.816627724358     1.418873729377     0.508150307607    12.000000000000
         C           -0.536372275642     0.883873729377    -1.424849692393    12.000000000000
         C           -0.170372275642     1.776873729377    -0.414849692393    12.000000000000
         O            1.187627724358     2.308873729377     1.478150307607    15.994914619570
         H            1.526627724358    -1.693126270623    -0.634849692393     1.007825032230
         H            2.189627724358    -0.118126270623     1.135150307607     1.007825032230
         H            0.108627724358    -2.345126270623    -2.378849692393     1.007825032230
         H            0.249627724358    -1.007126270623    -3.501849692393     1.007825032230
         H           -1.277372275642     1.193873729377    -2.137849692393     1.007825032230
         H            1.864627724358     1.954873729377     2.060150307607     1.007825032230
         H           -0.652372275642     2.735873729377    -0.326849692393     1.007825032230
         H           -1.354867275642    -1.436566270623    -2.859540692393     1.007825032230

  Running in c1 symmetry.

  Rotational constants: A =      0.04099  B =      0.03273  C =      0.02293 [cm^-1]
  Rotational constants: A =   1228.89990  B =    981.24424  C =    687.37394 [MHz]
  Nuclear repulsion =  509.267977702118458

  Charge       = 0
  Multiplicity = 1
  Electrons    = 76
  Nalpha       = 38
  Nbeta        = 38

  ==> Algorithm <==

  SCF Algorithm Type is PK.
  DIIS enabled.
  MOM disabled.
  Fractional occupation disabled.
  Guess Type is SAD.
  Energy threshold   = 1.00e-06
  Density threshold  = 1.00e-10
  Integral threshold = 0.00e+00

  ==> Primary Basis <==

  Basis Set: CC-PVDZ
    Blend: CC-PVDZ
    Number of shells: 102
    Number of basis function: 210
    Number of Cartesian functions: 220
    Spherical Harmonics?: true
    Max angular momentum: 2

  ==> Pre-Iterations <==

   -------------------------------------------------------
    Irrep   Nso     Nmo     Nalpha   Nbeta   Ndocc  Nsocc
   -------------------------------------------------------
     A        210     210       0       0       0       0
   -------------------------------------------------------
    Total     210     210      38      38      38       0
   -------------------------------------------------------

  ==> Integral Setup <==

  Using integral reordering PK algorithm.
  Sizing the integral batches needed.
  Building batch lookup table.
   Calculation information:
      Number of atoms:                  24
      Number of AO shells:             102
      Number of primitives:            290
      Number of atomic orbitals:       220
      Number of basis functions:       210

      Integral cutoff                 1.00e-12
      Number of threads:                 1

	Batch   1 pq = [       0,    9405] index = [             0,44231715] size =     44231715
	Batch   2 pq = [    9405,   13301] index = [      44231715,88464951] size =     44233236
	Batch   3 pq = [   13301,   16290] index = [      88464951,132690195] size =     44225244
	Batch   4 pq = [   16290,   18810] index = [     132690195,176917455] size =     44227260
	Batch   5 pq = [   18810,   21030] index = [     176917455,221140965] size =     44223510
	Batch   6 pq = [   21030,   22155] index = [     221140965,245433090] size =     24292125
  Task number: 23
  Buffer size: 11059200
  Buffer per thread: 2
  We computed 13470596 shell quartets total.
  Whereas there are 13799631 unique shell quartets.

  ==> DiskJK: Disk-Based J/K Matrices <==

    J tasked:                  Yes
    K tasked:                  Yes
    wK tasked:                  No
    Memory [MiB]:              375
    Schwarz Cutoff:          1E-12

    OpenMP threads:              1

  Minimum eigenvalue in the overlap matrix is 3.3124685377E-04.
  Using Symmetric Orthogonalization.

  SCF Guess: Superposition of Atomic Densities via on-the-fly atomic UHF.

  ==> Iterations <==

                        Total Energy        Delta E     RMS |[F,P]|

   @RHF iter SAD:  -422.62727337752540   -4.22627e+02   0.00000e+00
   @RHF iter   1:  -423.60052313604751   -9.73250e-01   2.98152e-03 DIIS
   @RHF iter   2:  -423.81615306437175   -2.15630e-01   1.26486e-03 DIIS
   @RHF iter   3:  -423.85134636296596   -3.51933e-02   2.84339e-04 DIIS
   @RHF iter   4:  -423.85420004452584   -2.85368e-03   1.18554e-04 DIIS
   @RHF iter   5:  -423.85456188034681   -3.61836e-04   2.10867e-05 DIIS
   @RHF iter   6:  -423.85457974744105   -1.78671e-05   6.44837e-06 DIIS
   @RHF iter   7:  -423.85458144601125   -1.69857e-06   2.10751e-06 DIIS
   @RHF iter   8:  -423.85458168289597   -2.36885e-07   7.79262e-07 DIIS
   @RHF iter   9:  -423.85458172354163   -4.06457e-08   3.19893e-07 DIIS
   @RHF iter  10:  -423.85458173145668   -7.91505e-09   1.34600e-07 DIIS
   @RHF iter  11:  -423.85458173396449   -2.50782e-09   5.93253e-08 DIIS
   @RHF iter  12:  -423.85458173441214   -4.47642e-10   2.68839e-08 DIIS
   @RHF iter  13:  -423.85458173448194   -6.98037e-11   8.34390e-09 DIIS
   @RHF iter  14:  -423.85458173448524   -3.29692e-12   2.39836e-09 DIIS
   @RHF iter  15:  -423.85458173448609   -8.52651e-13   8.57159e-10 DIIS
   @RHF iter  16:  -423.85458173448666   -5.68434e-13   3.57409e-10 DIIS
   @RHF iter  17:  -423.85458173448353    3.12639e-12   1.67079e-10 DIIS
   @RHF iter  18:  -423.85458173448626   -2.72848e-12   8.10876e-11 DIIS
  Energy and wave function converged.

  ==> Post-Iterations <==

    Orbital Energies [Eh]
    ---------------------

    Doubly Occupied:

       1A    -20.583473     2A    -11.301743     3A    -11.240444
       4A    -11.240099     5A    -11.237448     6A    -11.235258
       7A    -11.232596     8A    -11.230241     9A    -11.210427
      10A    -11.203899    11A     -1.398312    12A     -1.149543
      13A     -1.036390    14A     -1.018580    15A     -1.009746
      16A     -0.926787    17A     -0.843433    18A     -0.826553
      19A     -0.803509    20A     -0.732492    21A     -0.667957
      22A     -0.643125    23A     -0.604585    24A     -0.594663
      25A     -0.589937    26A     -0.588333    27A     -0.582571
      28A     -0.571320    29A     -0.567933    30A     -0.527925
      31A     -0.498219    32A     -0.489838    33A     -0.486573
      34A     -0.479797    35A     -0.476322    36A     -0.461281
      37A     -0.339778    38A     -0.300807

    Virtual:

      39A      0.128440    40A      0.153153    41A      0.170339
      42A      0.178389    43A      0.207249    44A      0.211014
      45A      0.217211    46A      0.253299    47A      0.257628
      48A      0.262325    49A      0.264447    50A      0.267751
      51A      0.278958    52A      0.290582    53A      0.309717
      54A      0.322682    55A      0.368231    56A      0.371907
      57A      0.405071    58A      0.429479    59A      0.454024
      60A      0.479522    61A      0.491646    62A      0.507728
      63A      0.571741    64A      0.596536    65A      0.600356
      66A      0.613817    67A      0.630337    68A      0.645557
      69A      0.661876    70A      0.679427    71A      0.686384
      72A      0.693548    73A      0.696695    74A      0.728971
      75A      0.733693    76A      0.763131    77A      0.772984
      78A      0.779254    79A      0.789483    80A      0.804395
      81A      0.836049    82A      0.840886    83A      0.847390
      84A      0.855111    85A      0.871084    86A      0.877189
      87A      0.882037    88A      0.885582    89A      0.894727
      90A      0.901537    91A      0.914984    92A      0.919432
      93A      0.931900    94A      0.941164    95A      0.946778
      96A      0.950373    97A      0.965373    98A      0.986070
      99A      0.994270   100A      1.016247   101A      1.039289
     102A      1.098852   103A      1.122995   104A      1.126713
     105A      1.135229   106A      1.142073   107A      1.145754
     108A      1.172438   109A      1.207474   110A      1.234026
     111A      1.235856   112A      1.256161   113A      1.275197
     114A      1.289022   115A      1.299031   116A      1.309733
     117A      1.312837   118A      1.350322   119A      1.357145
     120A      1.387245   121A      1.475659   122A      1.487464
     123A      1.494892   124A      1.503300   125A      1.533227
     126A      1.566367   127A      1.587475   128A      1.607909
     129A      1.620906   130A      1.671769   131A      1.686853
     132A      1.695627   133A      1.715870   134A      1.737152
     135A      1.745006   136A      1.782562   137A      1.801510
     138A      1.822218   139A      1.856672   140A      1.865756
     141A      1.886985   142A      1.893577   143A      1.896686
     144A      1.899434   145A      1.907179   146A      1.916904
     147A      1.931340   148A      1.941139   149A      1.946381
     150A      1.955593   151A      1.958103   152A      1.966100
     153A      1.967464   154A      1.972195   155A      1.982972
     156A      1.993171   157A      2.022206   158A      2.055431
     159A      2.069744   160A      2.084877   161A      2.093110
     162A      2.124299   163A      2.136762   164A      2.149663
     165A      2.162069   166A      2.170337   167A      2.206318
     168A      2.214485   169A      2.259863   170A      2.275803
     171A      2.292938   172A      2.304279   173A      2.327596
     174A      2.352133   175A      2.373756   176A      2.401573
     177A      2.451541   178A      2.452858   179A      2.462164
     180A      2.469416   181A      2.479994   182A      2.530431
     183A      2.542558   184A      2.598658   185A      2.599987
     186A      2.610908   187A      2.637629   188A      2.735807
     189A      2.757070   190A      2.776707   191A      2.788932
     192A      2.806834   193A      2.808983   194A      2.836845
     195A      2.852005   196A      2.869798   197A      2.894635
     198A      2.960843   199A      2.962867   200A      2.982955
     201A      3.000526   202A      3.084099   203A      3.135280
     204A      3.245633   205A      3.275893   206A      3.346730
     207A      3.564822   208A      3.665719   209A      3.960329
     210A      4.191767

    Final Occupation by Irrep:
              A
    DOCC [    38 ]

  @RHF Final Energy:  -423.85458173448626

   => Energetics <=

    Nuclear Repulsion Energy =            509.2679777021184577
    One-Electron Energy =               -1584.3812474805529291
    Two-Electron Energy =                 651.2586880439481547
    Total Energy =                       -423.8545817344862598

Computation Completed

Properties will be evaluated at   0.000000,   0.000000,   0.000000 [a0]

Properties computed using the SCF density matrix

  Nuclear Dipole Moment: [e a0]
     X:    -6.8998      Y:   -11.4234      Z:     1.6748

  Electronic Dipole Moment: [e a0]
     X:     7.2506      Y:    11.0394      Z:    -1.7088

  Dipole Moment: [e a0]
     X:     0.3507      Y:    -0.3840      Z:    -0.0340     Total:     0.5212

  Dipole Moment: [D]
     X:     0.8915      Y:    -0.9761      Z:    -0.0863     Total:     1.3247

*** tstop() called on ds3 at Tue Apr 28 21:11:33 2020
Module time:
	user time   =      97.23 seconds =       1.62 minutes
	system time =      34.11 seconds =       0.57 minutes
	total time  =        205 seconds =       3.42 minutes
Total time:
	user time   =      97.23 seconds =       1.62 minutes
	system time =      34.11 seconds =       0.57 minutes
	total time  =        205 seconds =       3.42 minutes
                                     G D M A

                                 by Anthony Stone

                           version 2.2.06, 22 June 2011

               Distributed Multipoles from Gaussian wavefunctions

Starting at 21:11:33 on 28 Apr 2020

Using SCF density matrix from file ./SSI/SSI-062ILE-069TYR-1-dimer.test.11264.fchk

                         Distributed Multipole Analysis

Standard DMA

Positions and radii in angstrom
Multipole moments in atomic units, ea_0^k for rank k

C          x = -1.876372  y = -1.190126  z =  1.805150 angstrom
           Maximum rank =  0   Radius =  0.650 angstrom
                   Q00  =  -0.221865

C          x = -1.457372  y = -2.654126  z =  1.697150 angstrom
           Maximum rank =  0   Radius =  0.650 angstrom
                   Q00  =  -0.239531

H          x = -1.176372  y = -0.630126  z =  2.423150 angstrom
           Maximum rank =  0   Radius =  0.325 angstrom
                   Q00  =   0.076902

H          x = -1.863372  y = -0.748126  z =  0.808150 angstrom
           Maximum rank =  0   Radius =  0.325 angstrom
                   Q00  =   0.087078

H          x = -2.888372  y = -1.108126  z =  2.205150 angstrom
           Maximum rank =  0   Radius =  0.325 angstrom
                   Q00  =   0.071338

H          x = -0.382372  y = -2.714126  z =  1.523150 angstrom
           Maximum rank =  0   Radius =  0.325 angstrom
                   Q00  =   0.077055

H          x = -1.976372  y = -3.092126  z =  0.846150 angstrom
           Maximum rank =  0   Radius =  0.325 angstrom
                   Q00  =   0.074222

H          x = -1.733823  y = -3.189076  z =  2.617695 angstrom
           Maximum rank =  0   Radius =  0.325 angstrom
                   Q00  =   0.072199

C          x = -0.285372  y = -1.354126  z = -2.615850 angstrom
           Maximum rank =  0   Radius =  0.650 angstrom
                   Q00  =  -0.205437

C          x =  1.047628  y = -0.723126  z = -0.578850 angstrom
           Maximum rank =  0   Radius =  0.650 angstrom
                   Q00  =   0.028758

C          x =  0.067628  y = -0.377126  z = -1.515850 angstrom
           Maximum rank =  0   Radius =  0.650 angstrom
                   Q00  =  -0.134010

C          x =  1.429628  y =  0.165874  z =  0.420150 angstrom
           Maximum rank =  0   Radius =  0.650 angstrom
                   Q00  =  -0.193265

C          x =  0.816628  y =  1.418874  z =  0.508150 angstrom
           Maximum rank =  0   Radius =  0.650 angstrom
                   Q00  =   0.324974

C          x = -0.536372  y =  0.883874  z = -1.424850 angstrom
           Maximum rank =  0   Radius =  0.650 angstrom
                   Q00  =  -0.021868

C          x = -0.170372  y =  1.776874  z = -0.414850 angstrom
           Maximum rank =  0   Radius =  0.650 angstrom
                   Q00  =  -0.110924

O          x =  1.187628  y =  2.308874  z =  1.478150 angstrom
           Maximum rank =  0   Radius =  0.650 angstrom
                   Q00  =  -0.675531

H          x =  1.526628  y = -1.693126  z = -0.634850 angstrom
           Maximum rank =  0   Radius =  0.325 angstrom
                   Q00  =   0.070019

H          x =  2.189628  y = -0.118126  z =  1.135150 angstrom
           Maximum rank =  0   Radius =  0.325 angstrom
                   Q00  =   0.072676

H          x =  0.108628  y = -2.345126  z = -2.378850 angstrom
           Maximum rank =  0   Radius =  0.325 angstrom
                   Q00  =   0.097322

H          x =  0.249628  y = -1.007126  z = -3.501850 angstrom
           Maximum rank =  0   Radius =  0.325 angstrom
                   Q00  =   0.097072

H          x = -1.277372  y =  1.193874  z = -2.137850 angstrom
           Maximum rank =  0   Radius =  0.325 angstrom
                   Q00  =   0.063691

H          x =  1.864628  y =  1.954874  z =  2.060150 angstrom
           Maximum rank =  0   Radius =  0.325 angstrom
                   Q00  =   0.405820

H          x = -0.652372  y =  2.735874  z = -0.326850 angstrom
           Maximum rank =  0   Radius =  0.325 angstrom
                   Q00  =   0.082495

H          x = -1.354867  y = -1.436566  z = -2.859541 angstrom
           Maximum rank =  0   Radius =  0.325 angstrom
                   Q00  =   0.100809

Total multipoles referred to origin at
           x =   0.000000,  y =    0.000000,  z =    0.000000 angstrom
                   Q00  =  -0.000000

Finished at 21:11:33 on 28 Apr 2020

  DMA results are available in the Python driver through the
	  variable('DMA DISTRIBUTED MULTIPOLES')
  and
	  variable('DMA TOTAL MULTIPOLES')
  commands.

    Psi4 stopped on: Tuesday, 28 April 2020 09:11PM
    Psi4 wall time for execution: 0:03:24.57

*** Psi4 exiting successfully. Buy a developer a beer!
