                               Psi4 1.3.2 release

  ==> Input File <==

--------------------------------------------------------------------------
import numpy as np
set {scf_type pk
basis cc-pvdz
d_convergence 10
gdma_switch   0
gdma_limit    0
gdma_origin   [ 0.0,  0.0,  0.0 ]
}
molecule test {
    units Angstrom
    -1 1
    --
    -1 1
    C                0.173800266480587    -0.156921361224739     1.430480444672199
    C               -1.094199733519413     0.141078638775261     2.223480444672198
    C                0.607800266480586     0.981078638775261     0.535480444672198
    O               -0.176199733519413     1.946078638775261     0.291480444672198
    O                1.773800266480587     0.897078638775261     0.045480444672198
    H                0.969800266480586    -0.384921361224739     2.121480444672198
    H                0.020800266480587    -1.050921361224739     0.835480444672199
    H               -0.915199733519413     1.036078638775261     2.816480444672198
    H               -1.308929733519413    -0.708801361224739     2.888010444672199
    H               -1.948509733519413     0.287388638775261     1.546170444672198
    C               -0.075199733519413    -2.098921361224739    -1.697519555327802
    C               -1.167199733519413    -1.638921361224739    -2.684519555327801
    H               -0.533199733519413    -2.393921361224739    -0.753519555327801
    H                0.456800266480587    -2.957921361224739    -2.108519555327801
    H                0.640800266480587    -1.294921361224739    -1.533519555327802
    H               -0.695199733519413    -1.589921361224739    -3.667519555327801
    H               -1.574459733519413    -0.646771361224739    -2.440009555327802
    H               -1.952679733519413    -2.405381361224739    -2.759119555327802

}
e, wfn = energy('scf', return_wfn=True)
gdma(wfn)
dmavals = variable('DMA DISTRIBUTED MULTIPOLES')
charges = np.array(dmavals)
print(charges)
np.save('SSI-067ASP-070ALA-1-dimer.npy', np.array(charges))--------------------------------------------------------------------------

*** tstart() called on ds3
*** at Tue Apr 28 08:08:11 2020

   => Loading Basis Set <=

    Name: CC-PVDZ
    Role: ORBITAL
    Keyword: BASIS
    atoms 1-3, 11-12  entry C          line   138 file /theoryfs2/ds/metcalf/miniconda2/envs/tf2gpu/share/psi4/basis/cc-pvdz.gbs
    atoms 4-5         entry O          line   198 file /theoryfs2/ds/metcalf/miniconda2/envs/tf2gpu/share/psi4/basis/cc-pvdz.gbs
    atoms 6-10, 13-18 entry H          line    22 file /theoryfs2/ds/metcalf/miniconda2/envs/tf2gpu/share/psi4/basis/cc-pvdz.gbs

         ---------------------------------------------------------
                                   SCF
               by Justin Turney, Rob Parrish, Andy Simmonett
                          and Daniel G. A. Smith
                              RHF Reference
                        1 Threads,    500 MiB Core
         ---------------------------------------------------------

  ==> Geometry <==

    Molecular point group: c1
    Full point group: C1

    Geometry (in Angstrom), charge = -1, multiplicity = 1:

       Center              X                  Y                   Z               Mass
    ------------   -----------------  -----------------  -----------------  -----------------
         C            0.173800266481    -0.156921361225     1.430480444672    12.000000000000
         C           -1.094199733519     0.141078638775     2.223480444672    12.000000000000
         C            0.607800266481     0.981078638775     0.535480444672    12.000000000000
         O           -0.176199733519     1.946078638775     0.291480444672    15.994914619570
         O            1.773800266481     0.897078638775     0.045480444672    15.994914619570
         H            0.969800266481    -0.384921361225     2.121480444672     1.007825032230
         H            0.020800266481    -1.050921361225     0.835480444672     1.007825032230
         H           -0.915199733519     1.036078638775     2.816480444672     1.007825032230
         H           -1.308929733519    -0.708801361225     2.888010444672     1.007825032230
         H           -1.948509733519     0.287388638775     1.546170444672     1.007825032230
         C           -0.075199733519    -2.098921361225    -1.697519555328    12.000000000000
         C           -1.167199733519    -1.638921361225    -2.684519555328    12.000000000000
         H           -0.533199733519    -2.393921361225    -0.753519555328     1.007825032230
         H            0.456800266481    -2.957921361225    -2.108519555328     1.007825032230
         H            0.640800266481    -1.294921361225    -1.533519555328     1.007825032230
         H           -0.695199733519    -1.589921361225    -3.667519555328     1.007825032230
         H           -1.574459733519    -0.646771361225    -2.440009555328     1.007825032230
         H           -1.952679733519    -2.405381361225    -2.759119555328     1.007825032230

  Running in c1 symmetry.

  Rotational constants: A =      0.09098  B =      0.03783  C =      0.03329 [cm^-1]
  Rotational constants: A =   2727.44043  B =   1134.16602  C =    998.12707 [MHz]
  Nuclear repulsion =  294.786474871802568

  Charge       = -1
  Multiplicity = 1
  Electrons    = 58
  Nalpha       = 29
  Nbeta        = 29

  ==> Algorithm <==

  SCF Algorithm Type is PK.
  DIIS enabled.
  MOM disabled.
  Fractional occupation disabled.
  Guess Type is SAD.
  Energy threshold   = 1.00e-06
  Density threshold  = 1.00e-10
  Integral threshold = 0.00e+00

  ==> Primary Basis <==

  Basis Set: CC-PVDZ
    Blend: CC-PVDZ
    Number of shells: 75
    Number of basis function: 153
    Number of Cartesian functions: 160
    Spherical Harmonics?: true
    Max angular momentum: 2

  ==> Pre-Iterations <==

   -------------------------------------------------------
    Irrep   Nso     Nmo     Nalpha   Nbeta   Ndocc  Nsocc
   -------------------------------------------------------
     A        153     153       0       0       0       0
   -------------------------------------------------------
    Total     153     153      29      29      29       0
   -------------------------------------------------------

  ==> Integral Setup <==

  Using integral reordering PK algorithm.
  Sizing the integral batches needed.
  Building batch lookup table.
   Calculation information:
      Number of atoms:                  18
      Number of AO shells:              75
      Number of primitives:            209
      Number of atomic orbitals:       160
      Number of basis functions:       153

      Integral cutoff                 1.00e-12
      Number of threads:                 1

	Batch   1 pq = [       0,    9405] index = [             0,44231715] size =     44231715
	Batch   2 pq = [    9405,   11781] index = [      44231715,69401871] size =     25170156
  Task number: 7
  Buffer size: 11059200
  Buffer per thread: 2
  We computed 3611537 shell quartets total.
  Whereas there are 4062675 unique shell quartets.

  ==> DiskJK: Disk-Based J/K Matrices <==

    J tasked:                  Yes
    K tasked:                  Yes
    wK tasked:                  No
    Memory [MiB]:              375
    Schwarz Cutoff:          1E-12

    OpenMP threads:              1

  Minimum eigenvalue in the overlap matrix is 3.5596603715E-03.
  Using Symmetric Orthogonalization.

  SCF Guess: Superposition of Atomic Densities via on-the-fly atomic UHF.

  ==> Iterations <==

                        Total Energy        Delta E     RMS |[F,P]|

   @RHF iter SAD:  -343.81505825527779   -3.43815e+02   0.00000e+00
   @RHF iter   1:  -345.21716307602560   -1.40210e+00   4.92172e-03 DIIS
   @RHF iter   2:  -345.43920019385507   -2.22037e-01   2.75697e-03 DIIS
   @RHF iter   3:  -345.50597070095870   -6.67705e-02   4.37643e-04 DIIS
   @RHF iter   4:  -345.50906988671710   -3.09919e-03   1.73408e-04 DIIS
   @RHF iter   5:  -345.50954539423793   -4.75508e-04   2.49306e-05 DIIS
   @RHF iter   6:  -345.50955926518867   -1.38710e-05   7.01693e-06 DIIS
   @RHF iter   7:  -345.50956001578936   -7.50601e-07   2.94677e-06 DIIS
   @RHF iter   8:  -345.50956012915174   -1.13362e-07   7.79203e-07 DIIS
   @RHF iter   9:  -345.50956014016606   -1.10143e-08   2.27690e-07 DIIS
   @RHF iter  10:  -345.50956014160715   -1.44109e-09   6.12430e-08 DIIS
   @RHF iter  11:  -345.50956014174892   -1.41767e-10   1.77434e-08 DIIS
   @RHF iter  12:  -345.50956014175898   -1.00613e-11   6.77999e-09 DIIS
   @RHF iter  13:  -345.50956014176501   -6.02540e-12   2.51691e-09 DIIS
   @RHF iter  14:  -345.50956014176262    2.38742e-12   8.42995e-10 DIIS
   @RHF iter  15:  -345.50956014176376   -1.13687e-12   3.05638e-10 DIIS
   @RHF iter  16:  -345.50956014176359    1.70530e-13   1.05697e-10 DIIS
   @RHF iter  17:  -345.50956014176381   -2.27374e-13   4.04213e-11 DIIS
  Energy and wave function converged.

  ==> Post-Iterations <==

    Orbital Energies [Eh]
    ---------------------

    Doubly Occupied:

       1A    -20.264417     2A    -20.257328     3A    -11.116051
       4A    -11.113158     5A    -11.100244     6A    -11.070665
       7A    -11.049721     8A     -1.138786     9A     -1.028333
      10A     -0.903193    11A     -0.872663    12A     -0.726307
      13A     -0.701888    14A     -0.510795    15A     -0.486567
      16A     -0.484423    17A     -0.459100    18A     -0.428528
      19A     -0.387797    20A     -0.386455    21A     -0.376672
      22A     -0.373654    23A     -0.357443    24A     -0.350705
      25A     -0.323886    26A     -0.292990    27A     -0.182816
      28A     -0.170557    29A     -0.158176

    Virtual:

      30A      0.290327    31A      0.328779    32A      0.345491
      33A      0.355191    34A      0.371812    35A      0.384033
      36A      0.390930    37A      0.400532    38A      0.421400
      39A      0.432824    40A      0.452264    41A      0.498084
      42A      0.518311    43A      0.560070    44A      0.610672
      45A      0.686456    46A      0.704844    47A      0.720741
      48A      0.723106    49A      0.735597    50A      0.766098
      51A      0.789324    52A      0.793668    53A      0.854225
      54A      0.908272    55A      0.953328    56A      0.966280
      57A      0.976892    58A      0.992623    59A      0.997346
      60A      1.007548    61A      1.016723    62A      1.026086
      63A      1.030472    64A      1.043852    65A      1.048815
      66A      1.055235    67A      1.069633    68A      1.079528
      69A      1.082973    70A      1.094216    71A      1.129989
      72A      1.146782    73A      1.228038    74A      1.245795
      75A      1.297295    76A      1.316607    77A      1.347274
      78A      1.361557    79A      1.398035    80A      1.452458
      81A      1.503401    82A      1.553436    83A      1.584275
      84A      1.595893    85A      1.617821    86A      1.622180
      87A      1.649969    88A      1.662126    89A      1.713469
      90A      1.721317    91A      1.787097    92A      1.812144
      93A      1.825046    94A      1.837452    95A      1.870771
      96A      1.925638    97A      1.977497    98A      1.985705
      99A      1.999478   100A      2.011551   101A      2.038397
     102A      2.047043   103A      2.053648   104A      2.058597
     105A      2.060370   106A      2.079426   107A      2.109779
     108A      2.134969   109A      2.154890   110A      2.161404
     111A      2.178803   112A      2.203306   113A      2.216579
     114A      2.223454   115A      2.252588   116A      2.267412
     117A      2.345374   118A      2.390355   119A      2.408642
     120A      2.422582   121A      2.464950   122A      2.507663
     123A      2.547995   124A      2.549158   125A      2.596484
     126A      2.620893   127A      2.674164   128A      2.676685
     129A      2.706235   130A      2.728254   131A      2.778029
     132A      2.792731   133A      2.868888   134A      2.910150
     135A      2.917504   136A      2.947866   137A      2.970112
     138A      2.994488   139A      3.013019   140A      3.062189
     141A      3.087525   142A      3.091312   143A      3.141452
     144A      3.247017   145A      3.290429   146A      3.305684
     147A      3.359124   148A      3.622883   149A      3.767019
     150A      3.813210   151A      4.029320   152A      4.070960
     153A      4.181788

    Final Occupation by Irrep:
              A
    DOCC [    29 ]

  @RHF Final Energy:  -345.50956014176381

   => Energetics <=

    Nuclear Repulsion Energy =            294.7864748718025680
    One-Electron Energy =               -1066.4454388975395887
    Two-Electron Energy =                 426.1494038839732639
    Total Energy =                       -345.5095601417638136

Computation Completed

Properties will be evaluated at   0.000000,   0.000000,   0.000000 [a0]

Properties computed using the SCF density matrix

  Nuclear Dipole Moment: [e a0]
     X:    -6.4046      Y:   -11.3391      Z:    -2.8620

  Electronic Dipole Moment: [e a0]
     X:     5.0829      Y:     8.7911      Z:     2.7073

  Dipole Moment: [e a0]
     X:    -1.3217      Y:    -2.5480      Z:    -0.1547     Total:     2.8746

  Dipole Moment: [D]
     X:    -3.3593      Y:    -6.4765      Z:    -0.3931     Total:     7.3065

*** tstop() called on ds3 at Tue Apr 28 08:09:22 2020
Module time:
	user time   =      23.90 seconds =       0.40 minutes
	system time =       9.65 seconds =       0.16 minutes
	total time  =         71 seconds =       1.18 minutes
Total time:
	user time   =      23.90 seconds =       0.40 minutes
	system time =       9.65 seconds =       0.16 minutes
	total time  =         71 seconds =       1.18 minutes
                                     G D M A

                                 by Anthony Stone

                           version 2.2.06, 22 June 2011

               Distributed Multipoles from Gaussian wavefunctions

Starting at 8:9:22 on 28 Apr 2020

Using SCF density matrix from file ./SSI/SSI-067ASP-070ALA-1-dimer.test.9293.fchk

                         Distributed Multipole Analysis

Standard DMA

Positions and radii in angstrom
Multipole moments in atomic units, ea_0^k for rank k

C          x =  0.173800  y = -0.156921  z =  1.430480 angstrom
           Maximum rank =  0   Radius =  0.650 angstrom
                   Q00  =  -0.160076

C          x = -1.094200  y =  0.141079  z =  2.223480 angstrom
           Maximum rank =  0   Radius =  0.650 angstrom
                   Q00  =  -0.216644

C          x =  0.607800  y =  0.981079  z =  0.535480 angstrom
           Maximum rank =  0   Radius =  0.650 angstrom
                   Q00  =   1.011149

O          x = -0.176200  y =  1.946079  z =  0.291480 angstrom
           Maximum rank =  0   Radius =  0.650 angstrom
                   Q00  =  -0.964126

O          x =  1.773800  y =  0.897079  z =  0.045480 angstrom
           Maximum rank =  0   Radius =  0.650 angstrom
                   Q00  =  -0.940519

H          x =  0.969800  y = -0.384921  z =  2.121480 angstrom
           Maximum rank =  0   Radius =  0.325 angstrom
                   Q00  =   0.039273

H          x =  0.020800  y = -1.050921  z =  0.835480 angstrom
           Maximum rank =  0   Radius =  0.325 angstrom
                   Q00  =   0.058861

H          x = -0.915200  y =  1.036079  z =  2.816480 angstrom
           Maximum rank =  0   Radius =  0.325 angstrom
                   Q00  =   0.080433

H          x = -1.308930  y = -0.708801  z =  2.888010 angstrom
           Maximum rank =  0   Radius =  0.325 angstrom
                   Q00  =   0.011558

H          x = -1.948510  y =  0.287389  z =  1.546170 angstrom
           Maximum rank =  0   Radius =  0.325 angstrom
                   Q00  =   0.081829

C          x = -0.075200  y = -2.098921  z = -1.697520 angstrom
           Maximum rank =  0   Radius =  0.650 angstrom
                   Q00  =  -0.189197

C          x = -1.167200  y = -1.638921  z = -2.684520 angstrom
           Maximum rank =  0   Radius =  0.650 angstrom
                   Q00  =  -0.236520

H          x = -0.533200  y = -2.393921  z = -0.753520 angstrom
           Maximum rank =  0   Radius =  0.325 angstrom
                   Q00  =   0.066490

H          x =  0.456800  y = -2.957921  z = -2.108520 angstrom
           Maximum rank =  0   Radius =  0.325 angstrom
                   Q00  =   0.045618

H          x =  0.640800  y = -1.294921  z = -1.533520 angstrom
           Maximum rank =  0   Radius =  0.325 angstrom
                   Q00  =   0.102425

H          x = -0.695200  y = -1.589921  z = -3.667520 angstrom
           Maximum rank =  0   Radius =  0.325 angstrom
                   Q00  =   0.058549

H          x = -1.574460  y = -0.646771  z = -2.440010 angstrom
           Maximum rank =  0   Radius =  0.325 angstrom
                   Q00  =   0.104256

H          x = -1.952680  y = -2.405381  z = -2.759120 angstrom
           Maximum rank =  0   Radius =  0.325 angstrom
                   Q00  =   0.046639

Total multipoles referred to origin at
           x =   0.000000,  y =    0.000000,  z =    0.000000 angstrom
                   Q00  =  -1.000000

Finished at 8:9:22 on 28 Apr 2020

  DMA results are available in the Python driver through the
	  variable('DMA DISTRIBUTED MULTIPOLES')
  and
	  variable('DMA TOTAL MULTIPOLES')
  commands.

    Psi4 stopped on: Tuesday, 28 April 2020 08:09AM
    Psi4 wall time for execution: 0:01:11.56

*** Psi4 exiting successfully. Buy a developer a beer!
