                               Psi4 1.3.2 release

  ==> Input File <==

--------------------------------------------------------------------------
import numpy as np
set {scf_type pk
basis cc-pvdz
d_convergence 10
gdma_switch   0
gdma_limit    0
gdma_origin   [ 0.0,  0.0,  0.0 ]
}
molecule test {
    units Angstrom
    0 1
    --
    0 1
    C                0.091324314200521     0.393324428807376    -3.016793482455863
    C               -0.805675685799479    -0.575675571192624    -0.738793482455863
    C               -0.736675685799479    -0.541675571192624    -2.178793482455863
    C               -1.648675685799479    -1.663675571192624    -0.377793482455863
    C               -1.515675685799479    -1.568675571192624    -2.618793482455863
    C               -0.237675685799479     0.202324428807376     0.286206517544137
    C               -0.518675685799479    -0.119675571192624     1.619206517544137
    C               -1.354675685799479    -1.204675571192624     1.942206517544137
    C               -1.930675685799478    -1.985675571192624     0.949206517544137
    N               -2.062675685799479    -2.244675571192624    -1.549793482455862
    H                0.373324314200521     1.058324428807376     0.048206517544137
    H               -0.095675685799479     0.485324428807376     2.407206517544137
    H               -1.540675685799479    -1.432675571192624     2.983206517544137
    H               -0.268675685799479     1.409324428807376    -2.850793482455863
    H               -0.043675685799479     0.152324428807376    -4.070793482455863
    H               -1.650675685799479    -1.836675571192624    -3.662793482455863
    H               -2.675675685799479    -3.049675571192624    -1.639793482455863
    H               -2.565675685799479    -2.821675571192624     1.197206517544137
    H                1.159274314200521     0.351034428807376    -2.756613482455863
    C                2.588324314200521     2.342324428807376     1.552206517544138
    C                3.884324314200522     2.529324428807376     0.756206517544137
    O                2.633324314200521     3.055324428807376     2.773206517544137
    H                1.755324314200521     2.730324428807376     0.964206517544137
    H                2.412324314200522     1.282324428807376     1.741206517544137
    H                3.712324314200521     2.206324428807376    -0.262793482455863
    H                3.422324314200521     2.779324428807375     3.259206517544137
    H                4.697384314200522     1.901604428807376     1.149776517544137
    H                4.184884314200522     3.587464428807376     0.752566517544137

}
e, wfn = energy('scf', return_wfn=True)
gdma(wfn)
dmavals = variable('DMA DISTRIBUTED MULTIPOLES')
charges = np.array(dmavals)
print(charges)
np.save('SSI-058TRP-180SER-1-dimer.npy', np.array(charges))--------------------------------------------------------------------------

*** tstart() called on ds3
*** at Tue Apr 28 10:29:30 2020

   => Loading Basis Set <=

    Name: CC-PVDZ
    Role: ORBITAL
    Keyword: BASIS
    atoms 1-9, 20-21   entry C          line   138 file /theoryfs2/ds/metcalf/miniconda2/envs/tf2gpu/share/psi4/basis/cc-pvdz.gbs
    atoms 10           entry N          line   168 file /theoryfs2/ds/metcalf/miniconda2/envs/tf2gpu/share/psi4/basis/cc-pvdz.gbs
    atoms 11-19, 23-28 entry H          line    22 file /theoryfs2/ds/metcalf/miniconda2/envs/tf2gpu/share/psi4/basis/cc-pvdz.gbs
    atoms 22           entry O          line   198 file /theoryfs2/ds/metcalf/miniconda2/envs/tf2gpu/share/psi4/basis/cc-pvdz.gbs

         ---------------------------------------------------------
                                   SCF
               by Justin Turney, Rob Parrish, Andy Simmonett
                          and Daniel G. A. Smith
                              RHF Reference
                        1 Threads,    500 MiB Core
         ---------------------------------------------------------

  ==> Geometry <==

    Molecular point group: c1
    Full point group: C1

    Geometry (in Angstrom), charge = 0, multiplicity = 1:

       Center              X                  Y                   Z               Mass
    ------------   -----------------  -----------------  -----------------  -----------------
         C            0.091324314201     0.393324428807    -3.016793482456    12.000000000000
         C           -0.805675685799    -0.575675571193    -0.738793482456    12.000000000000
         C           -0.736675685799    -0.541675571193    -2.178793482456    12.000000000000
         C           -1.648675685799    -1.663675571193    -0.377793482456    12.000000000000
         C           -1.515675685799    -1.568675571193    -2.618793482456    12.000000000000
         C           -0.237675685799     0.202324428807     0.286206517544    12.000000000000
         C           -0.518675685799    -0.119675571193     1.619206517544    12.000000000000
         C           -1.354675685799    -1.204675571193     1.942206517544    12.000000000000
         C           -1.930675685799    -1.985675571193     0.949206517544    12.000000000000
         N           -2.062675685799    -2.244675571193    -1.549793482456    14.003074004430
         H            0.373324314201     1.058324428807     0.048206517544     1.007825032230
         H           -0.095675685799     0.485324428807     2.407206517544     1.007825032230
         H           -1.540675685799    -1.432675571193     2.983206517544     1.007825032230
         H           -0.268675685799     1.409324428807    -2.850793482456     1.007825032230
         H           -0.043675685799     0.152324428807    -4.070793482456     1.007825032230
         H           -1.650675685799    -1.836675571193    -3.662793482456     1.007825032230
         H           -2.675675685799    -3.049675571193    -1.639793482456     1.007825032230
         H           -2.565675685799    -2.821675571193     1.197206517544     1.007825032230
         H            1.159274314201     0.351034428807    -2.756613482456     1.007825032230
         C            2.588324314201     2.342324428807     1.552206517544    12.000000000000
         C            3.884324314201     2.529324428807     0.756206517544    12.000000000000
         O            2.633324314201     3.055324428807     2.773206517544    15.994914619570
         H            1.755324314201     2.730324428807     0.964206517544     1.007825032230
         H            2.412324314201     1.282324428807     1.741206517544     1.007825032230
         H            3.712324314201     2.206324428807    -0.262793482456     1.007825032230
         H            3.422324314201     2.779324428807     3.259206517544     1.007825032230
         H            4.697384314201     1.901604428807     1.149776517544     1.007825032230
         H            4.184884314201     3.587464428807     0.752566517544     1.007825032230

  Running in c1 symmetry.

  Rotational constants: A =      0.03803  B =      0.01174  C =      0.00919 [cm^-1]
  Rotational constants: A =   1140.03206  B =    352.01714  C =    275.55166 [MHz]
  Nuclear repulsion =  726.664320585193650

  Charge       = 0
  Multiplicity = 1
  Electrons    = 96
  Nalpha       = 48
  Nbeta        = 48

  ==> Algorithm <==

  SCF Algorithm Type is PK.
  DIIS enabled.
  MOM disabled.
  Fractional occupation disabled.
  Guess Type is SAD.
  Energy threshold   = 1.00e-06
  Density threshold  = 1.00e-10
  Integral threshold = 0.00e+00

  ==> Primary Basis <==

  Basis Set: CC-PVDZ
    Blend: CC-PVDZ
    Number of shells: 123
    Number of basis function: 257
    Number of Cartesian functions: 270
    Spherical Harmonics?: true
    Max angular momentum: 2

  ==> Pre-Iterations <==

   -------------------------------------------------------
    Irrep   Nso     Nmo     Nalpha   Nbeta   Ndocc  Nsocc
   -------------------------------------------------------
     A        257     257       0       0       0       0
   -------------------------------------------------------
    Total     257     257      48      48      48       0
   -------------------------------------------------------

  ==> Integral Setup <==

  Using integral reordering PK algorithm.
  Sizing the integral batches needed.
  Building batch lookup table.
   Calculation information:
      Number of atoms:                  28
      Number of AO shells:             123
      Number of primitives:            361
      Number of atomic orbitals:       270
      Number of basis functions:       257

      Integral cutoff                 1.00e-12
      Number of threads:                 1

	Batch   1 pq = [       0,    9405] index = [             0,44231715] size =     44231715
	Batch   2 pq = [    9405,   13301] index = [      44231715,88464951] size =     44233236
	Batch   3 pq = [   13301,   16290] index = [      88464951,132690195] size =     44225244
	Batch   4 pq = [   16290,   18810] index = [     132690195,176917455] size =     44227260
	Batch   5 pq = [   18810,   21030] index = [     176917455,221140965] size =     44223510
	Batch   6 pq = [   21030,   23037] index = [     221140965,265363203] size =     44222238
	Batch   7 pq = [   23037,   24883] index = [     265363203,309594286] size =     44231083
	Batch   8 pq = [   24883,   26601] index = [     309594286,353819901] size =     44225615
	Batch   9 pq = [   26601,   28214] index = [     353819901,398029005] size =     44209104
	Batch  10 pq = [   28214,   29740] index = [     398029005,442248670] size =     44219665
	Batch  11 pq = [   29740,   31191] index = [     442248670,486454836] size =     44206166
	Batch  12 pq = [   31191,   32578] index = [     486454836,530679331] size =     44224495
	Batch  13 pq = [   32578,   33153] index = [     530679331,549577281] size =     18897950
  Task number: 50
  Buffer size: 11059200
  Buffer per thread: 2
  We computed 23707025 shell quartets total.
  Whereas there are 29081751 unique shell quartets.

  ==> DiskJK: Disk-Based J/K Matrices <==

    J tasked:                  Yes
    K tasked:                  Yes
    wK tasked:                  No
    Memory [MiB]:              375
    Schwarz Cutoff:          1E-12

    OpenMP threads:              1

  Minimum eigenvalue in the overlap matrix is 2.4201121531E-04.
  Using Symmetric Orthogonalization.

  SCF Guess: Superposition of Atomic Densities via on-the-fly atomic UHF.

  ==> Iterations <==

                        Total Energy        Delta E     RMS |[F,P]|

   @RHF iter SAD:  -553.67518364294028   -5.53675e+02   0.00000e+00
   @RHF iter   1:  -554.32920719909498   -6.54024e-01   2.62136e-03 DIIS
   @RHF iter   2:  -554.57605616655474   -2.46849e-01   1.20484e-03 DIIS
   @RHF iter   3:  -554.62132561752799   -4.52695e-02   2.98009e-04 DIIS
   @RHF iter   4:  -554.62534002905250   -4.01441e-03   1.24857e-04 DIIS
   @RHF iter   5:  -554.62592788636755   -5.87857e-04   2.29207e-05 DIIS
   @RHF iter   6:  -554.62596156917573   -3.36828e-05   1.04225e-05 DIIS
   @RHF iter   7:  -554.62596909525746   -7.52608e-06   3.70991e-06 DIIS
   @RHF iter   8:  -554.62597088801670   -1.79276e-06   1.46383e-06 DIIS
   @RHF iter   9:  -554.62597125309867   -3.65082e-07   6.38710e-07 DIIS
   @RHF iter  10:  -554.62597131592713   -6.28285e-08   3.11953e-07 DIIS
   @RHF iter  11:  -554.62597133466738   -1.87403e-08   1.15347e-07 DIIS
   @RHF iter  12:  -554.62597133735039   -2.68301e-09   4.03613e-08 DIIS
   @RHF iter  13:  -554.62597133755037   -1.99975e-10   1.37349e-08 DIIS
   @RHF iter  14:  -554.62597133757572   -2.53522e-11   4.90618e-09 DIIS
   @RHF iter  15:  -554.62597133757788   -2.16005e-12   2.28905e-09 DIIS
   @RHF iter  16:  -554.62597133757367    4.20641e-12   1.04116e-09 DIIS
   @RHF iter  17:  -554.62597133757345    2.27374e-13   5.29867e-10 DIIS
   @RHF iter  18:  -554.62597133757845   -5.00222e-12   1.93253e-10 DIIS
   @RHF iter  19:  -554.62597133757970   -1.25056e-12   6.36468e-11 DIIS
  Energy and wave function converged.

  ==> Post-Iterations <==

    Orbital Energies [Eh]
    ---------------------

    Doubly Occupied:

       1A    -20.545605     2A    -15.601642     3A    -11.273260
       4A    -11.265876     5A    -11.265275     6A    -11.232301
       7A    -11.231865     8A    -11.230442     9A    -11.229294
      10A    -11.222348    11A    -11.222276    12A    -11.222153
      13A    -11.219595    14A     -1.349988    15A     -1.293261
      16A     -1.125206    17A     -1.072098    18A     -1.005856
      19A     -0.995614    20A     -0.986534    21A     -0.931482
      22A     -0.843655    23A     -0.838765    24A     -0.802701
      25A     -0.751999    26A     -0.719031    27A     -0.676033
      28A     -0.663425    29A     -0.640810    30A     -0.619267
      31A     -0.605857    32A     -0.601611    33A     -0.590881
      34A     -0.589302    35A     -0.567710    36A     -0.552555
      37A     -0.537088    38A     -0.535378    39A     -0.529615
      40A     -0.520070    41A     -0.495643    42A     -0.475090
      43A     -0.469919    44A     -0.459779    45A     -0.431376
      46A     -0.371762    47A     -0.294201    48A     -0.276213

    Virtual:

      49A      0.124286    50A      0.166351    51A      0.170132
      52A      0.180706    53A      0.189403    54A      0.203924
      55A      0.211187    56A      0.225936    57A      0.229834
      58A      0.235077    59A      0.251718    60A      0.255853
      61A      0.263330    62A      0.275159    63A      0.281905
      64A      0.300290    65A      0.309823    66A      0.318643
      67A      0.371641    68A      0.380069    69A      0.392611
      70A      0.404305    71A      0.408236    72A      0.438966
      73A      0.447000    74A      0.480793    75A      0.490119
      76A      0.492395    77A      0.509301    78A      0.590776
      79A      0.602878    80A      0.606862    81A      0.630069
      82A      0.632071    83A      0.657277    84A      0.664034
      85A      0.685826    86A      0.694955    87A      0.703879
      88A      0.716002    89A      0.729331    90A      0.735414
      91A      0.737637    92A      0.740755    93A      0.745299
      94A      0.756089    95A      0.760898    96A      0.775742
      97A      0.781682    98A      0.785780    99A      0.800267
     100A      0.810766   101A      0.823218   102A      0.836821
     103A      0.851862   104A      0.860858   105A      0.870596
     106A      0.881071   107A      0.884589   108A      0.890237
     109A      0.894743   110A      0.903287   111A      0.910963
     112A      0.913947   113A      0.924202   114A      0.933668
     115A      0.950544   116A      0.954493   117A      0.967369
     118A      0.979007   119A      0.993647   120A      1.000850
     121A      1.010579   122A      1.064256   123A      1.069065
     124A      1.087008   125A      1.113036   126A      1.118132
     127A      1.135108   128A      1.141730   129A      1.147388
     130A      1.157038   131A      1.175911   132A      1.205752
     133A      1.207705   134A      1.225830   135A      1.230311
     136A      1.241955   137A      1.261399   138A      1.271494
     139A      1.276689   140A      1.288777   141A      1.300780
     142A      1.326305   143A      1.334467   144A      1.342031
     145A      1.358412   146A      1.376958   147A      1.397157
     148A      1.425373   149A      1.446854   150A      1.465665
     151A      1.510713   152A      1.529835   153A      1.566153
     154A      1.568922   155A      1.588358   156A      1.595793
     157A      1.631778   158A      1.642044   159A      1.658248
     160A      1.667447   161A      1.678591   162A      1.685786
     163A      1.692540   164A      1.737817   165A      1.758394
     166A      1.761148   167A      1.782212   168A      1.789742
     169A      1.804748   170A      1.820564   171A      1.827769
     172A      1.872848   173A      1.882110   174A      1.883208
     175A      1.887283   176A      1.896595   177A      1.904981
     178A      1.909503   179A      1.919197   180A      1.927510
     181A      1.937995   182A      1.948329   183A      1.959513
     184A      1.962468   185A      1.970229   186A      1.975231
     187A      1.988959   188A      2.002445   189A      2.007149
     190A      2.021860   191A      2.032559   192A      2.061137
     193A      2.075116   194A      2.084843   195A      2.093119
     196A      2.095753   197A      2.098709   198A      2.114030
     199A      2.129037   200A      2.136791   201A      2.151618
     202A      2.159098   203A      2.174603   204A      2.190151
     205A      2.226576   206A      2.232223   207A      2.254933
     208A      2.288550   209A      2.296973   210A      2.310922
     211A      2.317465   212A      2.330685   213A      2.346177
     214A      2.388144   215A      2.398670   216A      2.430290
     217A      2.436375   218A      2.448702   219A      2.466773
     220A      2.484412   221A      2.531071   222A      2.538330
     223A      2.561841   224A      2.578734   225A      2.602672
     226A      2.644314   227A      2.648318   228A      2.671279
     229A      2.691661   230A      2.752603   231A      2.767352
     232A      2.777570   233A      2.780204   234A      2.788090
     235A      2.805653   236A      2.820390   237A      2.828573
     238A      2.863426   239A      2.877264   240A      2.902176
     241A      2.903959   242A      2.936801   243A      2.961978
     244A      3.031042   245A      3.044710   246A      3.069202
     247A      3.113494   248A      3.198642   249A      3.296725
     250A      3.315515   251A      3.371117   252A      3.406055
     253A      3.463718   254A      3.655447   255A      3.732495
     256A      3.934026   257A      4.100876

    Final Occupation by Irrep:
              A
    DOCC [    48 ]

  @RHF Final Energy:  -554.62597133757970

   => Energetics <=

    Nuclear Repulsion Energy =            726.6643205851936500
    One-Electron Energy =               -2194.6171740113268243
    Two-Electron Energy =                 913.3268820885533614
    Total Energy =                       -554.6259713375796991

Computation Completed

Properties will be evaluated at   0.000000,   0.000000,   0.000000 [a0]

Properties computed using the SCF density matrix

  Nuclear Dipole Moment: [e a0]
     X:    12.0899      Y:     8.2737      Z:    -0.6766

  Electronic Dipole Moment: [e a0]
     X:   -12.0187      Y:    -9.2626      Z:    -0.0192

  Dipole Moment: [e a0]
     X:     0.0712      Y:    -0.9889      Z:    -0.6958     Total:     1.2113

  Dipole Moment: [D]
     X:     0.1810      Y:    -2.5135      Z:    -1.7686     Total:     3.0787

*** tstop() called on ds3 at Tue Apr 28 10:36:26 2020
Module time:
	user time   =     195.33 seconds =       3.26 minutes
	system time =      90.70 seconds =       1.51 minutes
	total time  =        416 seconds =       6.93 minutes
Total time:
	user time   =     195.33 seconds =       3.26 minutes
	system time =      90.70 seconds =       1.51 minutes
	total time  =        416 seconds =       6.93 minutes
                                     G D M A

                                 by Anthony Stone

                           version 2.2.06, 22 June 2011

               Distributed Multipoles from Gaussian wavefunctions

Starting at 10:36:26 on 28 Apr 2020

Using SCF density matrix from file ./SSI/SSI-058TRP-180SER-1-dimer.test.22674.fchk

                         Distributed Multipole Analysis

Standard DMA

Positions and radii in angstrom
Multipole moments in atomic units, ea_0^k for rank k

C          x =  0.091324  y =  0.393324  z = -3.016793 angstrom
           Maximum rank =  0   Radius =  0.650 angstrom
                   Q00  =  -0.200978

C          x = -0.805676  y = -0.575676  z = -0.738793 angstrom
           Maximum rank =  0   Radius =  0.650 angstrom
                   Q00  =  -0.058276

C          x = -0.736676  y = -0.541676  z = -2.178793 angstrom
           Maximum rank =  0   Radius =  0.650 angstrom
                   Q00  =  -0.125097

C          x = -1.648676  y = -1.663676  z = -0.377793 angstrom
           Maximum rank =  0   Radius =  0.650 angstrom
                   Q00  =   0.298005

C          x = -1.515676  y = -1.568676  z = -2.618793 angstrom
           Maximum rank =  0   Radius =  0.650 angstrom
                   Q00  =   0.073435

C          x = -0.237676  y =  0.202324  z =  0.286207 angstrom
           Maximum rank =  0   Radius =  0.650 angstrom
                   Q00  =  -0.097390

C          x = -0.518676  y = -0.119676  z =  1.619207 angstrom
           Maximum rank =  0   Radius =  0.650 angstrom
                   Q00  =  -0.083101

C          x = -1.354676  y = -1.204676  z =  1.942207 angstrom
           Maximum rank =  0   Radius =  0.650 angstrom
                   Q00  =  -0.075597

C          x = -1.930676  y = -1.985676  z =  0.949207 angstrom
           Maximum rank =  0   Radius =  0.650 angstrom
                   Q00  =  -0.118714

N          x = -2.062676  y = -2.244676  z = -1.549793 angstrom
           Maximum rank =  0   Radius =  0.650 angstrom
                   Q00  =  -0.501290

H          x =  0.373324  y =  1.058324  z =  0.048207 angstrom
           Maximum rank =  0   Radius =  0.325 angstrom
                   Q00  =   0.067225

H          x = -0.095676  y =  0.485324  z =  2.407207 angstrom
           Maximum rank =  0   Radius =  0.325 angstrom
                   Q00  =   0.064616

H          x = -1.540676  y = -1.432676  z =  2.983207 angstrom
           Maximum rank =  0   Radius =  0.325 angstrom
                   Q00  =   0.065967

H          x = -0.268676  y =  1.409324  z = -2.850793 angstrom
           Maximum rank =  0   Radius =  0.325 angstrom
                   Q00  =   0.097803

H          x = -0.043676  y =  0.152324  z = -4.070793 angstrom
           Maximum rank =  0   Radius =  0.325 angstrom
                   Q00  =   0.105593

H          x = -1.650676  y = -1.836676  z = -3.662793 angstrom
           Maximum rank =  0   Radius =  0.325 angstrom
                   Q00  =   0.101794

H          x = -2.675676  y = -3.049676  z = -1.639793 angstrom
           Maximum rank =  0   Radius =  0.325 angstrom
                   Q00  =   0.217357

H          x = -2.565676  y = -2.821676  z =  1.197207 angstrom
           Maximum rank =  0   Radius =  0.325 angstrom
                   Q00  =   0.073555

H          x =  1.159274  y =  0.351034  z = -2.756613 angstrom
           Maximum rank =  0   Radius =  0.325 angstrom
                   Q00  =   0.096129

C          x =  2.588324  y =  2.342324  z =  1.552207 angstrom
           Maximum rank =  0   Radius =  0.650 angstrom
                   Q00  =   0.100145

C          x =  3.884324  y =  2.529324  z =  0.756207 angstrom
           Maximum rank =  0   Radius =  0.650 angstrom
                   Q00  =  -0.265828

O          x =  2.633324  y =  3.055324  z =  2.773207 angstrom
           Maximum rank =  0   Radius =  0.650 angstrom
                   Q00  =  -0.587137

H          x =  1.755324  y =  2.730324  z =  0.964207 angstrom
           Maximum rank =  0   Radius =  0.325 angstrom
                   Q00  =   0.080915

H          x =  2.412324  y =  1.282324  z =  1.741207 angstrom
           Maximum rank =  0   Radius =  0.325 angstrom
                   Q00  =   0.039012

H          x =  3.712324  y =  2.206324  z = -0.262793 angstrom
           Maximum rank =  0   Radius =  0.325 angstrom
                   Q00  =   0.086993

H          x =  3.422324  y =  2.779324  z =  3.259207 angstrom
           Maximum rank =  0   Radius =  0.325 angstrom
                   Q00  =   0.378829

H          x =  4.697384  y =  1.901604  z =  1.149777 angstrom
           Maximum rank =  0   Radius =  0.325 angstrom
                   Q00  =   0.076106

H          x =  4.184884  y =  3.587464  z =  0.752567 angstrom
           Maximum rank =  0   Radius =  0.325 angstrom
                   Q00  =   0.089931

Total multipoles referred to origin at
           x =   0.000000,  y =    0.000000,  z =    0.000000 angstrom
                   Q00  =  -0.000000

Finished at 10:36:26 on 28 Apr 2020

  DMA results are available in the Python driver through the
	  variable('DMA DISTRIBUTED MULTIPOLES')
  and
	  variable('DMA TOTAL MULTIPOLES')
  commands.

    Psi4 stopped on: Tuesday, 28 April 2020 10:36AM
    Psi4 wall time for execution: 0:06:56.00

*** Psi4 exiting successfully. Buy a developer a beer!
