                               Psi4 1.3.2 release

  ==> Input File <==

--------------------------------------------------------------------------
import numpy as np
set {scf_type pk
basis cc-pvdz
d_convergence 10
gdma_switch   0
gdma_limit    0
gdma_origin   [ 0.0,  0.0,  0.0 ]
}
molecule test {
    units Angstrom
    0 1
    --
    0 1
    C               -1.743357379804707     1.748930492507674     0.549885538793908
    C               -2.829357379804708     1.444930492507674    -0.508114461206092
    C               -2.023357379804707     1.166930492507674     1.933885538793908
    H               -0.774357379804707     1.426930492507674     0.195885538793908
    H               -1.689357379804707     2.831930492507674     0.669885538793908
    H               -3.760357379804708     1.918930492507674    -0.197114461206092
    H               -1.427357379804707     1.697930492507674     2.676885538793908
    H               -3.086357379804708     1.276930492507674     2.142885538793908
    H               -1.760357379804707     0.109930492507674     1.956885538793908
    H               -2.537728379804708     1.843250492507674    -1.491114461206092
    H               -3.005283379804708     0.361372492507674    -0.578484461206092
    C                0.889642620195293    -0.518069507492326    -0.431114461206092
    C                1.265642620195293     0.175930492507674    -1.746114461206092
    S                2.039642620195293    -1.811069507492326     0.067885538793908
    H                0.873642620195293     0.216930492507674     0.374885538793908
    H               -0.099357379804707    -0.966069507492326    -0.530114461206092
    H                0.454642620195293     0.844930492507674    -2.027114461206092
    H                1.422642620195293    -2.176069507492326     1.199885538793908
    H                1.395089620195293    -0.576667507492326    -2.537844461206092
    H                2.164906620195292     0.794396492507674    -1.608914461206092

}
e, wfn = energy('scf', return_wfn=True)
gdma(wfn)
dmavals = variable('DMA DISTRIBUTED MULTIPOLES')
charges = np.array(dmavals)
print(charges)
np.save('SSI-055ILE-061CYS-1-dimer.npy', np.array(charges))--------------------------------------------------------------------------

*** tstart() called on ds3
*** at Mon Apr 27 13:54:43 2020

   => Loading Basis Set <=

    Name: CC-PVDZ
    Role: ORBITAL
    Keyword: BASIS
    atoms 1-3, 12-13  entry C          line   138 file /theoryfs2/ds/metcalf/miniconda2/envs/tf2gpu/share/psi4/basis/cc-pvdz.gbs
    atoms 4-11, 15-20 entry H          line    22 file /theoryfs2/ds/metcalf/miniconda2/envs/tf2gpu/share/psi4/basis/cc-pvdz.gbs
    atoms 14          entry S          line   598 file /theoryfs2/ds/metcalf/miniconda2/envs/tf2gpu/share/psi4/basis/cc-pvdz.gbs

         ---------------------------------------------------------
                                   SCF
               by Justin Turney, Rob Parrish, Andy Simmonett
                          and Daniel G. A. Smith
                              RHF Reference
                        1 Threads,    500 MiB Core
         ---------------------------------------------------------

  ==> Geometry <==

    Molecular point group: c1
    Full point group: C1

    Geometry (in Angstrom), charge = 0, multiplicity = 1:

       Center              X                  Y                   Z               Mass
    ------------   -----------------  -----------------  -----------------  -----------------
         C           -1.743357379805     1.748930492508     0.549885538794    12.000000000000
         C           -2.829357379805     1.444930492508    -0.508114461206    12.000000000000
         C           -2.023357379805     1.166930492508     1.933885538794    12.000000000000
         H           -0.774357379805     1.426930492508     0.195885538794     1.007825032230
         H           -1.689357379805     2.831930492508     0.669885538794     1.007825032230
         H           -3.760357379805     1.918930492508    -0.197114461206     1.007825032230
         H           -1.427357379805     1.697930492508     2.676885538794     1.007825032230
         H           -3.086357379805     1.276930492508     2.142885538794     1.007825032230
         H           -1.760357379805     0.109930492508     1.956885538794     1.007825032230
         H           -2.537728379805     1.843250492508    -1.491114461206     1.007825032230
         H           -3.005283379805     0.361372492508    -0.578484461206     1.007825032230
         C            0.889642620195    -0.518069507492    -0.431114461206    12.000000000000
         C            1.265642620195     0.175930492508    -1.746114461206    12.000000000000
         S            2.039642620195    -1.811069507492     0.067885538794    31.972071174400
         H            0.873642620195     0.216930492508     0.374885538794     1.007825032230
         H           -0.099357379805    -0.966069507492    -0.530114461206     1.007825032230
         H            0.454642620195     0.844930492508    -2.027114461206     1.007825032230
         H            1.422642620195    -2.176069507492     1.199885538794     1.007825032230
         H            1.395089620195    -0.576667507492    -2.537844461206     1.007825032230
         H            2.164906620195     0.794396492508    -1.608914461206     1.007825032230

  Running in c1 symmetry.

  Rotational constants: A =      0.12004  B =      0.02699  C =      0.02347 [cm^-1]
  Rotational constants: A =   3598.62249  B =    808.99219  C =    703.65126 [MHz]
  Nuclear repulsion =  287.895552888746579

  Charge       = 0
  Multiplicity = 1
  Electrons    = 60
  Nalpha       = 30
  Nbeta        = 30

  ==> Algorithm <==

  SCF Algorithm Type is PK.
  DIIS enabled.
  MOM disabled.
  Fractional occupation disabled.
  Guess Type is SAD.
  Energy threshold   = 1.00e-06
  Density threshold  = 1.00e-10
  Integral threshold = 0.00e+00

  ==> Primary Basis <==

  Basis Set: CC-PVDZ
    Blend: CC-PVDZ
    Number of shells: 80
    Number of basis function: 158
    Number of Cartesian functions: 164
    Spherical Harmonics?: true
    Max angular momentum: 2

  ==> Pre-Iterations <==

   -------------------------------------------------------
    Irrep   Nso     Nmo     Nalpha   Nbeta   Ndocc  Nsocc
   -------------------------------------------------------
     A        158     158       0       0       0       0
   -------------------------------------------------------
    Total     158     158      30      30      30       0
   -------------------------------------------------------

  ==> Integral Setup <==

  Using integral reordering PK algorithm.
  Sizing the integral batches needed.
  Building batch lookup table.
   Calculation information:
      Number of atoms:                  20
      Number of AO shells:              80
      Number of primitives:            230
      Number of atomic orbitals:       164
      Number of basis functions:       158

      Integral cutoff                 1.00e-12
      Number of threads:                 1

	Batch   1 pq = [       0,    9405] index = [             0,44231715] size =     44231715
	Batch   2 pq = [    9405,   12561] index = [      44231715,78895641] size =     34663926
  Task number: 8
  Buffer size: 11059200
  Buffer per thread: 2
  We computed 4821519 shell quartets total.
  Whereas there are 5250420 unique shell quartets.

  ==> DiskJK: Disk-Based J/K Matrices <==

    J tasked:                  Yes
    K tasked:                  Yes
    wK tasked:                  No
    Memory [MiB]:              375
    Schwarz Cutoff:          1E-12

    OpenMP threads:              1

  Minimum eigenvalue in the overlap matrix is 5.5759618830E-03.
  Using Symmetric Orthogonalization.

  SCF Guess: Superposition of Atomic Densities via on-the-fly atomic UHF.

  ==> Iterations <==

                        Total Energy        Delta E     RMS |[F,P]|

   @RHF iter SAD:  -594.00628922009389   -5.94006e+02   0.00000e+00
   @RHF iter   1:  -594.83917508949605   -8.32886e-01   3.26724e-03 DIIS
   @RHF iter   2:  -594.99929230029943   -1.60117e-01   1.37103e-03 DIIS
   @RHF iter   3:  -595.02525927121042   -2.59670e-02   3.07299e-04 DIIS
   @RHF iter   4:  -595.02767535491660   -2.41608e-03   6.13196e-05 DIIS
   @RHF iter   5:  -595.02774752462699   -7.21697e-05   1.73365e-05 DIIS
   @RHF iter   6:  -595.02775380836329   -6.28374e-06   3.60325e-06 DIIS
   @RHF iter   7:  -595.02775414252130   -3.34158e-07   9.73571e-07 DIIS
   @RHF iter   8:  -595.02775417033035   -2.78091e-08   3.12594e-07 DIIS
   @RHF iter   9:  -595.02775417352109   -3.19073e-09   8.84922e-08 DIIS
   @RHF iter  10:  -595.02775417385419   -3.33102e-10   2.31916e-08 DIIS
   @RHF iter  11:  -595.02775417388159   -2.73985e-11   8.29990e-09 DIIS
   @RHF iter  12:  -595.02775417388466   -3.06954e-12   3.18378e-09 DIIS
   @RHF iter  13:  -595.02775417388432    3.41061e-13   8.00982e-10 DIIS
   @RHF iter  14:  -595.02775417388614   -1.81899e-12   2.41191e-10 DIIS
   @RHF iter  15:  -595.02775417388682   -6.82121e-13   6.99454e-11 DIIS
  Energy and wave function converged.

  ==> Post-Iterations <==

    Orbital Energies [Eh]
    ---------------------

    Doubly Occupied:

       1A    -91.941468     2A    -11.262614     3A    -11.237589
       4A    -11.224710     5A    -11.223460     6A    -11.220744
       7A     -8.945073     8A     -6.627209     9A     -6.625765
      10A     -6.623372    11A     -1.071718    12A     -1.056172
      13A     -0.946124    14A     -0.930445    15A     -0.813718
      16A     -0.802024    17A     -0.636374    18A     -0.630388
      19A     -0.610348    20A     -0.600684    21A     -0.554792
      22A     -0.539586    23A     -0.533880    24A     -0.518288
      25A     -0.503908    26A     -0.478816    27A     -0.477288
      28A     -0.468597    29A     -0.438550    30A     -0.348527

    Virtual:

      31A      0.145080    32A      0.184017    33A      0.194384
      34A      0.206511    35A      0.213645    36A      0.237355
      37A      0.240360    38A      0.251259    39A      0.258505
      40A      0.270941    41A      0.278797    42A      0.292954
      43A      0.298052    44A      0.302919    45A      0.356848
      46A      0.370414    47A      0.383145    48A      0.419808
      49A      0.512318    50A      0.567622    51A      0.574865
      52A      0.581256    53A      0.607973    54A      0.621660
      55A      0.632097    56A      0.639730    57A      0.652613
      58A      0.676871    59A      0.698875    60A      0.720026
      61A      0.741909    62A      0.784175    63A      0.789825
      64A      0.799136    65A      0.821621    66A      0.835874
      67A      0.854106    68A      0.859108    69A      0.870262
      70A      0.880487    71A      0.881370    72A      0.889619
      73A      0.893400    74A      0.900842    75A      0.907539
      76A      0.917305    77A      0.925431    78A      0.945775
      79A      0.952379    80A      0.957662    81A      0.963543
      82A      0.977043    83A      1.005586    84A      1.038122
      85A      1.112827    86A      1.129043    87A      1.191411
      88A      1.228452    89A      1.250427    90A      1.304272
      91A      1.332227    92A      1.371673    93A      1.395416
      94A      1.459612    95A      1.465949    96A      1.469540
      97A      1.523785    98A      1.620305    99A      1.626021
     100A      1.648507   101A      1.668173   102A      1.680621
     103A      1.681758   104A      1.705553   105A      1.715297
     106A      1.743111   107A      1.835847   108A      1.850829
     109A      1.861652   110A      1.865792   111A      1.878842
     112A      1.884345   113A      1.896242   114A      1.917502
     115A      1.925641   116A      1.936275   117A      1.947705
     118A      1.956941   119A      1.969691   120A      1.978631
     121A      1.993620   122A      2.003519   123A      2.013812
     124A      2.022702   125A      2.048883   126A      2.091820
     127A      2.118716   128A      2.136576   129A      2.176438
     130A      2.218119   131A      2.275570   132A      2.282218
     133A      2.292487   134A      2.310450   135A      2.318796
     136A      2.342290   137A      2.403418   138A      2.441367
     139A      2.493981   140A      2.524322   141A      2.537816
     142A      2.563999   143A      2.573832   144A      2.620741
     145A      2.629812   146A      2.750316   147A      2.756188
     148A      2.766203   149A      2.794374   150A      2.800230
     151A      2.816687   152A      2.822337   153A      2.903939
     154A      2.921341   155A      2.938584   156A      2.944182
     157A      2.965037   158A      3.089316

    Final Occupation by Irrep:
              A
    DOCC [    30 ]

  @RHF Final Energy:  -595.02775417388682

   => Energetics <=

    Nuclear Repulsion Energy =            287.8955528887465789
    One-Electron Energy =               -1386.0621525803571785
    Two-Electron Energy =                 503.1388455177237802
    Total Energy =                       -595.0277541738868194

Computation Completed

Properties will be evaluated at   0.000000,   0.000000,   0.000000 [a0]

Properties computed using the SCF density matrix

  Nuclear Dipole Moment: [e a0]
     X:   -11.0361      Y:     8.9563      Z:     0.2329

  Electronic Dipole Moment: [e a0]
     X:    10.4783      Y:    -8.5289      Z:    -0.1417

  Dipole Moment: [e a0]
     X:    -0.5578      Y:     0.4274      Z:     0.0912     Total:     0.7086

  Dipole Moment: [D]
     X:    -1.4178      Y:     1.0864      Z:     0.2317     Total:     1.8011

*** tstop() called on ds3 at Mon Apr 27 13:55:25 2020
Module time:
	user time   =      32.19 seconds =       0.54 minutes
	system time =      11.36 seconds =       0.19 minutes
	total time  =         42 seconds =       0.70 minutes
Total time:
	user time   =      32.19 seconds =       0.54 minutes
	system time =      11.36 seconds =       0.19 minutes
	total time  =         42 seconds =       0.70 minutes
                                     G D M A

                                 by Anthony Stone

                           version 2.2.06, 22 June 2011

               Distributed Multipoles from Gaussian wavefunctions

Starting at 13:55:25 on 27 Apr 2020

Using SCF density matrix from file ./SSI/SSI-055ILE-061CYS-1-dimer.test.8190.fchk

                         Distributed Multipole Analysis

Standard DMA

Positions and radii in angstrom
Multipole moments in atomic units, ea_0^k for rank k

C          x = -1.743357  y =  1.748930  z =  0.549886 angstrom
           Maximum rank =  0   Radius =  0.650 angstrom
                   Q00  =  -0.102538

C          x = -2.829357  y =  1.444930  z = -0.508114 angstrom
           Maximum rank =  0   Radius =  0.650 angstrom
                   Q00  =  -0.238551

C          x = -2.023357  y =  1.166930  z =  1.933886 angstrom
           Maximum rank =  0   Radius =  0.650 angstrom
                   Q00  =  -0.241598

H          x = -0.774357  y =  1.426930  z =  0.195886 angstrom
           Maximum rank =  0   Radius =  0.325 angstrom
                   Q00  =   0.045159

H          x = -1.689357  y =  2.831930  z =  0.669886 angstrom
           Maximum rank =  0   Radius =  0.325 angstrom
                   Q00  =   0.047549

H          x = -3.760357  y =  1.918930  z = -0.197114 angstrom
           Maximum rank =  0   Radius =  0.325 angstrom
                   Q00  =   0.083184

H          x = -1.427357  y =  1.697930  z =  2.676886 angstrom
           Maximum rank =  0   Radius =  0.325 angstrom
                   Q00  =   0.084883

H          x = -3.086357  y =  1.276930  z =  2.142886 angstrom
           Maximum rank =  0   Radius =  0.325 angstrom
                   Q00  =   0.079733

H          x = -1.760357  y =  0.109930  z =  1.956886 angstrom
           Maximum rank =  0   Radius =  0.325 angstrom
                   Q00  =   0.074962

H          x = -2.537728  y =  1.843250  z = -1.491114 angstrom
           Maximum rank =  0   Radius =  0.325 angstrom
                   Q00  =   0.086141

H          x = -3.005283  y =  0.361372  z = -0.578484 angstrom
           Maximum rank =  0   Radius =  0.325 angstrom
                   Q00  =   0.074521

C          x =  0.889643  y = -0.518070  z = -0.431114 angstrom
           Maximum rank =  0   Radius =  0.650 angstrom
                   Q00  =  -0.185137

C          x =  1.265643  y =  0.175930  z = -1.746114 angstrom
           Maximum rank =  0   Radius =  0.650 angstrom
                   Q00  =  -0.230307

S          x =  2.039643  y = -1.811070  z =  0.067886 angstrom
           Maximum rank =  0   Radius =  0.650 angstrom
                   Q00  =  -0.104598

H          x =  0.873643  y =  0.216930  z =  0.374886 angstrom
           Maximum rank =  0   Radius =  0.325 angstrom
                   Q00  =   0.065163

H          x = -0.099357  y = -0.966070  z = -0.530114 angstrom
           Maximum rank =  0   Radius =  0.325 angstrom
                   Q00  =   0.067987

H          x =  0.454643  y =  0.844930  z = -2.027114 angstrom
           Maximum rank =  0   Radius =  0.325 angstrom
                   Q00  =   0.098660

H          x =  1.422643  y = -2.176070  z =  1.199886 angstrom
           Maximum rank =  0   Radius =  0.325 angstrom
                   Q00  =   0.111810

H          x =  1.395090  y = -0.576668  z = -2.537844 angstrom
           Maximum rank =  0   Radius =  0.325 angstrom
                   Q00  =   0.091645

H          x =  2.164907  y =  0.794396  z = -1.608914 angstrom
           Maximum rank =  0   Radius =  0.325 angstrom
                   Q00  =   0.091331

Total multipoles referred to origin at
           x =   0.000000,  y =    0.000000,  z =    0.000000 angstrom
                   Q00  =   0.000000

Finished at 13:55:25 on 27 Apr 2020

  DMA results are available in the Python driver through the
	  variable('DMA DISTRIBUTED MULTIPOLES')
  and
	  variable('DMA TOTAL MULTIPOLES')
  commands.

    Psi4 stopped on: Monday, 27 April 2020 01:55PM
    Psi4 wall time for execution: 0:00:42.80

*** Psi4 exiting successfully. Buy a developer a beer!
