                               Psi4 1.3.2 release

  ==> Input File <==

--------------------------------------------------------------------------
import numpy as np
set {scf_type pk
basis cc-pvdz
d_convergence 10
gdma_switch   0
gdma_limit    0
gdma_origin   [ 0.0,  0.0,  0.0 ]
}
molecule test {
    units Angstrom
    0 1
    --
    0 1
    C               -1.612277153094742     1.315774971334265    -2.104395144827290
    C               -0.883277153094743     0.741774971334265     0.288604855172711
    C               -0.801277153094743     0.605774971334265    -1.061395144827289
    C                0.684722846905257    -0.820225028665735    -0.043395144827289
    C                0.186722846905257    -0.404225028665735    -1.301395144827289
    C                1.656722846905258    -1.794225028665736     0.076604855172711
    C                0.705722846905257    -0.991225028665735    -2.457395144827289
    C                2.147722846905257    -2.358225028665735    -1.085395144827290
    C                1.689722846905257    -1.954225028665735    -2.335395144827289
    N                0.004722846905257    -0.107225028665735     0.906604855172710
    H               -1.558277153094742     1.418774971334265     0.802604855172711
    H                0.098722846905257    -0.184225028665735     1.914604855172710
    H               -0.948277153094743     1.694774971334265    -2.883395144827289
    H               -2.107277153094743     2.164774971334265    -1.641395144827290
    H                1.994722846905257    -2.120225028665735     1.046604855172711
    H                0.360722846905257    -0.678225028665735    -3.431395144827290
    H                2.920722846905258    -3.108225028665735    -1.030395144827290
    H                2.112722846905258    -2.394225028665736    -3.227395144827289
    H               -2.350054153094742     0.635026971334265    -2.554136144827289
    C               -1.241277153094742     2.877774971334264     4.028604855172710
    O               -1.576277153094743     1.663774971334265     3.358604855172711
    H               -2.260277153094743     1.216774971334265     3.870604855172710
    H               -1.046277153094743     2.656774971334264     5.077604855172711
    H               -0.342205153094743     3.320174971334264     3.574786855172710
    H               -2.086645153094743     3.578424971334265     3.961978855172711

}
e, wfn = energy('scf', return_wfn=True)
gdma(wfn)
dmavals = variable('DMA DISTRIBUTED MULTIPOLES')
charges = np.array(dmavals)
print(charges)
np.save('SSI-040TRP-122THR-1-dimer.npy', np.array(charges))--------------------------------------------------------------------------

*** tstart() called on ds3
*** at Tue Apr 28 10:26:36 2020

   => Loading Basis Set <=

    Name: CC-PVDZ
    Role: ORBITAL
    Keyword: BASIS
    atoms 1-9, 20      entry C          line   138 file /theoryfs2/ds/metcalf/miniconda2/envs/tf2gpu/share/psi4/basis/cc-pvdz.gbs
    atoms 10           entry N          line   168 file /theoryfs2/ds/metcalf/miniconda2/envs/tf2gpu/share/psi4/basis/cc-pvdz.gbs
    atoms 11-19, 22-25 entry H          line    22 file /theoryfs2/ds/metcalf/miniconda2/envs/tf2gpu/share/psi4/basis/cc-pvdz.gbs
    atoms 21           entry O          line   198 file /theoryfs2/ds/metcalf/miniconda2/envs/tf2gpu/share/psi4/basis/cc-pvdz.gbs

         ---------------------------------------------------------
                                   SCF
               by Justin Turney, Rob Parrish, Andy Simmonett
                          and Daniel G. A. Smith
                              RHF Reference
                        1 Threads,    500 MiB Core
         ---------------------------------------------------------

  ==> Geometry <==

    Molecular point group: c1
    Full point group: C1

    Geometry (in Angstrom), charge = 0, multiplicity = 1:

       Center              X                  Y                   Z               Mass
    ------------   -----------------  -----------------  -----------------  -----------------
         C           -1.612277153095     1.315774971334    -2.104395144827    12.000000000000
         C           -0.883277153095     0.741774971334     0.288604855173    12.000000000000
         C           -0.801277153095     0.605774971334    -1.061395144827    12.000000000000
         C            0.684722846905    -0.820225028666    -0.043395144827    12.000000000000
         C            0.186722846905    -0.404225028666    -1.301395144827    12.000000000000
         C            1.656722846905    -1.794225028666     0.076604855173    12.000000000000
         C            0.705722846905    -0.991225028666    -2.457395144827    12.000000000000
         C            2.147722846905    -2.358225028666    -1.085395144827    12.000000000000
         C            1.689722846905    -1.954225028666    -2.335395144827    12.000000000000
         N            0.004722846905    -0.107225028666     0.906604855173    14.003074004430
         H           -1.558277153095     1.418774971334     0.802604855173     1.007825032230
         H            0.098722846905    -0.184225028666     1.914604855173     1.007825032230
         H           -0.948277153095     1.694774971334    -2.883395144827     1.007825032230
         H           -2.107277153095     2.164774971334    -1.641395144827     1.007825032230
         H            1.994722846905    -2.120225028666     1.046604855173     1.007825032230
         H            0.360722846905    -0.678225028666    -3.431395144827     1.007825032230
         H            2.920722846905    -3.108225028666    -1.030395144827     1.007825032230
         H            2.112722846905    -2.394225028666    -3.227395144827     1.007825032230
         H           -2.350054153095     0.635026971334    -2.554136144827     1.007825032230
         C           -1.241277153095     2.877774971334     4.028604855173    12.000000000000
         O           -1.576277153095     1.663774971334     3.358604855173    15.994914619570
         H           -2.260277153095     1.216774971334     3.870604855173     1.007825032230
         H           -1.046277153095     2.656774971334     5.077604855173     1.007825032230
         H           -0.342205153095     3.320174971334     3.574786855173     1.007825032230
         H           -2.086645153095     3.578424971334     3.961978855173     1.007825032230

  Running in c1 symmetry.

  Rotational constants: A =      0.05356  B =      0.01482  C =      0.01185 [cm^-1]
  Rotational constants: A =   1605.58298  B =    444.35513  C =    355.20036 [MHz]
  Nuclear repulsion =  646.380491969859463

  Charge       = 0
  Multiplicity = 1
  Electrons    = 88
  Nalpha       = 44
  Nbeta        = 44

  ==> Algorithm <==

  SCF Algorithm Type is PK.
  DIIS enabled.
  MOM disabled.
  Fractional occupation disabled.
  Guess Type is SAD.
  Energy threshold   = 1.00e-06
  Density threshold  = 1.00e-10
  Integral threshold = 0.00e+00

  ==> Primary Basis <==

  Basis Set: CC-PVDZ
    Blend: CC-PVDZ
    Number of shells: 111
    Number of basis function: 233
    Number of Cartesian functions: 245
    Spherical Harmonics?: true
    Max angular momentum: 2

  ==> Pre-Iterations <==

   -------------------------------------------------------
    Irrep   Nso     Nmo     Nalpha   Nbeta   Ndocc  Nsocc
   -------------------------------------------------------
     A        233     233       0       0       0       0
   -------------------------------------------------------
    Total     233     233      44      44      44       0
   -------------------------------------------------------

  ==> Integral Setup <==

  Using integral reordering PK algorithm.
  Sizing the integral batches needed.
  Building batch lookup table.
   Calculation information:
      Number of atoms:                  25
      Number of AO shells:             111
      Number of primitives:            329
      Number of atomic orbitals:       245
      Number of basis functions:       233

      Integral cutoff                 1.00e-12
      Number of threads:                 1

	Batch   1 pq = [       0,    9405] index = [             0,44231715] size =     44231715
	Batch   2 pq = [    9405,   13301] index = [      44231715,88464951] size =     44233236
	Batch   3 pq = [   13301,   16290] index = [      88464951,132690195] size =     44225244
	Batch   4 pq = [   16290,   18810] index = [     132690195,176917455] size =     44227260
	Batch   5 pq = [   18810,   21030] index = [     176917455,221140965] size =     44223510
	Batch   6 pq = [   21030,   23037] index = [     221140965,265363203] size =     44222238
	Batch   7 pq = [   23037,   24883] index = [     265363203,309594286] size =     44231083
	Batch   8 pq = [   24883,   26601] index = [     309594286,353819901] size =     44225615
	Batch   9 pq = [   26601,   27261] index = [     353819901,371594691] size =     17774790
  Task number: 34
  Buffer size: 11059200
  Buffer per thread: 2
  We computed 15526335 shell quartets total.
  Whereas there are 19322436 unique shell quartets.

  ==> DiskJK: Disk-Based J/K Matrices <==

    J tasked:                  Yes
    K tasked:                  Yes
    wK tasked:                  No
    Memory [MiB]:              375
    Schwarz Cutoff:          1E-12

    OpenMP threads:              1

  Minimum eigenvalue in the overlap matrix is 2.3546974409E-04.
  Using Symmetric Orthogonalization.

  SCF Guess: Superposition of Atomic Densities via on-the-fly atomic UHF.

  ==> Iterations <==

                        Total Energy        Delta E     RMS |[F,P]|

   @RHF iter SAD:  -514.82608331600318   -5.14826e+02   0.00000e+00
   @RHF iter   1:  -515.32865432809251   -5.02571e-01   2.72767e-03 DIIS
   @RHF iter   2:  -515.54523426988408   -2.16580e-01   1.27523e-03 DIIS
   @RHF iter   3:  -515.58632950733886   -4.10952e-02   3.11667e-04 DIIS
   @RHF iter   4:  -515.58987528266312   -3.54578e-03   1.24189e-04 DIIS
   @RHF iter   5:  -515.59035229457572   -4.77012e-04   2.43978e-05 DIIS
   @RHF iter   6:  -515.59038282534186   -3.05308e-05   1.11104e-05 DIIS
   @RHF iter   7:  -515.59038994556909   -7.12023e-06   3.88304e-06 DIIS
   @RHF iter   8:  -515.59039171421011   -1.76864e-06   1.46601e-06 DIIS
   @RHF iter   9:  -515.59039202056420   -3.06354e-07   6.30148e-07 DIIS
   @RHF iter  10:  -515.59039206939940   -4.88352e-08   3.04788e-07 DIIS
   @RHF iter  11:  -515.59039208476838   -1.53690e-08   1.05655e-07 DIIS
   @RHF iter  12:  -515.59039208652723   -1.75885e-09   3.83886e-08 DIIS
   @RHF iter  13:  -515.59039208665763   -1.30399e-10   1.34187e-08 DIIS
   @RHF iter  14:  -515.59039208667957   -2.19416e-11   4.64691e-09 DIIS
   @RHF iter  15:  -515.59039208667821    1.36424e-12   2.10795e-09 DIIS
   @RHF iter  16:  -515.59039208668082   -2.61480e-12   1.02220e-09 DIIS
   @RHF iter  17:  -515.59039208668139   -5.68434e-13   4.58003e-10 DIIS
   @RHF iter  18:  -515.59039208667764    3.75167e-12   1.75571e-10 DIIS
   @RHF iter  19:  -515.59039208667946   -1.81899e-12   4.72050e-11 DIIS
  Energy and wave function converged.

  ==> Post-Iterations <==

    Orbital Energies [Eh]
    ---------------------

    Doubly Occupied:

       1A    -20.570778     2A    -15.585583     3A    -11.292052
       4A    -11.250623     5A    -11.247326     6A    -11.218862
       7A    -11.218293     8A    -11.217715     9A    -11.217006
      10A    -11.209062    11A    -11.207261    12A    -11.201868
      13A     -1.367239    14A     -1.281538    15A     -1.121583
      16A     -1.062147    17A     -0.989357    18A     -0.977255
      19A     -0.935183    20A     -0.919990    21A     -0.828818
      22A     -0.793447    23A     -0.741190    24A     -0.707638
      25A     -0.697757    26A     -0.650127    27A     -0.633181
      28A     -0.630219    29A     -0.605345    30A     -0.592659
      31A     -0.582351    32A     -0.580798    33A     -0.555277
      34A     -0.542657    35A     -0.526165    36A     -0.518956
      37A     -0.512084    38A     -0.484043    39A     -0.461949
      40A     -0.458632    41A     -0.453264    42A     -0.362527
      43A     -0.285622    44A     -0.263518

    Virtual:

      45A      0.138064    46A      0.161776    47A      0.181636
      48A      0.197145    49A      0.202734    50A      0.209795
      51A      0.222429    52A      0.240075    53A      0.240932
      54A      0.247942    55A      0.255198    56A      0.264473
      57A      0.279237    58A      0.287239    59A      0.298428
      60A      0.307732    61A      0.347718    62A      0.395578
      63A      0.398924    64A      0.417209    65A      0.435413
      66A      0.457771    67A      0.484306    68A      0.500524
      69A      0.507400    70A      0.522941    71A      0.607523
      72A      0.612669    73A      0.624943    74A      0.634807
      75A      0.645158    76A      0.654286    77A      0.676968
      78A      0.699407    79A      0.707871    80A      0.717065
      81A      0.732539    82A      0.738631    83A      0.748211
      84A      0.749655    85A      0.754403    86A      0.755593
      87A      0.772810    88A      0.780970    89A      0.787073
      90A      0.801683    91A      0.804520    92A      0.821216
      93A      0.845977    94A      0.848774    95A      0.860413
      96A      0.880416    97A      0.883954    98A      0.886639
      99A      0.891450   100A      0.899352   101A      0.905217
     102A      0.914865   103A      0.926624   104A      0.957935
     105A      0.970388   106A      0.977553   107A      0.982803
     108A      0.995444   109A      1.025329   110A      1.073539
     111A      1.081645   112A      1.100306   113A      1.117755
     114A      1.135234   115A      1.142365   116A      1.144969
     117A      1.152280   118A      1.159597   119A      1.173670
     120A      1.181729   121A      1.223082   122A      1.229953
     123A      1.243558   124A      1.249665   125A      1.262677
     126A      1.285366   127A      1.303641   128A      1.311633
     129A      1.319479   130A      1.342222   131A      1.346222
     132A      1.362616   133A      1.376228   134A      1.385723
     135A      1.417763   136A      1.443523   137A      1.495042
     138A      1.546925   139A      1.582170   140A      1.595738
     141A      1.607926   142A      1.637795   143A      1.640641
     144A      1.644683   145A      1.653601   146A      1.666540
     147A      1.690298   148A      1.702955   149A      1.739906
     150A      1.758030   151A      1.773597   152A      1.797038
     153A      1.803110   154A      1.827266   155A      1.840515
     156A      1.844387   157A      1.846030   158A      1.885154
     159A      1.892890   160A      1.897593   161A      1.904274
     162A      1.916410   163A      1.928799   164A      1.934984
     165A      1.947413   166A      1.950835   167A      1.956218
     168A      1.975292   169A      1.987661   170A      2.011122
     171A      2.015461   172A      2.025354   173A      2.038810
     174A      2.059138   175A      2.092654   176A      2.102651
     177A      2.109904   178A      2.119309   179A      2.127290
     180A      2.138256   181A      2.143356   182A      2.161154
     183A      2.166522   184A      2.182424   185A      2.196247
     186A      2.238987   187A      2.259308   188A      2.274812
     189A      2.312577   190A      2.320223   191A      2.333173
     192A      2.342271   193A      2.348034   194A      2.359878
     195A      2.361642   196A      2.412687   197A      2.435657
     198A      2.468373   199A      2.481184   200A      2.495251
     201A      2.563390   202A      2.605171   203A      2.625460
     204A      2.657747   205A      2.679192   206A      2.702468
     207A      2.711793   208A      2.731615   209A      2.739970
     210A      2.752797   211A      2.782449   212A      2.786278
     213A      2.809241   214A      2.820866   215A      2.848460
     216A      2.881450   217A      2.894428   218A      2.944200
     219A      2.988515   220A      3.043789   221A      3.074611
     222A      3.101299   223A      3.142645   224A      3.231501
     225A      3.280069   226A      3.334767   227A      3.358989
     228A      3.397916   229A      3.438747   230A      3.568377
     231A      3.763363   232A      3.987598   233A      4.071479

    Final Occupation by Irrep:
              A
    DOCC [    44 ]

  @RHF Final Energy:  -515.59039208667946

   => Energetics <=

    Nuclear Repulsion Energy =            646.3804919698594631
    One-Electron Energy =               -1982.8238776550715556
    Two-Electron Energy =                 820.8529935985325210
    Total Energy =                       -515.5903920866794579

Computation Completed

Properties will be evaluated at   0.000000,   0.000000,   0.000000 [a0]

Properties computed using the SCF density matrix

  Nuclear Dipole Moment: [e a0]
     X:    -4.8934      Y:     7.6959      Z:     5.1515

  Electronic Dipole Moment: [e a0]
     X:     4.2592      Y:    -7.0262      Z:    -3.5012

  Dipole Moment: [e a0]
     X:    -0.6342      Y:     0.6697      Z:     1.6503     Total:     1.8905

  Dipole Moment: [D]
     X:    -1.6119      Y:     1.7022      Z:     4.1946     Total:     4.8052

*** tstop() called on ds3 at Tue Apr 28 10:30:55 2020
Module time:
	user time   =     131.60 seconds =       2.19 minutes
	system time =      56.84 seconds =       0.95 minutes
	total time  =        259 seconds =       4.32 minutes
Total time:
	user time   =     131.60 seconds =       2.19 minutes
	system time =      56.84 seconds =       0.95 minutes
	total time  =        259 seconds =       4.32 minutes
                                     G D M A

                                 by Anthony Stone

                           version 2.2.06, 22 June 2011

               Distributed Multipoles from Gaussian wavefunctions

Starting at 10:30:55 on 28 Apr 2020

Using SCF density matrix from file ./SSI/SSI-040TRP-122THR-1-dimer.test.18643.fchk

                         Distributed Multipole Analysis

Standard DMA

Positions and radii in angstrom
Multipole moments in atomic units, ea_0^k for rank k

C          x = -1.612277  y =  1.315775  z = -2.104395 angstrom
           Maximum rank =  0   Radius =  0.650 angstrom
                   Q00  =  -0.198912

C          x = -0.883277  y =  0.741775  z =  0.288605 angstrom
           Maximum rank =  0   Radius =  0.650 angstrom
                   Q00  =   0.109336

C          x = -0.801277  y =  0.605775  z = -1.061395 angstrom
           Maximum rank =  0   Radius =  0.650 angstrom
                   Q00  =  -0.159240

C          x =  0.684723  y = -0.820225  z = -0.043395 angstrom
           Maximum rank =  0   Radius =  0.650 angstrom
                   Q00  =   0.266805

C          x =  0.186723  y = -0.404225  z = -1.301395 angstrom
           Maximum rank =  0   Radius =  0.650 angstrom
                   Q00  =  -0.057769

C          x =  1.656723  y = -1.794225  z =  0.076605 angstrom
           Maximum rank =  0   Radius =  0.650 angstrom
                   Q00  =  -0.121470

C          x =  0.705723  y = -0.991225  z = -2.457395 angstrom
           Maximum rank =  0   Radius =  0.650 angstrom
                   Q00  =  -0.099874

C          x =  2.147723  y = -2.358225  z = -1.085395 angstrom
           Maximum rank =  0   Radius =  0.650 angstrom
                   Q00  =  -0.003844

C          x =  1.689723  y = -1.954225  z = -2.335395 angstrom
           Maximum rank =  0   Radius =  0.650 angstrom
                   Q00  =  -0.096349

N          x =  0.004723  y = -0.107225  z =  0.906605 angstrom
           Maximum rank =  0   Radius =  0.650 angstrom
                   Q00  =  -0.500345

H          x = -1.558277  y =  1.418775  z =  0.802605 angstrom
           Maximum rank =  0   Radius =  0.325 angstrom
                   Q00  =   0.091114

H          x =  0.098723  y = -0.184225  z =  1.914605 angstrom
           Maximum rank =  0   Radius =  0.325 angstrom
                   Q00  =   0.222736

H          x = -0.948277  y =  1.694775  z = -2.883395 angstrom
           Maximum rank =  0   Radius =  0.325 angstrom
                   Q00  =   0.095577

H          x = -2.107277  y =  2.164775  z = -1.641395 angstrom
           Maximum rank =  0   Radius =  0.325 angstrom
                   Q00  =   0.102862

H          x =  1.994723  y = -2.120225  z =  1.046605 angstrom
           Maximum rank =  0   Radius =  0.325 angstrom
                   Q00  =   0.068632

H          x =  0.360723  y = -0.678225  z = -3.431395 angstrom
           Maximum rank =  0   Radius =  0.325 angstrom
                   Q00  =   0.064839

H          x =  2.920723  y = -3.108225  z = -1.030395 angstrom
           Maximum rank =  0   Radius =  0.325 angstrom
                   Q00  =   0.058399

H          x =  2.112723  y = -2.394225  z = -3.227395 angstrom
           Maximum rank =  0   Radius =  0.325 angstrom
                   Q00  =   0.054220

H          x = -2.350054  y =  0.635027  z = -2.554136 angstrom
           Maximum rank =  0   Radius =  0.325 angstrom
                   Q00  =   0.093452

C          x = -1.241277  y =  2.877775  z =  4.028605 angstrom
           Maximum rank =  0   Radius =  0.650 angstrom
                   Q00  =  -0.050431

O          x = -1.576277  y =  1.663775  z =  3.358605 angstrom
           Maximum rank =  0   Radius =  0.650 angstrom
                   Q00  =  -0.600705

H          x = -2.260277  y =  1.216775  z =  3.870605 angstrom
           Maximum rank =  0   Radius =  0.325 angstrom
                   Q00  =   0.387617

H          x = -1.046277  y =  2.656775  z =  5.077605 angstrom
           Maximum rank =  0   Radius =  0.325 angstrom
                   Q00  =   0.074856

H          x = -0.342205  y =  3.320175  z =  3.574787 angstrom
           Maximum rank =  0   Radius =  0.325 angstrom
                   Q00  =   0.121561

H          x = -2.086645  y =  3.578425  z =  3.961979 angstrom
           Maximum rank =  0   Radius =  0.325 angstrom
                   Q00  =   0.076932

Total multipoles referred to origin at
           x =   0.000000,  y =    0.000000,  z =    0.000000 angstrom
                   Q00  =  -0.000000

Finished at 10:30:56 on 28 Apr 2020

  DMA results are available in the Python driver through the
	  variable('DMA DISTRIBUTED MULTIPOLES')
  and
	  variable('DMA TOTAL MULTIPOLES')
  commands.

    Psi4 stopped on: Tuesday, 28 April 2020 10:30AM
    Psi4 wall time for execution: 0:04:19.97

*** Psi4 exiting successfully. Buy a developer a beer!
