                               Psi4 1.3.2 release

  ==> Input File <==

--------------------------------------------------------------------------
import numpy as np
set {scf_type pk
basis cc-pvdz
d_convergence 10
gdma_switch   0
gdma_limit    0
gdma_origin   [ 0.0,  0.0,  0.0 ]
}
molecule test {
    units Angstrom
    0 1
    --
    0 1
    C               -1.372519957120345    -1.324587916281221     1.371395266418455
    C               -2.341519957120345    -1.348587916281221     2.534395266418455
    H               -1.798519957120345    -0.800587916281221     0.512395266418455
    H               -0.457519957120345    -0.811587916281221     1.671395266418455
    H               -1.097519957120345    -2.341587916281221     1.088395266418455
    H               -1.965519957120345    -2.070587916281221     3.261395266418455
    H               -3.333573957120346    -1.687097916281221     2.200865266418455
    H               -2.386129957120345    -0.375807916281221     3.045965266418455
    C                0.897480042879655     0.829412083718779    -0.863604733581545
    C                2.428480042879654     0.784412083718779    -0.807604733581545
    C                0.437480042879655     1.109412083718779    -2.287604733581545
    H                0.489480042879655    -0.122587916281221    -0.526604733581545
    H                0.521480042879655     1.620412083718779    -0.214604733581545
    H                2.795480042879655     1.670412083718779    -1.315604733581546
    H                0.820480042879655     2.084412083718779    -2.583604733581546
    H                0.870480042879655     0.363412083718779    -2.955604733581545
    H                2.814503042879655    -0.101167916281221    -1.333655733581545
    H                2.789478042879655     0.864712083718779     0.228364266418455
    H               -0.650797447120345     1.111592083718779    -2.447752733581545

}
e, wfn = energy('scf', return_wfn=True)
gdma(wfn)
dmavals = variable('DMA DISTRIBUTED MULTIPOLES')
charges = np.array(dmavals)
print(charges)
np.save('SSI-154ILE-159GLN-1-dimer.npy', np.array(charges))--------------------------------------------------------------------------

*** tstart() called on ds3
*** at Mon Apr 27 12:47:17 2020

   => Loading Basis Set <=

    Name: CC-PVDZ
    Role: ORBITAL
    Keyword: BASIS
    atoms 1-2, 9-11  entry C          line   138 file /theoryfs2/ds/metcalf/miniconda2/envs/tf2gpu/share/psi4/basis/cc-pvdz.gbs
    atoms 3-8, 12-19 entry H          line    22 file /theoryfs2/ds/metcalf/miniconda2/envs/tf2gpu/share/psi4/basis/cc-pvdz.gbs

         ---------------------------------------------------------
                                   SCF
               by Justin Turney, Rob Parrish, Andy Simmonett
                          and Daniel G. A. Smith
                              RHF Reference
                        1 Threads,    500 MiB Core
         ---------------------------------------------------------

  ==> Geometry <==

    Molecular point group: c1
    Full point group: C1

    Geometry (in Angstrom), charge = 0, multiplicity = 1:

       Center              X                  Y                   Z               Mass
    ------------   -----------------  -----------------  -----------------  -----------------
         C           -1.372519957120    -1.324587916281     1.371395266418    12.000000000000
         C           -2.341519957120    -1.348587916281     2.534395266418    12.000000000000
         H           -1.798519957120    -0.800587916281     0.512395266418     1.007825032230
         H           -0.457519957120    -0.811587916281     1.671395266418     1.007825032230
         H           -1.097519957120    -2.341587916281     1.088395266418     1.007825032230
         H           -1.965519957120    -2.070587916281     3.261395266418     1.007825032230
         H           -3.333573957120    -1.687097916281     2.200865266418     1.007825032230
         H           -2.386129957120    -0.375807916281     3.045965266418     1.007825032230
         C            0.897480042880     0.829412083719    -0.863604733582    12.000000000000
         C            2.428480042880     0.784412083719    -0.807604733582    12.000000000000
         C            0.437480042880     1.109412083719    -2.287604733582    12.000000000000
         H            0.489480042880    -0.122587916281    -0.526604733582     1.007825032230
         H            0.521480042880     1.620412083719    -0.214604733582     1.007825032230
         H            2.795480042880     1.670412083719    -1.315604733582     1.007825032230
         H            0.820480042880     2.084412083719    -2.583604733582     1.007825032230
         H            0.870480042880     0.363412083719    -2.955604733582     1.007825032230
         H            2.814503042880    -0.101167916281    -1.333655733582     1.007825032230
         H            2.789478042880     0.864712083719     0.228364266418     1.007825032230
         H           -0.650797447120     1.111592083719    -2.447752733582     1.007825032230

  Running in c1 symmetry.

  Rotational constants: A =      0.24610  B =      0.03373  C =      0.03099 [cm^-1]
  Rotational constants: A =   7377.90104  B =   1011.28907  C =    929.02105 [MHz]
  Nuclear repulsion =  174.453450571652496

  Charge       = 0
  Multiplicity = 1
  Electrons    = 44
  Nalpha       = 22
  Nbeta        = 22

  ==> Algorithm <==

  SCF Algorithm Type is PK.
  DIIS enabled.
  MOM disabled.
  Fractional occupation disabled.
  Guess Type is SAD.
  Energy threshold   = 1.00e-06
  Density threshold  = 1.00e-10
  Integral threshold = 0.00e+00

  ==> Primary Basis <==

  Basis Set: CC-PVDZ
    Blend: CC-PVDZ
    Number of shells: 72
    Number of basis function: 140
    Number of Cartesian functions: 145
    Spherical Harmonics?: true
    Max angular momentum: 2

  ==> Pre-Iterations <==

   -------------------------------------------------------
    Irrep   Nso     Nmo     Nalpha   Nbeta   Ndocc  Nsocc
   -------------------------------------------------------
     A        140     140       0       0       0       0
   -------------------------------------------------------
    Total     140     140      22      22      22       0
   -------------------------------------------------------

  ==> Integral Setup <==

  Using integral reordering PK algorithm.
  Sizing the integral batches needed.
  Building batch lookup table.
   Calculation information:
      Number of atoms:                  19
      Number of AO shells:              72
      Number of primitives:            180
      Number of atomic orbitals:       145
      Number of basis functions:       140

      Integral cutoff                 1.00e-12
      Number of threads:                 1

	Batch   1 pq = [       0,    9405] index = [             0,44231715] size =     44231715
	Batch   2 pq = [    9405,    9870] index = [      44231715,48713385] size =      4481670
  Task number: 5
  Buffer size: 11059200
  Buffer per thread: 2
  We computed 2673089 shell quartets total.
  Whereas there are 3454506 unique shell quartets.

  ==> DiskJK: Disk-Based J/K Matrices <==

    J tasked:                  Yes
    K tasked:                  Yes
    wK tasked:                  No
    Memory [MiB]:              375
    Schwarz Cutoff:          1E-12

    OpenMP threads:              1

  Minimum eigenvalue in the overlap matrix is 5.3751247703E-03.
  Using Symmetric Orthogonalization.

  SCF Guess: Superposition of Atomic Densities via on-the-fly atomic UHF.

  ==> Iterations <==

                        Total Energy        Delta E     RMS |[F,P]|

   @RHF iter SAD:  -196.39235128006959   -1.96392e+02   0.00000e+00
   @RHF iter   1:  -197.30834940234911   -9.15998e-01   3.82711e-03 DIIS
   @RHF iter   2:  -197.46936691981941   -1.61018e-01   1.66539e-03 DIIS
   @RHF iter   3:  -197.49855169933528   -2.91848e-02   3.27470e-04 DIIS
   @RHF iter   4:  -197.50080136164547   -2.24966e-03   4.84591e-05 DIIS
   @RHF iter   5:  -197.50084082281154   -3.94612e-05   1.48828e-05 DIIS
   @RHF iter   6:  -197.50084424775321   -3.42494e-06   2.54689e-06 DIIS
   @RHF iter   7:  -197.50084436540627   -1.17653e-07   4.89151e-07 DIIS
   @RHF iter   8:  -197.50084437051592   -5.10965e-09   1.26959e-07 DIIS
   @RHF iter   9:  -197.50084437084024   -3.24320e-10   4.00458e-08 DIIS
   @RHF iter  10:  -197.50084437087682   -3.65787e-11   8.44062e-09 DIIS
   @RHF iter  11:  -197.50084437087889   -2.07478e-12   1.57438e-09 DIIS
   @RHF iter  12:  -197.50084437087892   -2.84217e-14   2.86858e-10 DIIS
   @RHF iter  13:  -197.50084437087861    3.12639e-13   5.00286e-11 DIIS
  Energy and wave function converged.

  ==> Post-Iterations <==

    Orbital Energies [Eh]
    ---------------------

    Doubly Occupied:

       1A    -11.218315     2A    -11.218286     3A    -11.216867
       4A    -11.215974     5A    -11.214351     6A     -1.054917
       7A     -1.021564     8A     -0.920719     9A     -0.835766
      10A     -0.798201    11A     -0.628115    12A     -0.600483
      13A     -0.598803    14A     -0.595500    15A     -0.541918
      16A     -0.528247    17A     -0.505736    18A     -0.485793
      19A     -0.481952    20A     -0.472251    21A     -0.470533
      22A     -0.465175

    Virtual:

      23A      0.174668    24A      0.192408    25A      0.214511
      26A      0.223528    27A      0.230070    28A      0.247501
      29A      0.257445    30A      0.264170    31A      0.274174
      32A      0.286523    33A      0.295744    34A      0.307532
      35A      0.311152    36A      0.313868    37A      0.376047
      38A      0.420323    39A      0.429522    40A      0.574919
      41A      0.586591    42A      0.597927    43A      0.605446
      44A      0.609048    45A      0.616276    46A      0.624291
      47A      0.659117    48A      0.689094    49A      0.757246
      50A      0.787365    51A      0.828514    52A      0.856535
      53A      0.863900    54A      0.877588    55A      0.886732
      56A      0.891859    57A      0.895260    58A      0.899042
      59A      0.902090    60A      0.907561    61A      0.911373
      62A      0.918396    63A      0.926876    64A      0.933829
      65A      0.947989    66A      0.973166    67A      0.978267
      68A      1.015164    69A      1.116604    70A      1.122494
      71A      1.128531    72A      1.150140    73A      1.207805
      74A      1.252215    75A      1.368043    76A      1.467443
      77A      1.480851    78A      1.482666    79A      1.491273
      80A      1.563672    81A      1.586295    82A      1.601050
      83A      1.672828    84A      1.680422    85A      1.693922
      86A      1.696486    87A      1.719921    88A      1.836481
      89A      1.858920    90A      1.867351    91A      1.881051
      92A      1.891867    93A      1.903391    94A      1.917600
      95A      1.924900    96A      1.935616    97A      1.946686
      98A      1.950710    99A      1.957165   100A      1.958427
     101A      1.966013   102A      1.976860   103A      1.981628
     104A      1.993892   105A      2.020785   106A      2.031355
     107A      2.075148   108A      2.119871   109A      2.128066
     110A      2.139494   111A      2.156304   112A      2.277705
     113A      2.303021   114A      2.313700   115A      2.321333
     116A      2.330737   117A      2.349128   118A      2.433732
     119A      2.458711   120A      2.494572   121A      2.536077
     122A      2.564957   123A      2.579887   124A      2.588062
     125A      2.609370   126A      2.643227   127A      2.751120
     128A      2.758883   129A      2.774636   130A      2.784973
     131A      2.791152   132A      2.825006   133A      2.846063
     134A      2.855518   135A      2.903469   136A      2.937871
     137A      2.961118   138A      2.966558   139A      2.970500
     140A      3.085175

    Final Occupation by Irrep:
              A
    DOCC [    22 ]

  @RHF Final Energy:  -197.50084437087861

   => Energetics <=

    Nuclear Repulsion Energy =            174.4534505716524961
    One-Electron Energy =                -609.7296598335321960
    Two-Electron Energy =                 237.7753648910010611
    Total Energy =                       -197.5008443708786103

Computation Completed

Properties will be evaluated at   0.000000,   0.000000,   0.000000 [a0]

Properties computed using the SCF density matrix

  Nuclear Dipole Moment: [e a0]
     X:    -0.5514      Y:    -0.5588      Z:     0.5919

  Electronic Dipole Moment: [e a0]
     X:     0.5478      Y:     0.5537      Z:    -0.5616

  Dipole Moment: [e a0]
     X:    -0.0036      Y:    -0.0051      Z:     0.0303     Total:     0.0309

  Dipole Moment: [D]
     X:    -0.0092      Y:    -0.0129      Z:     0.0770     Total:     0.0786

*** tstop() called on ds3 at Mon Apr 27 12:47:45 2020
Module time:
	user time   =      20.10 seconds =       0.33 minutes
	system time =       8.42 seconds =       0.14 minutes
	total time  =         28 seconds =       0.47 minutes
Total time:
	user time   =      20.10 seconds =       0.33 minutes
	system time =       8.42 seconds =       0.14 minutes
	total time  =         28 seconds =       0.47 minutes
                                     G D M A

                                 by Anthony Stone

                           version 2.2.06, 22 June 2011

               Distributed Multipoles from Gaussian wavefunctions

Starting at 12:47:45 on 27 Apr 2020

Using SCF density matrix from file ./SSI/SSI-154ILE-159GLN-1-dimer.test.4065.fchk

                         Distributed Multipole Analysis

Standard DMA

Positions and radii in angstrom
Multipole moments in atomic units, ea_0^k for rank k

C          x = -1.372520  y = -1.324588  z =  1.371395 angstrom
           Maximum rank =  0   Radius =  0.650 angstrom
                   Q00  =  -0.227384

C          x = -2.341520  y = -1.348588  z =  2.534395 angstrom
           Maximum rank =  0   Radius =  0.650 angstrom
                   Q00  =  -0.235893

H          x = -1.798520  y = -0.800588  z =  0.512395 angstrom
           Maximum rank =  0   Radius =  0.325 angstrom
                   Q00  =   0.077500

H          x = -0.457520  y = -0.811588  z =  1.671395 angstrom
           Maximum rank =  0   Radius =  0.325 angstrom
                   Q00  =   0.076646

H          x = -1.097520  y = -2.341588  z =  1.088395 angstrom
           Maximum rank =  0   Radius =  0.325 angstrom
                   Q00  =   0.077377

H          x = -1.965520  y = -2.070588  z =  3.261395 angstrom
           Maximum rank =  0   Radius =  0.325 angstrom
                   Q00  =   0.075037

H          x = -3.333574  y = -1.687098  z =  2.200865 angstrom
           Maximum rank =  0   Radius =  0.325 angstrom
                   Q00  =   0.079230

H          x = -2.386130  y = -0.375808  z =  3.045965 angstrom
           Maximum rank =  0   Radius =  0.325 angstrom
                   Q00  =   0.079610

C          x =  0.897480  y =  0.829412  z = -0.863605 angstrom
           Maximum rank =  0   Radius =  0.650 angstrom
                   Q00  =  -0.084851

C          x =  2.428480  y =  0.784412  z = -0.807605 angstrom
           Maximum rank =  0   Radius =  0.650 angstrom
                   Q00  =  -0.233135

C          x =  0.437480  y =  1.109412  z = -2.287605 angstrom
           Maximum rank =  0   Radius =  0.650 angstrom
                   Q00  =  -0.250918

H          x =  0.489480  y = -0.122588  z = -0.526605 angstrom
           Maximum rank =  0   Radius =  0.325 angstrom
                   Q00  =   0.053678

H          x =  0.521480  y =  1.620412  z = -0.214605 angstrom
           Maximum rank =  0   Radius =  0.325 angstrom
                   Q00  =   0.047691

H          x =  2.795480  y =  1.670412  z = -1.315605 angstrom
           Maximum rank =  0   Radius =  0.325 angstrom
                   Q00  =   0.071531

H          x =  0.820480  y =  2.084412  z = -2.583605 angstrom
           Maximum rank =  0   Radius =  0.325 angstrom
                   Q00  =   0.073372

H          x =  0.870480  y =  0.363412  z = -2.955605 angstrom
           Maximum rank =  0   Radius =  0.325 angstrom
                   Q00  =   0.071979

H          x =  2.814503  y = -0.101168  z = -1.333656 angstrom
           Maximum rank =  0   Radius =  0.325 angstrom
                   Q00  =   0.080680

H          x =  2.789478  y =  0.864712  z =  0.228364 angstrom
           Maximum rank =  0   Radius =  0.325 angstrom
                   Q00  =   0.083877

H          x = -0.650797  y =  1.111592  z = -2.447753 angstrom
           Maximum rank =  0   Radius =  0.325 angstrom
                   Q00  =   0.083974

Total multipoles referred to origin at
           x =   0.000000,  y =    0.000000,  z =    0.000000 angstrom
                   Q00  =  -0.000000

Finished at 12:47:45 on 27 Apr 2020

  DMA results are available in the Python driver through the
	  variable('DMA DISTRIBUTED MULTIPOLES')
  and
	  variable('DMA TOTAL MULTIPOLES')
  commands.

    Psi4 stopped on: Monday, 27 April 2020 12:47PM
    Psi4 wall time for execution: 0:00:27.74

*** Psi4 exiting successfully. Buy a developer a beer!
