                               Psi4 1.3.2 release

  ==> Input File <==

--------------------------------------------------------------------------
import numpy as np
set {scf_type pk
basis cc-pvdz
d_convergence 10
gdma_switch   0
gdma_limit    0
gdma_origin   [ 0.0,  0.0,  0.0 ]
}
molecule test {
    units Angstrom
    0 1
    --
    0 1
    C               -2.406219977135964     1.541271701062111     2.140452755928759
    C               -0.704219977135965    -0.738728298937889    -0.362547244071241
    C                0.469780022864035    -1.038728298937889     0.289452755928760
    C               -1.637219977135965     0.081271701062111     0.237452755928760
    C               -1.380219977135965     0.658271701062111     1.486452755928759
    C                0.739780022864035    -0.483728298937889     1.524452755928759
    C               -0.186219977135965     0.372271701062111     2.121452755928760
    H               -0.913219977135965    -1.183728298937889    -1.324547244071240
    H                1.167780022864035    -1.734728298937889    -0.149547244071240
    H               -2.577219977135965     0.274271701062111    -0.259547244071240
    H                1.660780022864035    -0.730728298937889     2.035452755928759
    H               -3.039219977135965     2.001271701062111     1.379452755928759
    H               -1.875219977135965     2.335271701062112     2.653452755928760
    H                0.027780022864035     0.799271701062111     3.091452755928760
    H               -3.030929977135965     1.009221701062112     2.873022755928760
    C                1.576780022864035    -0.235728298937889    -3.396547244071241
    C                3.077780022864035    -0.254728298937889    -3.233547244071240
    H                1.303780022864035    -0.411728298937889    -4.437547244071239
    H                1.132780022864035    -1.036728298937889    -2.806547244071240
    H                1.170780022864035     0.719271701062111    -3.060547244071240
    H                3.434780022864035    -1.183728298937889    -3.677547244071240
    H                3.546233022864036     0.590511701062111    -3.759027244071240
    H                3.348949022864036    -0.274248298937889    -2.167677244071240

}
e, wfn = energy('scf', return_wfn=True)
gdma(wfn)
dmavals = variable('DMA DISTRIBUTED MULTIPOLES')
charges = np.array(dmavals)
print(charges)
np.save('SSI-095PHE-160VAL-1-dimer.npy', np.array(charges))--------------------------------------------------------------------------

*** tstart() called on ds3
*** at Tue Apr 28 09:35:34 2020

   => Loading Basis Set <=

    Name: CC-PVDZ
    Role: ORBITAL
    Keyword: BASIS
    atoms 1-7, 16-17  entry C          line   138 file /theoryfs2/ds/metcalf/miniconda2/envs/tf2gpu/share/psi4/basis/cc-pvdz.gbs
    atoms 8-15, 18-23 entry H          line    22 file /theoryfs2/ds/metcalf/miniconda2/envs/tf2gpu/share/psi4/basis/cc-pvdz.gbs

         ---------------------------------------------------------
                                   SCF
               by Justin Turney, Rob Parrish, Andy Simmonett
                          and Daniel G. A. Smith
                              RHF Reference
                        1 Threads,    500 MiB Core
         ---------------------------------------------------------

  ==> Geometry <==

    Molecular point group: c1
    Full point group: C1

    Geometry (in Angstrom), charge = 0, multiplicity = 1:

       Center              X                  Y                   Z               Mass
    ------------   -----------------  -----------------  -----------------  -----------------
         C           -2.406219977136     1.541271701062     2.140452755929    12.000000000000
         C           -0.704219977136    -0.738728298938    -0.362547244071    12.000000000000
         C            0.469780022864    -1.038728298938     0.289452755929    12.000000000000
         C           -1.637219977136     0.081271701062     0.237452755929    12.000000000000
         C           -1.380219977136     0.658271701062     1.486452755929    12.000000000000
         C            0.739780022864    -0.483728298938     1.524452755929    12.000000000000
         C           -0.186219977136     0.372271701062     2.121452755929    12.000000000000
         H           -0.913219977136    -1.183728298938    -1.324547244071     1.007825032230
         H            1.167780022864    -1.734728298938    -0.149547244071     1.007825032230
         H           -2.577219977136     0.274271701062    -0.259547244071     1.007825032230
         H            1.660780022864    -0.730728298938     2.035452755929     1.007825032230
         H           -3.039219977136     2.001271701062     1.379452755929     1.007825032230
         H           -1.875219977136     2.335271701062     2.653452755929     1.007825032230
         H            0.027780022864     0.799271701062     3.091452755929     1.007825032230
         H           -3.030929977136     1.009221701062     2.873022755929     1.007825032230
         C            1.576780022864    -0.235728298938    -3.396547244071    12.000000000000
         C            3.077780022864    -0.254728298938    -3.233547244071    12.000000000000
         H            1.303780022864    -0.411728298938    -4.437547244071     1.007825032230
         H            1.132780022864    -1.036728298938    -2.806547244071     1.007825032230
         H            1.170780022864     0.719271701062    -3.060547244071     1.007825032230
         H            3.434780022864    -1.183728298938    -3.677547244071     1.007825032230
         H            3.546233022864     0.590511701062    -3.759027244071     1.007825032230
         H            3.348949022864    -0.274248298938    -2.167677244071     1.007825032230

  Running in c1 symmetry.

  Rotational constants: A =      0.09985  B =      0.01983  C =      0.01830 [cm^-1]
  Rotational constants: A =   2993.28992  B =    594.46881  C =    548.58083 [MHz]
  Nuclear repulsion =  402.180880356029718

  Charge       = 0
  Multiplicity = 1
  Electrons    = 68
  Nalpha       = 34
  Nbeta        = 34

  ==> Algorithm <==

  SCF Algorithm Type is PK.
  DIIS enabled.
  MOM disabled.
  Fractional occupation disabled.
  Guess Type is SAD.
  Energy threshold   = 1.00e-06
  Density threshold  = 1.00e-10
  Integral threshold = 0.00e+00

  ==> Primary Basis <==

  Basis Set: CC-PVDZ
    Blend: CC-PVDZ
    Number of shells: 96
    Number of basis function: 196
    Number of Cartesian functions: 205
    Spherical Harmonics?: true
    Max angular momentum: 2

  ==> Pre-Iterations <==

   -------------------------------------------------------
    Irrep   Nso     Nmo     Nalpha   Nbeta   Ndocc  Nsocc
   -------------------------------------------------------
     A        196     196       0       0       0       0
   -------------------------------------------------------
    Total     196     196      34      34      34       0
   -------------------------------------------------------

  ==> Integral Setup <==

  Using integral reordering PK algorithm.
  Sizing the integral batches needed.
  Building batch lookup table.
   Calculation information:
      Number of atoms:                  23
      Number of AO shells:              96
      Number of primitives:            268
      Number of atomic orbitals:       205
      Number of basis functions:       196

      Integral cutoff                 1.00e-12
      Number of threads:                 1

	Batch   1 pq = [       0,    9405] index = [             0,44231715] size =     44231715
	Batch   2 pq = [    9405,   13301] index = [      44231715,88464951] size =     44233236
	Batch   3 pq = [   13301,   16290] index = [      88464951,132690195] size =     44225244
	Batch   4 pq = [   16290,   18810] index = [     132690195,176917455] size =     44227260
	Batch   5 pq = [   18810,   19306] index = [     176917455,186370471] size =      9453016
  Task number: 17
  Buffer size: 11059200
  Buffer per thread: 2
  We computed 8752215 shell quartets total.
  Whereas there are 10841496 unique shell quartets.

  ==> DiskJK: Disk-Based J/K Matrices <==

    J tasked:                  Yes
    K tasked:                  Yes
    wK tasked:                  No
    Memory [MiB]:              375
    Schwarz Cutoff:          1E-12

    OpenMP threads:              1

  Minimum eigenvalue in the overlap matrix is 3.0010505691E-04.
  Using Symmetric Orthogonalization.

  SCF Guess: Superposition of Atomic Densities via on-the-fly atomic UHF.

  ==> Iterations <==

                        Total Energy        Delta E     RMS |[F,P]|

   @RHF iter SAD:  -347.97811542422181   -3.47978e+02   0.00000e+00
   @RHF iter   1:  -348.76139439424298   -7.83279e-01   2.93959e-03 DIIS
   @RHF iter   2:  -348.95785231599046   -1.96458e-01   1.23500e-03 DIIS
   @RHF iter   3:  -348.98955901964541   -3.17067e-02   2.60372e-04 DIIS
   @RHF iter   4:  -348.99207631354318   -2.51729e-03   5.05480e-05 DIIS
   @RHF iter   5:  -348.99214594638670   -6.96328e-05   1.59035e-05 DIIS
   @RHF iter   6:  -348.99215237978694   -6.43340e-06   4.33739e-06 DIIS
   @RHF iter   7:  -348.99215291664490   -5.36858e-07   1.33642e-06 DIIS
   @RHF iter   8:  -348.99215297402361   -5.73787e-08   3.24286e-07 DIIS
   @RHF iter   9:  -348.99215298223083   -8.20722e-09   1.47039e-07 DIIS
   @RHF iter  10:  -348.99215298431062   -2.07979e-09   6.86939e-08 DIIS
   @RHF iter  11:  -348.99215298498984   -6.79222e-10   2.47465e-08 DIIS
   @RHF iter  12:  -348.99215298506471   -7.48628e-11   1.08090e-08 DIIS
   @RHF iter  13:  -348.99215298507022   -5.51381e-12   3.80315e-09 DIIS
   @RHF iter  14:  -348.99215298507107   -8.52651e-13   9.73694e-10 DIIS
   @RHF iter  15:  -348.99215298507136   -2.84217e-13   2.89470e-10 DIIS
   @RHF iter  16:  -348.99215298507141   -5.68434e-14   6.97742e-11 DIIS
  Energy and wave function converged.

  ==> Post-Iterations <==

    Orbital Energies [Eh]
    ---------------------

    Doubly Occupied:

       1A    -11.238824     2A    -11.233894     3A    -11.231149
       4A    -11.228846     5A    -11.228346     6A    -11.228258
       7A    -11.226978     8A    -11.215757     9A    -11.212603
      10A     -1.156432    11A     -1.047027    12A     -1.020705
      13A     -1.012844    14A     -0.932378    15A     -0.832748
      16A     -0.825837    17A     -0.795222    18A     -0.692860
      19A     -0.633726    20A     -0.628319    21A     -0.598759
      22A     -0.597300    23A     -0.582629    24A     -0.577293
      25A     -0.562170    26A     -0.536524    27A     -0.502488
      28A     -0.490410    29A     -0.485287    30A     -0.481843
      31A     -0.479929    32A     -0.478794    33A     -0.332851
      34A     -0.322922

    Virtual:

      35A      0.137331    36A      0.141912    37A      0.172990
      38A      0.192611    39A      0.210004    40A      0.213327
      41A      0.235130    42A      0.241010    43A      0.254221
      44A      0.258856    45A      0.269254    46A      0.279317
      47A      0.283593    48A      0.287971    49A      0.297579
      50A      0.342094    51A      0.369982    52A      0.377534
      53A      0.401120    54A      0.459148    55A      0.467444
      56A      0.485259    57A      0.495394    58A      0.564208
      59A      0.586394    60A      0.604303    61A      0.606688
      62A      0.611476    63A      0.636887    64A      0.652101
      65A      0.677052    66A      0.685277    67A      0.696832
      68A      0.713505    69A      0.724869    70A      0.740125
      71A      0.741537    72A      0.750493    73A      0.759269
      74A      0.765536    75A      0.779465    76A      0.819646
      77A      0.847078    78A      0.850000    79A      0.862889
      80A      0.869409    81A      0.877938    82A      0.879898
      83A      0.893199    84A      0.900314    85A      0.902576
      86A      0.910344    87A      0.915269    88A      0.922852
      89A      0.923336    90A      0.931352    91A      0.942238
      92A      0.958500    93A      0.982998    94A      1.001351
      95A      1.014145    96A      1.052866    97A      1.119095
      98A      1.126484    99A      1.141907   100A      1.146686
     101A      1.160826   102A      1.167582   103A      1.187158
     104A      1.238238   105A      1.244795   106A      1.248025
     107A      1.259245   108A      1.271229   109A      1.300915
     110A      1.310396   111A      1.328302   112A      1.333565
     113A      1.413830   114A      1.479157   115A      1.494778
     116A      1.508052   117A      1.518897   118A      1.562199
     119A      1.576902   120A      1.605091   121A      1.671590
     122A      1.681808   123A      1.695717   124A      1.708178
     125A      1.738709   126A      1.754893   127A      1.768044
     128A      1.791961   129A      1.814573   130A      1.858945
     131A      1.862854   132A      1.876167   133A      1.894522
     134A      1.898848   135A      1.907308   136A      1.917557
     137A      1.923428   138A      1.926485   139A      1.941096
     140A      1.948419   141A      1.952829   142A      1.955246
     143A      1.962204   144A      1.966130   145A      1.980364
     146A      1.985123   147A      1.992364   148A      2.004323
     149A      2.042507   150A      2.072126   151A      2.077321
     152A      2.100219   153A      2.114984   154A      2.133441
     155A      2.153331   156A      2.168733   157A      2.172656
     158A      2.183506   159A      2.191604   160A      2.257018
     161A      2.281732   162A      2.292670   163A      2.300858
     164A      2.307277   165A      2.316537   166A      2.324962
     167A      2.338438   168A      2.448875   169A      2.468098
     170A      2.477614   171A      2.482366   172A      2.505814
     173A      2.549863   174A      2.564698   175A      2.590597
     176A      2.627213   177A      2.743191   178A      2.761040
     179A      2.763890   180A      2.772306   181A      2.794395
     182A      2.807355   183A      2.814382   184A      2.850886
     185A      2.854481   186A      2.865278   187A      2.884364
     188A      2.951394   189A      2.971646   190A      2.995979
     191A      3.021528   192A      3.032199   193A      3.166921
     194A      3.215347   195A      3.314284   196A      3.994014

    Final Occupation by Irrep:
              A
    DOCC [    34 ]

  @RHF Final Energy:  -348.99215298507141

   => Energetics <=

    Nuclear Repulsion Energy =            402.1808803560297179
    One-Electron Energy =               -1267.0421622294211375
    Two-Electron Energy =                 515.8691288883198922
    Total Energy =                       -348.9921529850714705

Computation Completed

Properties will be evaluated at   0.000000,   0.000000,   0.000000 [a0]

Properties computed using the SCF density matrix

  Nuclear Dipole Moment: [e a0]
     X:     5.0228      Y:     1.1001      Z:    -9.0088

  Electronic Dipole Moment: [e a0]
     X:    -5.1414      Y:    -1.0505      Z:     9.1014

  Dipole Moment: [e a0]
     X:    -0.1186      Y:     0.0496      Z:     0.0926     Total:     0.1584

  Dipole Moment: [D]
     X:    -0.3015      Y:     0.1260      Z:     0.2354     Total:     0.4027

*** tstop() called on ds3 at Tue Apr 28 09:37:33 2020
Module time:
	user time   =      61.01 seconds =       1.02 minutes
	system time =      25.28 seconds =       0.42 minutes
	total time  =        119 seconds =       1.98 minutes
Total time:
	user time   =      61.01 seconds =       1.02 minutes
	system time =      25.28 seconds =       0.42 minutes
	total time  =        119 seconds =       1.98 minutes
                                     G D M A

                                 by Anthony Stone

                           version 2.2.06, 22 June 2011

               Distributed Multipoles from Gaussian wavefunctions

Starting at 9:37:33 on 28 Apr 2020

Using SCF density matrix from file ./SSI/SSI-095PHE-160VAL-1-dimer.test.10868.fchk

                         Distributed Multipole Analysis

Standard DMA

Positions and radii in angstrom
Multipole moments in atomic units, ea_0^k for rank k

C          x = -2.406220  y =  1.541272  z =  2.140453 angstrom
           Maximum rank =  0   Radius =  0.650 angstrom
                   Q00  =  -0.197789

C          x = -0.704220  y = -0.738728  z = -0.362547 angstrom
           Maximum rank =  0   Radius =  0.650 angstrom
                   Q00  =  -0.073944

C          x =  0.469780  y = -1.038728  z =  0.289453 angstrom
           Maximum rank =  0   Radius =  0.650 angstrom
                   Q00  =  -0.051173

C          x = -1.637220  y =  0.081272  z =  0.237453 angstrom
           Maximum rank =  0   Radius =  0.650 angstrom
                   Q00  =  -0.008654

C          x = -1.380220  y =  0.658272  z =  1.486453 angstrom
           Maximum rank =  0   Radius =  0.650 angstrom
                   Q00  =  -0.102089

C          x =  0.739780  y = -0.483728  z =  1.524453 angstrom
           Maximum rank =  0   Radius =  0.650 angstrom
                   Q00  =  -0.069075

C          x = -0.186220  y =  0.372272  z =  2.121453 angstrom
           Maximum rank =  0   Radius =  0.650 angstrom
                   Q00  =  -0.093774

H          x = -0.913220  y = -1.183728  z = -1.324547 angstrom
           Maximum rank =  0   Radius =  0.325 angstrom
                   Q00  =   0.062689

H          x =  1.167780  y = -1.734728  z = -0.149547 angstrom
           Maximum rank =  0   Radius =  0.325 angstrom
                   Q00  =   0.057018

H          x = -2.577220  y =  0.274272  z = -0.259547 angstrom
           Maximum rank =  0   Radius =  0.325 angstrom
                   Q00  =   0.055778

H          x =  1.660780  y = -0.730728  z =  2.035453 angstrom
           Maximum rank =  0   Radius =  0.325 angstrom
                   Q00  =   0.063759

H          x = -3.039220  y =  2.001272  z =  1.379453 angstrom
           Maximum rank =  0   Radius =  0.325 angstrom
                   Q00  =   0.098407

H          x = -1.875220  y =  2.335272  z =  2.653453 angstrom
           Maximum rank =  0   Radius =  0.325 angstrom
                   Q00  =   0.098370

H          x =  0.027780  y =  0.799272  z =  3.091453 angstrom
           Maximum rank =  0   Radius =  0.325 angstrom
                   Q00  =   0.054965

H          x = -3.030930  y =  1.009222  z =  2.873023 angstrom
           Maximum rank =  0   Radius =  0.325 angstrom
                   Q00  =   0.104926

C          x =  1.576780  y = -0.235728  z = -3.396547 angstrom
           Maximum rank =  0   Radius =  0.650 angstrom
                   Q00  =  -0.229374

C          x =  3.077780  y = -0.254728  z = -3.233547 angstrom
           Maximum rank =  0   Radius =  0.650 angstrom
                   Q00  =  -0.227861

H          x =  1.303780  y = -0.411728  z = -4.437547 angstrom
           Maximum rank =  0   Radius =  0.325 angstrom
                   Q00  =   0.073645

H          x =  1.132780  y = -1.036728  z = -2.806547 angstrom
           Maximum rank =  0   Radius =  0.325 angstrom
                   Q00  =   0.073331

H          x =  1.170780  y =  0.719272  z = -3.060547 angstrom
           Maximum rank =  0   Radius =  0.325 angstrom
                   Q00  =   0.082184

H          x =  3.434780  y = -1.183728  z = -3.677547 angstrom
           Maximum rank =  0   Radius =  0.325 angstrom
                   Q00  =   0.070938

H          x =  3.546233  y =  0.590512  z = -3.759027 angstrom
           Maximum rank =  0   Radius =  0.325 angstrom
                   Q00  =   0.079770

H          x =  3.348949  y = -0.274248  z = -2.167677 angstrom
           Maximum rank =  0   Radius =  0.325 angstrom
                   Q00  =   0.077953

Total multipoles referred to origin at
           x =   0.000000,  y =    0.000000,  z =    0.000000 angstrom
                   Q00  =  -0.000000

Finished at 9:37:33 on 28 Apr 2020

  DMA results are available in the Python driver through the
	  variable('DMA DISTRIBUTED MULTIPOLES')
  and
	  variable('DMA TOTAL MULTIPOLES')
  commands.

    Psi4 stopped on: Tuesday, 28 April 2020 09:37AM
    Psi4 wall time for execution: 0:01:58.92

*** Psi4 exiting successfully. Buy a developer a beer!
