                               Psi4 1.3.2 release

  ==> Input File <==

--------------------------------------------------------------------------
import numpy as np
set {scf_type pk
basis cc-pvdz
d_convergence 10
gdma_switch   0
gdma_limit    0
gdma_origin   [ 0.0,  0.0,  0.0 ]
}
molecule test {
    units Angstrom
    0 1
    --
    0 1
    C               -0.814959688654619    -1.854692551939043     1.076143829321421
    C                0.120040311345381    -3.054692551939043     1.356143829321421
    O               -1.125959688654619    -1.733692551939043    -0.300856170678579
    H               -1.740959688654619    -1.993692551939043     1.635143829321421
    H               -0.336959688654619    -0.942692551939043     1.432143829321421
    H               -0.311959688654619    -3.954692551939043     0.917143829321421
    H               -1.486959688654620    -2.577692551939043    -0.616856170678579
    H                0.272985311345381    -3.188142551939043     2.437253829321421
    H                1.107025311345381    -2.872082551939042     0.906130829321421
    C                0.281040311345381     1.554307448060957    -0.303856170678579
    C               -0.266959688654620     1.432307448060957    -1.728856170678579
    C                1.716040311345381     1.034307448060957    -0.265856170678579
    C                0.223040311345381     3.001307448060957     0.187143829321421
    H               -0.317959688654620     0.946307448060957     0.366143829321421
    H               -0.037959688654619     0.431307448060957    -2.097856170678579
    H                0.262040311345381     2.147307448060957    -2.360856170678579
    H                2.340040311345380     1.603307448060957    -0.954856170678579
    H                2.116040311345381     1.125307448060957     0.743143829321421
    H                1.734040311345381    -0.016692551939043    -0.552856170678579
    H               -0.806959688654619     3.354307448060957     0.214143829321421
    H                0.632040311345381     3.059307448060957     1.196143829321421
    H                0.813040311345381     3.646307448060957    -0.464856170678579
    H               -1.349407688654619     1.589907448060957    -1.844909170678579

}
e, wfn = energy('scf', return_wfn=True)
gdma(wfn)
dmavals = variable('DMA DISTRIBUTED MULTIPOLES')
charges = np.array(dmavals)
print(charges)
np.save('SSI-034SER-105LEU-1-dimer.npy', np.array(charges))--------------------------------------------------------------------------

*** tstart() called on ds3
*** at Mon Apr 27 17:44:08 2020

   => Loading Basis Set <=

    Name: CC-PVDZ
    Role: ORBITAL
    Keyword: BASIS
    atoms 1-2, 10-13 entry C          line   138 file /theoryfs2/ds/metcalf/miniconda2/envs/tf2gpu/share/psi4/basis/cc-pvdz.gbs
    atoms 3          entry O          line   198 file /theoryfs2/ds/metcalf/miniconda2/envs/tf2gpu/share/psi4/basis/cc-pvdz.gbs
    atoms 4-9, 14-23 entry H          line    22 file /theoryfs2/ds/metcalf/miniconda2/envs/tf2gpu/share/psi4/basis/cc-pvdz.gbs

         ---------------------------------------------------------
                                   SCF
               by Justin Turney, Rob Parrish, Andy Simmonett
                          and Daniel G. A. Smith
                              RHF Reference
                        1 Threads,    500 MiB Core
         ---------------------------------------------------------

  ==> Geometry <==

    Molecular point group: c1
    Full point group: C1

    Geometry (in Angstrom), charge = 0, multiplicity = 1:

       Center              X                  Y                   Z               Mass
    ------------   -----------------  -----------------  -----------------  -----------------
         C           -0.814959688655    -1.854692551939     1.076143829321    12.000000000000
         C            0.120040311345    -3.054692551939     1.356143829321    12.000000000000
         O           -1.125959688655    -1.733692551939    -0.300856170679    15.994914619570
         H           -1.740959688655    -1.993692551939     1.635143829321     1.007825032230
         H           -0.336959688655    -0.942692551939     1.432143829321     1.007825032230
         H           -0.311959688655    -3.954692551939     0.917143829321     1.007825032230
         H           -1.486959688655    -2.577692551939    -0.616856170679     1.007825032230
         H            0.272985311345    -3.188142551939     2.437253829321     1.007825032230
         H            1.107025311345    -2.872082551939     0.906130829321     1.007825032230
         C            0.281040311345     1.554307448061    -0.303856170679    12.000000000000
         C           -0.266959688655     1.432307448061    -1.728856170679    12.000000000000
         C            1.716040311345     1.034307448061    -0.265856170679    12.000000000000
         C            0.223040311345     3.001307448061     0.187143829321    12.000000000000
         H           -0.317959688655     0.946307448061     0.366143829321     1.007825032230
         H           -0.037959688655     0.431307448061    -2.097856170679     1.007825032230
         H            0.262040311345     2.147307448061    -2.360856170679     1.007825032230
         H            2.340040311345     1.603307448061    -0.954856170679     1.007825032230
         H            2.116040311345     1.125307448061     0.743143829321     1.007825032230
         H            1.734040311345    -0.016692551939    -0.552856170679     1.007825032230
         H           -0.806959688655     3.354307448061     0.214143829321     1.007825032230
         H            0.632040311345     3.059307448061     1.196143829321     1.007825032230
         H            0.813040311345     3.646307448061    -0.464856170679     1.007825032230
         H           -1.349407688655     1.589907448061    -1.844909170679     1.007825032230

  Running in c1 symmetry.

  Rotational constants: A =      0.11843  B =      0.02949  C =      0.02750 [cm^-1]
  Rotational constants: A =   3550.47418  B =    884.22231  C =    824.45258 [MHz]
  Nuclear repulsion =  320.105072765023579

  Charge       = 0
  Multiplicity = 1
  Electrons    = 60
  Nalpha       = 30
  Nbeta        = 30

  ==> Algorithm <==

  SCF Algorithm Type is PK.
  DIIS enabled.
  MOM disabled.
  Fractional occupation disabled.
  Guess Type is SAD.
  Energy threshold   = 1.00e-06
  Density threshold  = 1.00e-10
  Integral threshold = 0.00e+00

  ==> Primary Basis <==

  Basis Set: CC-PVDZ
    Blend: CC-PVDZ
    Number of shells: 90
    Number of basis function: 178
    Number of Cartesian functions: 185
    Spherical Harmonics?: true
    Max angular momentum: 2

  ==> Pre-Iterations <==

   -------------------------------------------------------
    Irrep   Nso     Nmo     Nalpha   Nbeta   Ndocc  Nsocc
   -------------------------------------------------------
     A        178     178       0       0       0       0
   -------------------------------------------------------
    Total     178     178      30      30      30       0
   -------------------------------------------------------

  ==> Integral Setup <==

  Using integral reordering PK algorithm.
  Sizing the integral batches needed.
  Building batch lookup table.
   Calculation information:
      Number of atoms:                  23
      Number of AO shells:              90
      Number of primitives:            234
      Number of atomic orbitals:       185
      Number of basis functions:       178

      Integral cutoff                 1.00e-12
      Number of threads:                 1

	Batch   1 pq = [       0,    9405] index = [             0,44231715] size =     44231715
	Batch   2 pq = [    9405,   13301] index = [      44231715,88464951] size =     44233236
	Batch   3 pq = [   13301,   15931] index = [      88464951,126906346] size =     38441395
  Task number: 12
  Buffer size: 11059200
  Buffer per thread: 2
  We computed 7763745 shell quartets total.
  Whereas there are 8386560 unique shell quartets.

  ==> DiskJK: Disk-Based J/K Matrices <==

    J tasked:                  Yes
    K tasked:                  Yes
    wK tasked:                  No
    Memory [MiB]:              375
    Schwarz Cutoff:          1E-12

    OpenMP threads:              1

  Minimum eigenvalue in the overlap matrix is 4.4958901424E-03.
  Using Symmetric Orthogonalization.

  SCF Guess: Superposition of Atomic Densities via on-the-fly atomic UHF.

  ==> Iterations <==

                        Total Energy        Delta E     RMS |[F,P]|

   @RHF iter SAD:  -310.12940376001052   -3.10129e+02   0.00000e+00
   @RHF iter   1:  -311.14907001476655   -1.01967e+00   3.52980e-03 DIIS
   @RHF iter   2:  -311.35537875396312   -2.06309e-01   1.63132e-03 DIIS
   @RHF iter   3:  -311.39468575440156   -3.93070e-02   3.33965e-04 DIIS
   @RHF iter   4:  -311.39759090266483   -2.90515e-03   1.02118e-04 DIIS
   @RHF iter   5:  -311.39777563769661   -1.84735e-04   1.96052e-05 DIIS
   @RHF iter   6:  -311.39778480165654   -9.16396e-06   5.26565e-06 DIIS
   @RHF iter   7:  -311.39778548312108   -6.81465e-07   1.42962e-06 DIIS
   @RHF iter   8:  -311.39778554308350   -5.99624e-08   4.16091e-07 DIIS
   @RHF iter   9:  -311.39778554992301   -6.83951e-09   9.97358e-08 DIIS
   @RHF iter  10:  -311.39778555035576   -4.32749e-10   2.65825e-08 DIIS
   @RHF iter  11:  -311.39778555038697   -3.12070e-11   7.23297e-09 DIIS
   @RHF iter  12:  -311.39778555038708   -1.13687e-13   2.32802e-09 DIIS
   @RHF iter  13:  -311.39778555038816   -1.08002e-12   6.77836e-10 DIIS
   @RHF iter  14:  -311.39778555038902   -8.52651e-13   1.88150e-10 DIIS
   @RHF iter  15:  -311.39778555038924   -2.27374e-13   6.59747e-11 DIIS
  Energy and wave function converged.

  ==> Post-Iterations <==

    Orbital Energies [Eh]
    ---------------------

    Doubly Occupied:

       1A    -20.554126     2A    -11.279517     3A    -11.229109
       4A    -11.212685     5A    -11.205995     6A    -11.205718
       7A    -11.200940     8A     -1.354757     9A     -1.072928
      10A     -1.006810    11A     -0.919771    12A     -0.913507
      13A     -0.848403    14A     -0.756279    15A     -0.680349
      16A     -0.629883    17A     -0.618686    18A     -0.605344
      19A     -0.583203    20A     -0.574311    21A     -0.539475
      22A     -0.530057    23A     -0.527909    24A     -0.520358
      25A     -0.497845    26A     -0.478843    27A     -0.450016
      28A     -0.448788    29A     -0.446161    30A     -0.435298

    Virtual:

      31A      0.166616    32A      0.191794    33A      0.209251
      34A      0.221483    35A      0.234056    36A      0.242876
      37A      0.245653    38A      0.259373    39A      0.265267
      40A      0.273188    41A      0.282545    42A      0.296244
      43A      0.315303    44A      0.318057    45A      0.336925
      46A      0.350998    47A      0.375344    48A      0.385270
      49A      0.412144    50A      0.418582    51A      0.427937
      52A      0.572339    53A      0.581670    54A      0.603909
      55A      0.616195    56A      0.623201    57A      0.635116
      58A      0.643261    59A      0.669851    60A      0.745326
      61A      0.749871    62A      0.774533    63A      0.788018
      64A      0.800548    65A      0.823252    66A      0.838853
      67A      0.845276    68A      0.868713    69A      0.880194
      70A      0.884954    71A      0.893514    72A      0.898188
      73A      0.902305    74A      0.905554    75A      0.911235
      76A      0.917571    77A      0.925523    78A      0.929763
      79A      0.938212    80A      0.964608    81A      0.967267
      82A      0.971846    83A      0.990445    84A      1.016923
      85A      1.020068    86A      1.131996    87A      1.139257
      88A      1.143914    89A      1.160188    90A      1.184895
      91A      1.208754    92A      1.301868    93A      1.326032
      94A      1.373701    95A      1.388331    96A      1.414427
      97A      1.443777    98A      1.475142    99A      1.488404
     100A      1.550990   101A      1.577406   102A      1.589019
     103A      1.649312   104A      1.670900   105A      1.674968
     106A      1.689560   107A      1.692570   108A      1.701971
     109A      1.717381   110A      1.724103   111A      1.742633
     112A      1.753262   113A      1.843922   114A      1.853744
     115A      1.855547   116A      1.867970   117A      1.882429
     118A      1.900392   119A      1.934559   120A      1.936126
     121A      1.949875   122A      1.952017   123A      1.955520
     124A      1.969696   125A      1.973317   126A      1.978112
     127A      1.996562   128A      1.999293   129A      2.021040
     130A      2.037370   131A      2.054526   132A      2.066345
     133A      2.090442   134A      2.106081   135A      2.123869
     136A      2.137330   137A      2.155100   138A      2.164256
     139A      2.251683   140A      2.262652   141A      2.276004
     142A      2.285289   143A      2.315208   144A      2.323623
     145A      2.340174   146A      2.357676   147A      2.369811
     148A      2.396158   149A      2.408651   150A      2.493728
     151A      2.511678   152A      2.528850   153A      2.539062
     154A      2.587741   155A      2.611819   156A      2.648423
     157A      2.720711   158A      2.740255   159A      2.751201
     160A      2.768700   161A      2.777818   162A      2.797042
     163A      2.800663   164A      2.805681   165A      2.817994
     166A      2.853330   167A      2.856813   168A      2.869808
     169A      2.879335   170A      2.918217   171A      3.025006
     172A      3.045287   173A      3.144625   174A      3.306689
     175A      3.398478   176A      3.470153   177A      3.639732
     178A      4.107361

    Final Occupation by Irrep:
              A
    DOCC [    30 ]

  @RHF Final Energy:  -311.39778555038924

   => Energetics <=

    Nuclear Repulsion Energy =            320.1050727650235785
    One-Electron Energy =               -1056.3515744223043384
    Two-Electron Energy =                 424.8487161068915157
    Total Energy =                       -311.3977855503892442

Computation Completed

Properties will be evaluated at   0.000000,   0.000000,   0.000000 [a0]

Properties computed using the SCF density matrix

  Nuclear Dipole Moment: [e a0]
     X:     2.7021      Y:     2.2019      Z:     0.8932

  Electronic Dipole Moment: [e a0]
     X:    -2.8457      Y:    -2.9141      Z:    -0.4968

  Dipole Moment: [e a0]
     X:    -0.1436      Y:    -0.7121      Z:     0.3964     Total:     0.8276

  Dipole Moment: [D]
     X:    -0.3649      Y:    -1.8100      Z:     1.0076     Total:     2.1035

*** tstop() called on ds3 at Mon Apr 27 17:45:12 2020
Module time:
	user time   =      47.30 seconds =       0.79 minutes
	system time =      19.53 seconds =       0.33 minutes
	total time  =         64 seconds =       1.07 minutes
Total time:
	user time   =      47.30 seconds =       0.79 minutes
	system time =      19.53 seconds =       0.33 minutes
	total time  =         64 seconds =       1.07 minutes
                                     G D M A

                                 by Anthony Stone

                           version 2.2.06, 22 June 2011

               Distributed Multipoles from Gaussian wavefunctions

Starting at 17:45:12 on 27 Apr 2020

Using SCF density matrix from file ./SSI/SSI-034SER-105LEU-1-dimer.test.4534.fchk

                         Distributed Multipole Analysis

Standard DMA

Positions and radii in angstrom
Multipole moments in atomic units, ea_0^k for rank k

C          x = -0.814960  y = -1.854693  z =  1.076144 angstrom
           Maximum rank =  0   Radius =  0.650 angstrom
                   Q00  =   0.143167

C          x =  0.120040  y = -3.054693  z =  1.356144 angstrom
           Maximum rank =  0   Radius =  0.650 angstrom
                   Q00  =  -0.271668

O          x = -1.125960  y = -1.733693  z = -0.300856 angstrom
           Maximum rank =  0   Radius =  0.650 angstrom
                   Q00  =  -0.621308

H          x = -1.740960  y = -1.993693  z =  1.635144 angstrom
           Maximum rank =  0   Radius =  0.325 angstrom
                   Q00  =   0.036933

H          x = -0.336960  y = -0.942693  z =  1.432144 angstrom
           Maximum rank =  0   Radius =  0.325 angstrom
                   Q00  =   0.076575

H          x = -0.311960  y = -3.954693  z =  0.917144 angstrom
           Maximum rank =  0   Radius =  0.325 angstrom
                   Q00  =   0.076707

H          x = -1.486960  y = -2.577693  z = -0.616856 angstrom
           Maximum rank =  0   Radius =  0.325 angstrom
                   Q00  =   0.386241

H          x =  0.272985  y = -3.188143  z =  2.437254 angstrom
           Maximum rank =  0   Radius =  0.325 angstrom
                   Q00  =   0.088973

H          x =  1.107025  y = -2.872083  z =  0.906131 angstrom
           Maximum rank =  0   Radius =  0.325 angstrom
                   Q00  =   0.091715

C          x =  0.281040  y =  1.554307  z = -0.303856 angstrom
           Maximum rank =  0   Radius =  0.650 angstrom
                   Q00  =   0.011671

C          x = -0.266960  y =  1.432307  z = -1.728856 angstrom
           Maximum rank =  0   Radius =  0.650 angstrom
                   Q00  =  -0.233939

C          x =  1.716040  y =  1.034307  z = -0.265856 angstrom
           Maximum rank =  0   Radius =  0.650 angstrom
                   Q00  =  -0.249540

C          x =  0.223040  y =  3.001307  z =  0.187144 angstrom
           Maximum rank =  0   Radius =  0.650 angstrom
                   Q00  =  -0.244758

H          x = -0.317960  y =  0.946307  z =  0.366144 angstrom
           Maximum rank =  0   Radius =  0.325 angstrom
                   Q00  =   0.013844

H          x = -0.037960  y =  0.431307  z = -2.097856 angstrom
           Maximum rank =  0   Radius =  0.325 angstrom
                   Q00  =   0.086420

H          x =  0.262040  y =  2.147307  z = -2.360856 angstrom
           Maximum rank =  0   Radius =  0.325 angstrom
                   Q00  =   0.062384

H          x =  2.340040  y =  1.603307  z = -0.954856 angstrom
           Maximum rank =  0   Radius =  0.325 angstrom
                   Q00  =   0.075480

H          x =  2.116040  y =  1.125307  z =  0.743144 angstrom
           Maximum rank =  0   Radius =  0.325 angstrom
                   Q00  =   0.073103

H          x =  1.734040  y = -0.016693  z = -0.552856 angstrom
           Maximum rank =  0   Radius =  0.325 angstrom
                   Q00  =   0.083791

H          x = -0.806960  y =  3.354307  z =  0.214144 angstrom
           Maximum rank =  0   Radius =  0.325 angstrom
                   Q00  =   0.080688

H          x =  0.632040  y =  3.059307  z =  1.196144 angstrom
           Maximum rank =  0   Radius =  0.325 angstrom
                   Q00  =   0.074069

H          x =  0.813040  y =  3.646307  z = -0.464856 angstrom
           Maximum rank =  0   Radius =  0.325 angstrom
                   Q00  =   0.074286

H          x = -1.349408  y =  1.589907  z = -1.844909 angstrom
           Maximum rank =  0   Radius =  0.325 angstrom
                   Q00  =   0.085166

Total multipoles referred to origin at
           x =   0.000000,  y =    0.000000,  z =    0.000000 angstrom
                   Q00  =  -0.000000

Finished at 17:45:12 on 27 Apr 2020

  DMA results are available in the Python driver through the
	  variable('DMA DISTRIBUTED MULTIPOLES')
  and
	  variable('DMA TOTAL MULTIPOLES')
  commands.

    Psi4 stopped on: Monday, 27 April 2020 05:45PM
    Psi4 wall time for execution: 0:01:04.48

*** Psi4 exiting successfully. Buy a developer a beer!
