                               Psi4 1.3.2 release

  ==> Input File <==

--------------------------------------------------------------------------
import numpy as np
set {scf_type pk
basis cc-pvdz
d_convergence 10
gdma_switch   0
gdma_limit    0
gdma_origin   [ 0.0,  0.0,  0.0 ]
}
molecule test {
    units Angstrom
    0 1
    --
    0 1
    C               -0.966643911841596    -2.701946952487030    -0.875249044041930
    C               -1.754643911841596    -3.950946952487030    -0.477249044041931
    H               -1.206643911841596    -1.889946952487030    -0.189249044041931
    H                0.103356088158404    -2.903946952487029    -0.827249044041931
    H               -1.229643911841596    -2.406946952487030    -1.891249044041930
    H               -1.452643911841597    -4.751946952487029    -1.156249044041931
    H               -2.837024911841596    -3.788136952487029    -0.586542044041931
    H               -1.496704911841596    -4.257156952487030     0.547300955958069
    C                1.798356088158404     1.915053047512970     1.891750955958069
    C                0.238356088158404     0.359053047512970    -0.990249044041931
    C                0.883356088158404     1.473053047512970     0.789750955958069
    C               -0.393643911841596     1.839053047512970     0.507750955958069
    N                1.262356088158404     0.546053047512970    -0.162249044041931
    N               -0.768643911841596     1.132053047512970    -0.609249044041931
    H                0.222356088158404    -0.316946952487030    -1.838249044041930
    H               -1.698643911841596     1.127053047512970    -1.026249044041931
    H               -0.993643911841596     2.545053047512971     1.060750955958069
    H                2.078356088158404     1.032053047512971     2.461750955958069
    H                1.259356088158404     2.589053047512971     2.559750955958069
    H                2.711921088158404     2.406419047512970     1.525748375958069

}
e, wfn = energy('scf', return_wfn=True)
gdma(wfn)
dmavals = variable('DMA DISTRIBUTED MULTIPOLES')
charges = np.array(dmavals)
print(charges)
np.save('SSI-045ALA-054HIE-1-dimer.npy', np.array(charges))--------------------------------------------------------------------------

*** tstart() called on ds3
*** at Tue Apr 28 04:46:35 2020

   => Loading Basis Set <=

    Name: CC-PVDZ
    Role: ORBITAL
    Keyword: BASIS
    atoms 1-2, 9-12  entry C          line   138 file /theoryfs2/ds/metcalf/miniconda2/envs/tf2gpu/share/psi4/basis/cc-pvdz.gbs
    atoms 3-8, 15-20 entry H          line    22 file /theoryfs2/ds/metcalf/miniconda2/envs/tf2gpu/share/psi4/basis/cc-pvdz.gbs
    atoms 13-14      entry N          line   168 file /theoryfs2/ds/metcalf/miniconda2/envs/tf2gpu/share/psi4/basis/cc-pvdz.gbs

         ---------------------------------------------------------
                                   SCF
               by Justin Turney, Rob Parrish, Andy Simmonett
                          and Daniel G. A. Smith
                              RHF Reference
                        1 Threads,    500 MiB Core
         ---------------------------------------------------------

  ==> Geometry <==

    Molecular point group: c1
    Full point group: C1

    Geometry (in Angstrom), charge = 0, multiplicity = 1:

       Center              X                  Y                   Z               Mass
    ------------   -----------------  -----------------  -----------------  -----------------
         C           -0.966643911842    -2.701946952487    -0.875249044042    12.000000000000
         C           -1.754643911842    -3.950946952487    -0.477249044042    12.000000000000
         H           -1.206643911842    -1.889946952487    -0.189249044042     1.007825032230
         H            0.103356088158    -2.903946952487    -0.827249044042     1.007825032230
         H           -1.229643911842    -2.406946952487    -1.891249044042     1.007825032230
         H           -1.452643911842    -4.751946952487    -1.156249044042     1.007825032230
         H           -2.837024911842    -3.788136952487    -0.586542044042     1.007825032230
         H           -1.496704911842    -4.257156952487     0.547300955958     1.007825032230
         C            1.798356088158     1.915053047513     1.891750955958    12.000000000000
         C            0.238356088158     0.359053047513    -0.990249044042    12.000000000000
         C            0.883356088158     1.473053047513     0.789750955958    12.000000000000
         C           -0.393643911842     1.839053047513     0.507750955958    12.000000000000
         N            1.262356088158     0.546053047513    -0.162249044042    14.003074004430
         N           -0.768643911842     1.132053047513    -0.609249044042    14.003074004430
         H            0.222356088158    -0.316946952487    -1.838249044042     1.007825032230
         H           -1.698643911842     1.127053047513    -1.026249044042     1.007825032230
         H           -0.993643911842     2.545053047513     1.060750955958     1.007825032230
         H            2.078356088158     1.032053047513     2.461750955958     1.007825032230
         H            1.259356088158     2.589053047513     2.559750955958     1.007825032230
         H            2.711921088158     2.406419047513     1.525748375958     1.007825032230

  Running in c1 symmetry.

  Rotational constants: A =      0.12439  B =      0.02457  C =      0.02307 [cm^-1]
  Rotational constants: A =   3729.16976  B =    736.47814  C =    691.54074 [MHz]
  Nuclear repulsion =  351.855388493906617

  Charge       = 0
  Multiplicity = 1
  Electrons    = 62
  Nalpha       = 31
  Nbeta        = 31

  ==> Algorithm <==

  SCF Algorithm Type is PK.
  DIIS enabled.
  MOM disabled.
  Fractional occupation disabled.
  Guess Type is SAD.
  Energy threshold   = 1.00e-06
  Density threshold  = 1.00e-10
  Integral threshold = 0.00e+00

  ==> Primary Basis <==

  Basis Set: CC-PVDZ
    Blend: CC-PVDZ
    Number of shells: 84
    Number of basis function: 172
    Number of Cartesian functions: 180
    Spherical Harmonics?: true
    Max angular momentum: 2

  ==> Pre-Iterations <==

   -------------------------------------------------------
    Irrep   Nso     Nmo     Nalpha   Nbeta   Ndocc  Nsocc
   -------------------------------------------------------
     A        172     172       0       0       0       0
   -------------------------------------------------------
    Total     172     172      31      31      31       0
   -------------------------------------------------------

  ==> Integral Setup <==

  Using integral reordering PK algorithm.
  Sizing the integral batches needed.
  Building batch lookup table.
   Calculation information:
      Number of atoms:                  20
      Number of AO shells:              84
      Number of primitives:            236
      Number of atomic orbitals:       180
      Number of basis functions:       172

      Integral cutoff                 1.00e-12
      Number of threads:                 1

	Batch   1 pq = [       0,    9405] index = [             0,44231715] size =     44231715
	Batch   2 pq = [    9405,   13301] index = [      44231715,88464951] size =     44233236
	Batch   3 pq = [   13301,   14878] index = [      88464951,110684881] size =     22219930
  Task number: 11
  Buffer size: 11059200
  Buffer per thread: 2
  We computed 5057162 shell quartets total.
  Whereas there are 6374235 unique shell quartets.

  ==> DiskJK: Disk-Based J/K Matrices <==

    J tasked:                  Yes
    K tasked:                  Yes
    wK tasked:                  No
    Memory [MiB]:              375
    Schwarz Cutoff:          1E-12

    OpenMP threads:              1

  Minimum eigenvalue in the overlap matrix is 1.1996813476E-03.
  Using Symmetric Orthogonalization.

  SCF Guess: Superposition of Atomic Densities via on-the-fly atomic UHF.

  ==> Iterations <==

                        Total Energy        Delta E     RMS |[F,P]|

   @RHF iter SAD:  -342.22528416068582   -3.42225e+02   0.00000e+00
   @RHF iter   1:  -342.88670107676154   -6.61417e-01   3.36718e-03 DIIS
   @RHF iter   2:  -343.05955407819545   -1.72853e-01   1.70714e-03 DIIS
   @RHF iter   3:  -343.10037692535656   -4.08228e-02   4.38573e-04 DIIS
   @RHF iter   4:  -343.10391078405382   -3.53386e-03   1.81080e-04 DIIS
   @RHF iter   5:  -343.10447205785221   -5.61274e-04   2.68290e-05 DIIS
   @RHF iter   6:  -343.10449331827749   -2.12604e-05   1.16552e-05 DIIS
   @RHF iter   7:  -343.10449682124954   -3.50297e-06   3.99272e-06 DIIS
   @RHF iter   8:  -343.10449756493557   -7.43686e-07   1.61363e-06 DIIS
   @RHF iter   9:  -343.10449772086946   -1.55934e-07   5.63716e-07 DIIS
   @RHF iter  10:  -343.10449773544076   -1.45713e-08   1.76225e-07 DIIS
   @RHF iter  11:  -343.10449773713060   -1.68984e-09   7.68409e-08 DIIS
   @RHF iter  12:  -343.10449773736639   -2.35787e-10   3.13918e-08 DIIS
   @RHF iter  13:  -343.10449773741038   -4.39968e-11   8.79957e-09 DIIS
   @RHF iter  14:  -343.10449773741431   -3.92220e-12   3.30818e-09 DIIS
   @RHF iter  15:  -343.10449773741499   -6.82121e-13   1.33216e-09 DIIS
   @RHF iter  16:  -343.10449773741624   -1.25056e-12   4.12894e-10 DIIS
   @RHF iter  17:  -343.10449773741561    6.25278e-13   1.17264e-10 DIIS
   @RHF iter  18:  -343.10449773741442    1.19371e-12   4.48071e-11 DIIS
  Energy and wave function converged.

  ==> Post-Iterations <==

    Orbital Energies [Eh]
    ---------------------

    Doubly Occupied:

       1A    -15.619156     2A    -15.525370     3A    -11.290359
       4A    -11.247878     5A    -11.239751     6A    -11.222571
       7A    -11.220866     8A    -11.218751     9A     -1.340445
      10A     -1.150652    11A     -1.029523    12A     -1.020151
      13A     -0.939815    14A     -0.838996    15A     -0.814550
      16A     -0.760207    17A     -0.738864    18A     -0.608499
      19A     -0.604598    20A     -0.601220    21A     -0.597313
      22A     -0.594682    23A     -0.551473    24A     -0.538198
      25A     -0.520938    26A     -0.500285    27A     -0.490719
      28A     -0.484255    29A     -0.408874    30A     -0.375546
      31A     -0.307739

    Virtual:

      32A      0.165834    33A      0.192063    34A      0.192544
      35A      0.201357    36A      0.215846    37A      0.228209
      38A      0.237437    39A      0.250238    40A      0.262992
      41A      0.275008    42A      0.280512    43A      0.283659
      44A      0.299947    45A      0.305250    46A      0.380391
      47A      0.399829    48A      0.403723    49A      0.416554
      50A      0.480303    51A      0.498029    52A      0.592750
      53A      0.598336    54A      0.606198    55A      0.613022
      56A      0.619223    57A      0.635988    58A      0.658770
      59A      0.671733    60A      0.704856    61A      0.707644
      62A      0.750138    63A      0.760596    64A      0.788318
      65A      0.810663    66A      0.818402    67A      0.833635
      68A      0.843371    69A      0.881401    70A      0.885529
      71A      0.891644    72A      0.893799    73A      0.899151
      74A      0.906630    75A      0.909965    76A      0.914177
      77A      0.928337    78A      0.955423    79A      0.973429
      80A      0.981079    81A      1.003408    82A      1.028374
      83A      1.073410    84A      1.096638    85A      1.107303
      86A      1.117790    87A      1.124776    88A      1.146743
      89A      1.168265    90A      1.182954    91A      1.250386
      92A      1.253389    93A      1.266558    94A      1.323479
      95A      1.332519    96A      1.348842    97A      1.435618
      98A      1.467825    99A      1.475653   100A      1.485108
     101A      1.495396   102A      1.526817   103A      1.574814
     104A      1.588633   105A      1.598105   106A      1.642654
     107A      1.675867   108A      1.688731   109A      1.689358
     110A      1.713932   111A      1.774749   112A      1.804673
     113A      1.814383   114A      1.852839   115A      1.870468
     116A      1.877568   117A      1.904947   118A      1.905873
     119A      1.930153   120A      1.934086   121A      1.938473
     122A      1.946541   123A      1.950369   124A      1.961171
     125A      1.978301   126A      1.980333   127A      1.994019
     128A      2.044972   129A      2.059013   130A      2.079694
     131A      2.121206   132A      2.123177   133A      2.131557
     134A      2.139143   135A      2.170558   136A      2.212613
     137A      2.229334   138A      2.296724   139A      2.305456
     140A      2.351247   141A      2.354106   142A      2.404496
     143A      2.443522   144A      2.450683   145A      2.464777
     146A      2.468962   147A      2.487038   148A      2.544921
     149A      2.553086   150A      2.575298   151A      2.616919
     152A      2.692558   153A      2.740586   154A      2.750723
     155A      2.761275   156A      2.781671   157A      2.786740
     158A      2.799181   159A      2.821317   160A      2.836424
     161A      2.853333   162A      2.872543   163A      2.898448
     164A      2.928701   165A      2.937169   166A      2.960489
     167A      2.973832   168A      3.068098   169A      3.167818
     170A      3.247519   171A      3.477686   172A      3.799362

    Final Occupation by Irrep:
              A
    DOCC [    31 ]

  @RHF Final Energy:  -343.10449773741442

   => Energetics <=

    Nuclear Repulsion Energy =            351.8553884939066165
    One-Electron Energy =               -1161.1152817117681479
    Two-Electron Energy =                 466.1553954804471118
    Total Energy =                       -343.1044977374144196

Computation Completed

Properties will be evaluated at   0.000000,   0.000000,   0.000000 [a0]

Properties computed using the SCF density matrix

  Nuclear Dipole Moment: [e a0]
     X:    -4.2572      Y:    -9.9565      Z:     0.6025

  Electronic Dipole Moment: [e a0]
     X:     2.9879      Y:    10.2172      Z:    -0.8705

  Dipole Moment: [e a0]
     X:    -1.2692      Y:     0.2607      Z:    -0.2680     Total:     1.3232

  Dipole Moment: [D]
     X:    -3.2261      Y:     0.6627      Z:    -0.6812     Total:     3.3631

*** tstop() called on ds3 at Tue Apr 28 04:49:09 2020
Module time:
	user time   =      36.19 seconds =       0.60 minutes
	system time =      15.70 seconds =       0.26 minutes
	total time  =        154 seconds =       2.57 minutes
Total time:
	user time   =      36.19 seconds =       0.60 minutes
	system time =      15.70 seconds =       0.26 minutes
	total time  =        154 seconds =       2.57 minutes
                                     G D M A

                                 by Anthony Stone

                           version 2.2.06, 22 June 2011

               Distributed Multipoles from Gaussian wavefunctions

Starting at 4:49:9 on 28 Apr 2020

Using SCF density matrix from file ./SSI/SSI-045ALA-054HIE-1-dimer.test.27814.fchk

                         Distributed Multipole Analysis

Standard DMA

Positions and radii in angstrom
Multipole moments in atomic units, ea_0^k for rank k

C          x = -0.966644  y = -2.701947  z = -0.875249 angstrom
           Maximum rank =  0   Radius =  0.650 angstrom
                   Q00  =  -0.251616

C          x = -1.754644  y = -3.950947  z = -0.477249 angstrom
           Maximum rank =  0   Radius =  0.650 angstrom
                   Q00  =  -0.227881

H          x = -1.206644  y = -1.889947  z = -0.189249 angstrom
           Maximum rank =  0   Radius =  0.325 angstrom
                   Q00  =   0.080720

H          x =  0.103356  y = -2.903947  z = -0.827249 angstrom
           Maximum rank =  0   Radius =  0.325 angstrom
                   Q00  =   0.091339

H          x = -1.229644  y = -2.406947  z = -1.891249 angstrom
           Maximum rank =  0   Radius =  0.325 angstrom
                   Q00  =   0.065805

H          x = -1.452644  y = -4.751947  z = -1.156249 angstrom
           Maximum rank =  0   Radius =  0.325 angstrom
                   Q00  =   0.076447

H          x = -2.837025  y = -3.788137  z = -0.586542 angstrom
           Maximum rank =  0   Radius =  0.325 angstrom
                   Q00  =   0.077780

H          x = -1.496705  y = -4.257157  z =  0.547301 angstrom
           Maximum rank =  0   Radius =  0.325 angstrom
                   Q00  =   0.084562

C          x =  1.798356  y =  1.915053  z =  1.891751 angstrom
           Maximum rank =  0   Radius =  0.650 angstrom
                   Q00  =  -0.191209

C          x =  0.238356  y =  0.359053  z = -0.990249 angstrom
           Maximum rank =  0   Radius =  0.650 angstrom
                   Q00  =   0.472705

C          x =  0.883356  y =  1.473053  z =  0.789751 angstrom
           Maximum rank =  0   Radius =  0.650 angstrom
                   Q00  =   0.223059

C          x = -0.393644  y =  1.839053  z =  0.507751 angstrom
           Maximum rank =  0   Radius =  0.650 angstrom
                   Q00  =  -0.003690

N          x =  1.262356  y =  0.546053  z = -0.162249 angstrom
           Maximum rank =  0   Radius =  0.650 angstrom
                   Q00  =  -0.774169

N          x = -0.768644  y =  1.132053  z = -0.609249 angstrom
           Maximum rank =  0   Radius =  0.650 angstrom
                   Q00  =  -0.481289

H          x =  0.222356  y = -0.316947  z = -1.838249 angstrom
           Maximum rank =  0   Radius =  0.325 angstrom
                   Q00  =   0.125559

H          x = -1.698644  y =  1.127053  z = -1.026249 angstrom
           Maximum rank =  0   Radius =  0.325 angstrom
                   Q00  =   0.219724

H          x = -0.993644  y =  2.545053  z =  1.060751 angstrom
           Maximum rank =  0   Radius =  0.325 angstrom
                   Q00  =   0.101667

H          x =  2.078356  y =  1.032053  z =  2.461751 angstrom
           Maximum rank =  0   Radius =  0.325 angstrom
                   Q00  =   0.110184

H          x =  1.259356  y =  2.589053  z =  2.559751 angstrom
           Maximum rank =  0   Radius =  0.325 angstrom
                   Q00  =   0.089715

H          x =  2.711921  y =  2.406419  z =  1.525748 angstrom
           Maximum rank =  0   Radius =  0.325 angstrom
                   Q00  =   0.110590

Total multipoles referred to origin at
           x =   0.000000,  y =    0.000000,  z =    0.000000 angstrom
                   Q00  =  -0.000000

Finished at 4:49:9 on 28 Apr 2020

  DMA results are available in the Python driver through the
	  variable('DMA DISTRIBUTED MULTIPOLES')
  and
	  variable('DMA TOTAL MULTIPOLES')
  commands.

    Psi4 stopped on: Tuesday, 28 April 2020 04:49AM
    Psi4 wall time for execution: 0:02:34.76

*** Psi4 exiting successfully. Buy a developer a beer!
