                               Psi4 1.3.2 release

  ==> Input File <==

--------------------------------------------------------------------------
import numpy as np
set {scf_type pk
basis cc-pvdz
d_convergence 10
gdma_switch   0
gdma_limit    0
gdma_origin   [ 0.0,  0.0,  0.0 ]
}
molecule test {
    units Angstrom
    0 1
    --
    0 1
    C               -2.269177320503784     1.606088279850278     0.030526709696296
    C               -0.978177320503783     1.439088279850278     0.792526709696296
    O                0.092822679496217     1.741088279850278     0.221526709696296
    O               -1.031177320503783     0.973088279850278     1.940526709696296
    H               -3.046177320503784     0.964088279850278     0.442526709696296
    H               -2.081177320503783     1.267088279850278    -0.979473290303704
    H               -2.639556320503783     2.641858279850279     0.032679709696296
    C                1.041822679496217    -1.345911720149722    -0.816473290303704
    C                0.545822679496217    -2.255911720149722    -1.935473290303704
    N                2.290822679496217    -1.884911720149722    -0.200473290303704
    H                1.238822679496217    -0.347911720149722    -1.219473290303704
    H                0.254822679496217    -1.251911720149722    -0.059473290303704
    H                0.280822679496217    -3.227911720149722    -1.516473290303704
    H                1.348822679496217    -2.411911720149722    -2.660473290303704
    H                3.041822679496216    -1.949911720149722    -0.877473290303704
    H                2.611822679496217    -1.281911720149722     0.548526709696296
    H                2.144822679496217    -2.807911720149721     0.192526709696296
    H               -0.330097320503783    -1.852081720149722    -2.464330290303704

}
e, wfn = energy('scf', return_wfn=True)
gdma(wfn)
dmavals = variable('DMA DISTRIBUTED MULTIPOLES')
charges = np.array(dmavals)
print(charges)
np.save('SSI-012ASP-024LYS-2-dimer.npy', np.array(charges))--------------------------------------------------------------------------

*** tstart() called on ds3
*** at Mon Apr 27 02:08:28 2020

   => Loading Basis Set <=

    Name: CC-PVDZ
    Role: ORBITAL
    Keyword: BASIS
    atoms 1-2, 8-9   entry C          line   138 file /theoryfs2/ds/metcalf/miniconda2/envs/tf2gpu/share/psi4/basis/cc-pvdz.gbs
    atoms 3-4        entry O          line   198 file /theoryfs2/ds/metcalf/miniconda2/envs/tf2gpu/share/psi4/basis/cc-pvdz.gbs
    atoms 5-7, 11-18 entry H          line    22 file /theoryfs2/ds/metcalf/miniconda2/envs/tf2gpu/share/psi4/basis/cc-pvdz.gbs
    atoms 10         entry N          line   168 file /theoryfs2/ds/metcalf/miniconda2/envs/tf2gpu/share/psi4/basis/cc-pvdz.gbs

         ---------------------------------------------------------
                                   SCF
               by Justin Turney, Rob Parrish, Andy Simmonett
                          and Daniel G. A. Smith
                              RHF Reference
                        1 Threads,    500 MiB Core
         ---------------------------------------------------------

  ==> Geometry <==

    Molecular point group: c1
    Full point group: C1

    Geometry (in Angstrom), charge = 0, multiplicity = 1:

       Center              X                  Y                   Z               Mass
    ------------   -----------------  -----------------  -----------------  -----------------
         C           -2.269177320504     1.606088279850     0.030526709696    12.000000000000
         C           -0.978177320504     1.439088279850     0.792526709696    12.000000000000
         O            0.092822679496     1.741088279850     0.221526709696    15.994914619570
         O           -1.031177320504     0.973088279850     1.940526709696    15.994914619570
         H           -3.046177320504     0.964088279850     0.442526709696     1.007825032230
         H           -2.081177320504     1.267088279850    -0.979473290304     1.007825032230
         H           -2.639556320504     2.641858279850     0.032679709696     1.007825032230
         C            1.041822679496    -1.345911720150    -0.816473290304    12.000000000000
         C            0.545822679496    -2.255911720150    -1.935473290304    12.000000000000
         N            2.290822679496    -1.884911720150    -0.200473290304    14.003074004430
         H            1.238822679496    -0.347911720150    -1.219473290304     1.007825032230
         H            0.254822679496    -1.251911720150    -0.059473290304     1.007825032230
         H            0.280822679496    -3.227911720150    -1.516473290304     1.007825032230
         H            1.348822679496    -2.411911720150    -2.660473290304     1.007825032230
         H            3.041822679496    -1.949911720150    -0.877473290304     1.007825032230
         H            2.611822679496    -1.281911720150     0.548526709696     1.007825032230
         H            2.144822679496    -2.807911720150     0.192526709696     1.007825032230
         H           -0.330097320504    -1.852081720150    -2.464330290304     1.007825032230

  Running in c1 symmetry.

  Rotational constants: A =      0.12182  B =      0.02984  C =      0.02701 [cm^-1]
  Rotational constants: A =   3651.95308  B =    894.72141  C =    809.70491 [MHz]
  Nuclear repulsion =  299.871730887246486

  Charge       = 0
  Multiplicity = 1
  Electrons    = 58
  Nalpha       = 29
  Nbeta        = 29

  ==> Algorithm <==

  SCF Algorithm Type is PK.
  DIIS enabled.
  MOM disabled.
  Fractional occupation disabled.
  Guess Type is SAD.
  Energy threshold   = 1.00e-06
  Density threshold  = 1.00e-10
  Integral threshold = 0.00e+00

  ==> Primary Basis <==

  Basis Set: CC-PVDZ
    Blend: CC-PVDZ
    Number of shells: 75
    Number of basis function: 153
    Number of Cartesian functions: 160
    Spherical Harmonics?: true
    Max angular momentum: 2

  ==> Pre-Iterations <==

   -------------------------------------------------------
    Irrep   Nso     Nmo     Nalpha   Nbeta   Ndocc  Nsocc
   -------------------------------------------------------
     A        153     153       0       0       0       0
   -------------------------------------------------------
    Total     153     153      29      29      29       0
   -------------------------------------------------------

  ==> Integral Setup <==

  Using integral reordering PK algorithm.
  Sizing the integral batches needed.
  Building batch lookup table.
   Calculation information:
      Number of atoms:                  18
      Number of AO shells:              75
      Number of primitives:            209
      Number of atomic orbitals:       160
      Number of basis functions:       153

      Integral cutoff                 1.00e-12
      Number of threads:                 1

	Batch   1 pq = [       0,    9405] index = [             0,44231715] size =     44231715
	Batch   2 pq = [    9405,   11781] index = [      44231715,69401871] size =     25170156
  Task number: 7
  Buffer size: 11059200
  Buffer per thread: 2
  We computed 3297963 shell quartets total.
  Whereas there are 4062675 unique shell quartets.

  ==> DiskJK: Disk-Based J/K Matrices <==

    J tasked:                  Yes
    K tasked:                  Yes
    wK tasked:                  No
    Memory [MiB]:              375
    Schwarz Cutoff:          1E-12

    OpenMP threads:              1

  Minimum eigenvalue in the overlap matrix is 5.0368471077E-03.
  Using Symmetric Orthogonalization.

  SCF Guess: Superposition of Atomic Densities via on-the-fly atomic UHF.

  ==> Iterations <==

                        Total Energy        Delta E     RMS |[F,P]|

   @RHF iter SAD:  -360.70965875748971   -3.60710e+02   0.00000e+00
   @RHF iter   1:  -361.71667068778265   -1.00701e+00   4.77875e-03 DIIS
   @RHF iter   2:  -361.93308346591340   -2.16413e-01   2.55382e-03 DIIS
   @RHF iter   3:  -361.98812088523539   -5.50374e-02   4.44072e-04 DIIS
   @RHF iter   4:  -361.99124217646352   -3.12129e-03   1.50153e-04 DIIS
   @RHF iter   5:  -361.99159913397114   -3.56958e-04   2.61140e-05 DIIS
   @RHF iter   6:  -361.99161526294608   -1.61290e-05   6.66361e-06 DIIS
   @RHF iter   7:  -361.99161622834941   -9.65403e-07   2.72282e-06 DIIS
   @RHF iter   8:  -361.99161638082171   -1.52472e-07   1.29420e-06 DIIS
   @RHF iter   9:  -361.99161641437524   -3.35535e-08   3.64039e-07 DIIS
   @RHF iter  10:  -361.99161641945847   -5.08322e-09   1.65859e-07 DIIS
   @RHF iter  11:  -361.99161642034528   -8.86814e-10   4.54414e-08 DIIS
   @RHF iter  12:  -361.99161642041605   -7.07701e-11   1.20683e-08 DIIS
   @RHF iter  13:  -361.99161642042122   -5.17275e-12   3.89221e-09 DIIS
   @RHF iter  14:  -361.99161642042134   -1.13687e-13   1.00376e-09 DIIS
   @RHF iter  15:  -361.99161642042219   -8.52651e-13   3.15771e-10 DIIS
   @RHF iter  16:  -361.99161642042083    1.36424e-12   1.17537e-10 DIIS
   @RHF iter  17:  -361.99161642042128   -4.54747e-13   4.64067e-11 DIIS
  Energy and wave function converged.

  ==> Post-Iterations <==

    Orbital Energies [Eh]
    ---------------------

    Doubly Occupied:

       1A    -20.368398     2A    -20.365672     3A    -15.790326
       4A    -11.349271     5A    -11.297282     6A    -11.219210
       7A    -11.142690     8A     -1.408244     9A     -1.261767
      10A     -1.147012    11A     -1.100787    12A     -0.938747
      13A     -0.896549    14A     -0.866944    15A     -0.852198
      16A     -0.736735    17A     -0.675431    18A     -0.614421
      19A     -0.604777    20A     -0.581049    21A     -0.567188
      22A     -0.516012    23A     -0.510394    24A     -0.506912
      25A     -0.444092    26A     -0.411664    27A     -0.291389
      28A     -0.279601    29A     -0.271150

    Virtual:

      30A      0.058439    31A      0.121029    32A      0.136262
      33A      0.153685    34A      0.210299    35A      0.215509
      36A      0.221897    37A      0.241541    38A      0.266658
      39A      0.286916    40A      0.308393    41A      0.324283
      42A      0.337765    43A      0.392085    44A      0.481342
      45A      0.488518    46A      0.512143    47A      0.520410
      48A      0.541335    49A      0.565451    50A      0.614996
      51A      0.657905    52A      0.709082    53A      0.731948
      54A      0.736995    55A      0.746728    56A      0.765566
      57A      0.775180    58A      0.816754    59A      0.820011
      60A      0.824985    61A      0.838471    62A      0.866469
      63A      0.884410    64A      0.894152    65A      0.905164
      66A      0.924070    67A      0.934481    68A      0.941157
      69A      0.951612    70A      0.963383    71A      0.996215
      72A      1.037498    73A      1.048481    74A      1.063083
      75A      1.134802    76A      1.150553    77A      1.227030
      78A      1.254774    79A      1.290858    80A      1.304496
      81A      1.383500    82A      1.397770    83A      1.437734
      84A      1.468194    85A      1.473864    86A      1.484198
      87A      1.506436    88A      1.547917    89A      1.575206
      90A      1.582826    91A      1.616611    92A      1.622542
      93A      1.656424    94A      1.711233    95A      1.741627
      96A      1.750502    97A      1.803667    98A      1.815346
      99A      1.848122   100A      1.862670   101A      1.883936
     102A      1.891276   103A      1.906280   104A      1.921630
     105A      1.962364   106A      1.967241   107A      1.993060
     108A      2.000892   109A      2.020103   110A      2.033345
     111A      2.062797   112A      2.069597   113A      2.109884
     114A      2.117984   115A      2.151389   116A      2.186579
     117A      2.243431   118A      2.262165   119A      2.266524
     120A      2.293889   121A      2.326513   122A      2.345152
     123A      2.414710   124A      2.426657   125A      2.481797
     126A      2.490663   127A      2.549434   128A      2.595299
     129A      2.631730   130A      2.642024   131A      2.662410
     132A      2.676592   133A      2.694967   134A      2.741191
     135A      2.780308   136A      2.829656   137A      2.861669
     138A      2.882122   139A      2.899005   140A      2.905702
     141A      2.984003   142A      3.132546   143A      3.166268
     144A      3.192476   145A      3.208969   146A      3.241386
     147A      3.258459   148A      3.534124   149A      3.692059
     150A      3.733950   151A      3.966736   152A      3.980195
     153A      4.094723

    Final Occupation by Irrep:
              A
    DOCC [    29 ]

  @RHF Final Energy:  -361.99161642042128

   => Energetics <=

    Nuclear Repulsion Energy =            299.8717308872464855
    One-Electron Energy =               -1089.6948750968931563
    Two-Electron Energy =                 427.8315277892253903
    Total Energy =                       -361.9916164204212805

Computation Completed

Properties will be evaluated at   0.000000,   0.000000,   0.000000 [a0]

Properties computed using the SCF density matrix

  Nuclear Dipole Moment: [e a0]
     X:     2.6370      Y:    -9.5984      Z:    -8.0146

  Electronic Dipole Moment: [e a0]
     X:     1.4238      Y:     4.1448      Z:     5.4178

  Dipole Moment: [e a0]
     X:     4.0607      Y:    -5.4536      Z:    -2.5968     Total:     7.2784

  Dipole Moment: [D]
     X:    10.3214      Y:   -13.8618      Z:    -6.6004     Total:    18.4999

*** tstop() called on ds3 at Mon Apr 27 02:08:58 2020
Module time:
	user time   =      19.95 seconds =       0.33 minutes
	system time =      10.09 seconds =       0.17 minutes
	total time  =         30 seconds =       0.50 minutes
Total time:
	user time   =      19.95 seconds =       0.33 minutes
	system time =      10.09 seconds =       0.17 minutes
	total time  =         30 seconds =       0.50 minutes
                                     G D M A

                                 by Anthony Stone

                           version 2.2.06, 22 June 2011

               Distributed Multipoles from Gaussian wavefunctions

Starting at 2:8:58 on 27 Apr 2020

Using SCF density matrix from file ./SSI/SSI-012ASP-024LYS-2-dimer.test.15651.fchk

                         Distributed Multipole Analysis

Standard DMA

Positions and radii in angstrom
Multipole moments in atomic units, ea_0^k for rank k

C          x = -2.269177  y =  1.606088  z =  0.030527 angstrom
           Maximum rank =  0   Radius =  0.650 angstrom
                   Q00  =  -0.277911

C          x = -0.978177  y =  1.439088  z =  0.792527 angstrom
           Maximum rank =  0   Radius =  0.650 angstrom
                   Q00  =   0.968878

O          x =  0.092823  y =  1.741088  z =  0.221527 angstrom
           Maximum rank =  0   Radius =  0.650 angstrom
                   Q00  =  -0.962518

O          x = -1.031177  y =  0.973088  z =  1.940527 angstrom
           Maximum rank =  0   Radius =  0.650 angstrom
                   Q00  =  -0.920269

H          x = -3.046177  y =  0.964088  z =  0.442527 angstrom
           Maximum rank =  0   Radius =  0.325 angstrom
                   Q00  =   0.061945

H          x = -2.081177  y =  1.267088  z = -0.979473 angstrom
           Maximum rank =  0   Radius =  0.325 angstrom
                   Q00  =   0.042836

H          x = -2.639556  y =  2.641858  z =  0.032680 angstrom
           Maximum rank =  0   Radius =  0.325 angstrom
                   Q00  =   0.101878

C          x =  1.041823  y = -1.345912  z = -0.816473 angstrom
           Maximum rank =  0   Radius =  0.650 angstrom
                   Q00  =   0.012470

C          x =  0.545823  y = -2.255912  z = -1.935473 angstrom
           Maximum rank =  0   Radius =  0.650 angstrom
                   Q00  =  -0.240658

N          x =  2.290823  y = -1.884912  z = -0.200473 angstrom
           Maximum rank =  0   Radius =  0.650 angstrom
                   Q00  =  -0.126398

H          x =  1.238823  y = -0.347912  z = -1.219473 angstrom
           Maximum rank =  0   Radius =  0.325 angstrom
                   Q00  =   0.134355

H          x =  0.254823  y = -1.251912  z = -0.059473 angstrom
           Maximum rank =  0   Radius =  0.325 angstrom
                   Q00  =   0.141264

H          x =  0.280823  y = -3.227912  z = -1.516473 angstrom
           Maximum rank =  0   Radius =  0.325 angstrom
                   Q00  =   0.086141

H          x =  1.348823  y = -2.411912  z = -2.660473 angstrom
           Maximum rank =  0   Radius =  0.325 angstrom
                   Q00  =   0.076760

H          x =  3.041823  y = -1.949912  z = -0.877473 angstrom
           Maximum rank =  0   Radius =  0.325 angstrom
                   Q00  =   0.237998

H          x =  2.611823  y = -1.281912  z =  0.548527 angstrom
           Maximum rank =  0   Radius =  0.325 angstrom
                   Q00  =   0.268576

H          x =  2.144823  y = -2.807912  z =  0.192527 angstrom
           Maximum rank =  0   Radius =  0.325 angstrom
                   Q00  =   0.239565

H          x = -0.330097  y = -1.852082  z = -2.464330 angstrom
           Maximum rank =  0   Radius =  0.325 angstrom
                   Q00  =   0.155088

Total multipoles referred to origin at
           x =   0.000000,  y =    0.000000,  z =    0.000000 angstrom
                   Q00  =  -0.000000

Finished at 2:8:58 on 27 Apr 2020

  DMA results are available in the Python driver through the
	  variable('DMA DISTRIBUTED MULTIPOLES')
  and
	  variable('DMA TOTAL MULTIPOLES')
  commands.

    Psi4 stopped on: Monday, 27 April 2020 02:08AM
    Psi4 wall time for execution: 0:00:29.94

*** Psi4 exiting successfully. Buy a developer a beer!
