                               Psi4 1.3.2 release

  ==> Input File <==

--------------------------------------------------------------------------
import numpy as np
set {scf_type pk
basis cc-pvdz
d_convergence 10
gdma_switch   0
gdma_limit    0
gdma_origin   [ 0.0,  0.0,  0.0 ]
}
molecule test {
    units Angstrom
    0 1
    --
    0 1
    C               -0.957811198174706    -0.553150435496993     1.970940596756844
    C               -0.414811198174706    -0.069150435496993     3.333940596756843
    C               -0.467811198174706    -1.962150435496993     1.639940596756843
    C               -2.485811198174706    -0.454150435496993     1.928940596756844
    H               -0.565811198174706     0.125849564503007     1.216940596756843
    H               -0.871811198174706     0.889849564503007     3.577940596756843
    H               -0.904811198174706    -2.699150435496993     2.313940596756844
    H               -0.755811198174706    -2.205150435496993     0.620940596756844
    H                0.619188801825294    -2.019150435496993     1.701940596756844
    H               -2.929811198174706    -1.320150435496993     2.418940596756843
    H               -2.802811198174706     0.438849564503007     2.468940596756843
    H                0.680018801825294     0.033559564503007     3.305789596756843
    H               -0.653281198174706    -0.775090435496993     4.143120596756844
    H               -2.888361198174707    -0.374080435496993     0.908379596756844
    C                2.479188801825294    -1.144150435496993    -1.150059403243156
    C                1.347188801825294     1.008849564503007    -0.542059403243156
    C                1.354188801825294    -0.168150435496993    -1.279059403243156
    C                0.353188801825294     1.948849564503007    -0.705059403243157
    C               -0.654811198174706     1.722849564503007    -1.614059403243157
    C                0.346188801825294    -0.368150435496993    -2.207059403243156
    C               -0.658811198174706     0.578849564503007    -2.367059403243156
    H                2.130188801825293     1.190849564503007     0.173940596756844
    H                0.357188801825294     2.853849564503007    -0.110059403243157
    H                2.138188801825294    -2.142150435496993    -1.423059403243156
    H                2.787188801825294    -1.182150435496993    -0.104059403243157
    H               -1.443811198174706     2.453849564503007    -1.738059403243156
    H                0.349188801825294    -1.256150435496993    -2.820059403243156
    H               -1.445811198174706     0.410849564503007    -3.091059403243157
    H                3.342426801825294    -0.858080435496993    -1.768917403243156

}
e, wfn = energy('scf', return_wfn=True)
gdma(wfn)
dmavals = variable('DMA DISTRIBUTED MULTIPOLES')
charges = np.array(dmavals)
print(charges)
np.save('SSI-126ILE-139PHE-2-dimer.npy', np.array(charges))--------------------------------------------------------------------------

*** tstart() called on ds3
*** at Tue Apr 28 09:54:01 2020

   => Loading Basis Set <=

    Name: CC-PVDZ
    Role: ORBITAL
    Keyword: BASIS
    atoms 1-4, 15-21  entry C          line   138 file /theoryfs2/ds/metcalf/miniconda2/envs/tf2gpu/share/psi4/basis/cc-pvdz.gbs
    atoms 5-14, 22-29 entry H          line    22 file /theoryfs2/ds/metcalf/miniconda2/envs/tf2gpu/share/psi4/basis/cc-pvdz.gbs

         ---------------------------------------------------------
                                   SCF
               by Justin Turney, Rob Parrish, Andy Simmonett
                          and Daniel G. A. Smith
                              RHF Reference
                        1 Threads,    500 MiB Core
         ---------------------------------------------------------

  ==> Geometry <==

    Molecular point group: c1
    Full point group: C1

    Geometry (in Angstrom), charge = 0, multiplicity = 1:

       Center              X                  Y                   Z               Mass
    ------------   -----------------  -----------------  -----------------  -----------------
         C           -0.957811198175    -0.553150435497     1.970940596757    12.000000000000
         C           -0.414811198175    -0.069150435497     3.333940596757    12.000000000000
         C           -0.467811198175    -1.962150435497     1.639940596757    12.000000000000
         C           -2.485811198175    -0.454150435497     1.928940596757    12.000000000000
         H           -0.565811198175     0.125849564503     1.216940596757     1.007825032230
         H           -0.871811198175     0.889849564503     3.577940596757     1.007825032230
         H           -0.904811198175    -2.699150435497     2.313940596757     1.007825032230
         H           -0.755811198175    -2.205150435497     0.620940596757     1.007825032230
         H            0.619188801825    -2.019150435497     1.701940596757     1.007825032230
         H           -2.929811198175    -1.320150435497     2.418940596757     1.007825032230
         H           -2.802811198175     0.438849564503     2.468940596757     1.007825032230
         H            0.680018801825     0.033559564503     3.305789596757     1.007825032230
         H           -0.653281198175    -0.775090435497     4.143120596757     1.007825032230
         H           -2.888361198175    -0.374080435497     0.908379596757     1.007825032230
         C            2.479188801825    -1.144150435497    -1.150059403243    12.000000000000
         C            1.347188801825     1.008849564503    -0.542059403243    12.000000000000
         C            1.354188801825    -0.168150435497    -1.279059403243    12.000000000000
         C            0.353188801825     1.948849564503    -0.705059403243    12.000000000000
         C           -0.654811198175     1.722849564503    -1.614059403243    12.000000000000
         C            0.346188801825    -0.368150435497    -2.207059403243    12.000000000000
         C           -0.658811198175     0.578849564503    -2.367059403243    12.000000000000
         H            2.130188801825     1.190849564503     0.173940596757     1.007825032230
         H            0.357188801825     2.853849564503    -0.110059403243     1.007825032230
         H            2.138188801825    -2.142150435497    -1.423059403243     1.007825032230
         H            2.787188801825    -1.182150435497    -0.104059403243     1.007825032230
         H           -1.443811198175     2.453849564503    -1.738059403243     1.007825032230
         H            0.349188801825    -1.256150435497    -2.820059403243     1.007825032230
         H           -1.445811198175     0.410849564503    -3.091059403243     1.007825032230
         H            3.342426801825    -0.858080435497    -1.768917403243     1.007825032230

  Running in c1 symmetry.

  Rotational constants: A =      0.04421  B =      0.02122  C =      0.01853 [cm^-1]
  Rotational constants: A =   1325.33693  B =    636.03863  C =    555.46998 [MHz]
  Nuclear repulsion =  597.418185562419467

  Charge       = 0
  Multiplicity = 1
  Electrons    = 84
  Nalpha       = 42
  Nbeta        = 42

  ==> Algorithm <==

  SCF Algorithm Type is PK.
  DIIS enabled.
  MOM disabled.
  Fractional occupation disabled.
  Guess Type is SAD.
  Energy threshold   = 1.00e-06
  Density threshold  = 1.00e-10
  Integral threshold = 0.00e+00

  ==> Primary Basis <==

  Basis Set: CC-PVDZ
    Blend: CC-PVDZ
    Number of shells: 120
    Number of basis function: 244
    Number of Cartesian functions: 255
    Spherical Harmonics?: true
    Max angular momentum: 2

  ==> Pre-Iterations <==

   -------------------------------------------------------
    Irrep   Nso     Nmo     Nalpha   Nbeta   Ndocc  Nsocc
   -------------------------------------------------------
     A        244     244       0       0       0       0
   -------------------------------------------------------
    Total     244     244      42      42      42       0
   -------------------------------------------------------

  ==> Integral Setup <==

  Using integral reordering PK algorithm.
  Sizing the integral batches needed.
  Building batch lookup table.
   Calculation information:
      Number of atoms:                  29
      Number of AO shells:             120
      Number of primitives:            332
      Number of atomic orbitals:       255
      Number of basis functions:       244

      Integral cutoff                 1.00e-12
      Number of threads:                 1

	Batch   1 pq = [       0,    9405] index = [             0,44231715] size =     44231715
	Batch   2 pq = [    9405,   13301] index = [      44231715,88464951] size =     44233236
	Batch   3 pq = [   13301,   16290] index = [      88464951,132690195] size =     44225244
	Batch   4 pq = [   16290,   18810] index = [     132690195,176917455] size =     44227260
	Batch   5 pq = [   18810,   21030] index = [     176917455,221140965] size =     44223510
	Batch   6 pq = [   21030,   23037] index = [     221140965,265363203] size =     44222238
	Batch   7 pq = [   23037,   24883] index = [     265363203,309594286] size =     44231083
	Batch   8 pq = [   24883,   26601] index = [     309594286,353819901] size =     44225615
	Batch   9 pq = [   26601,   28214] index = [     353819901,398029005] size =     44209104
	Batch  10 pq = [   28214,   29740] index = [     398029005,442248670] size =     44219665
	Batch  11 pq = [   29740,   29890] index = [     442248670,446720995] size =      4472325
  Task number: 41
  Buffer size: 11059200
  Buffer per thread: 2
  We computed 29336710 shell quartets total.
  Whereas there are 26357430 unique shell quartets.
    11.30 percent of shell quartets recomputed by reordering.

  ==> DiskJK: Disk-Based J/K Matrices <==

    J tasked:                  Yes
    K tasked:                  Yes
    wK tasked:                  No
    Memory [MiB]:              375
    Schwarz Cutoff:          1E-12

    OpenMP threads:              1

  Minimum eigenvalue in the overlap matrix is 2.8725726570E-04.
  Using Symmetric Orthogonalization.

  SCF Guess: Superposition of Atomic Densities via on-the-fly atomic UHF.

  ==> Iterations <==

                        Total Energy        Delta E     RMS |[F,P]|

   @RHF iter SAD:  -426.04668263310054   -4.26047e+02   0.00000e+00
   @RHF iter   1:  -426.76772534737796   -7.21043e-01   2.67732e-03 DIIS
   @RHF iter   2:  -427.01965876005676   -2.51933e-01   1.14930e-03 DIIS
   @RHF iter   3:  -427.06197425013863   -4.23155e-02   2.47470e-04 DIIS
   @RHF iter   4:  -427.06529566797053   -3.32142e-03   5.90966e-05 DIIS
   @RHF iter   5:  -427.06542967184652   -1.34004e-04   1.40802e-05 DIIS
   @RHF iter   6:  -427.06543780408185   -8.13224e-06   4.60200e-06 DIIS
   @RHF iter   7:  -427.06543868488097   -8.80799e-07   1.24154e-06 DIIS
   @RHF iter   8:  -427.06543876622641   -8.13454e-08   3.04595e-07 DIIS
   @RHF iter   9:  -427.06543877783764   -1.16112e-08   1.38156e-07 DIIS
   @RHF iter  10:  -427.06543878047495   -2.63731e-09   6.23547e-08 DIIS
   @RHF iter  11:  -427.06543878123500   -7.60053e-10   2.55301e-08 DIIS
   @RHF iter  12:  -427.06543878134494   -1.09935e-10   9.87737e-09 DIIS
   @RHF iter  13:  -427.06543878135795   -1.30171e-11   3.68330e-09 DIIS
   @RHF iter  14:  -427.06543878135727    6.82121e-13   1.05775e-09 DIIS
   @RHF iter  15:  -427.06543878135494    2.33058e-12   4.04863e-10 DIIS
   @RHF iter  16:  -427.06543878135324    1.70530e-12   1.69422e-10 DIIS
   @RHF iter  17:  -427.06543878135443   -1.19371e-12   7.99805e-11 DIIS
  Energy and wave function converged.

  ==> Post-Iterations <==

    Orbital Energies [Eh]
    ---------------------

    Doubly Occupied:

       1A    -11.238827     2A    -11.233853     3A    -11.233180
       4A    -11.229940     5A    -11.229579     6A    -11.228341
       7A    -11.228156     8A    -11.213756     9A    -11.210637
      10A    -11.206983    11A    -11.206272    12A     -1.161751
      13A     -1.070121    14A     -1.051296    15A     -1.016274
      16A     -0.934870    17A     -0.920981    18A     -0.916868
      19A     -0.829044    20A     -0.797828    21A     -0.756845
      22A     -0.695579    23A     -0.637178    24A     -0.629238
      25A     -0.620694    26A     -0.584873    27A     -0.584322
      28A     -0.580261    29A     -0.576965    30A     -0.565852
      31A     -0.537087    32A     -0.528196    33A     -0.525877
      34A     -0.500882    35A     -0.494985    36A     -0.486222
      37A     -0.483030    38A     -0.454884    39A     -0.447662
      40A     -0.444072    41A     -0.334658    42A     -0.326443

    Virtual:

      43A      0.134467    44A      0.141109    45A      0.165243
      46A      0.193759    47A      0.200449    48A      0.207626
      49A      0.235105    50A      0.237840    51A      0.242109
      52A      0.250060    53A      0.255377    54A      0.261004
      55A      0.262878    56A      0.280898    57A      0.287612
      58A      0.297282    59A      0.305387    60A      0.311484
      61A      0.318163    62A      0.340722    63A      0.370770
      64A      0.374468    65A      0.378790    66A      0.417141
      67A      0.426603    68A      0.456262    69A      0.465374
      70A      0.489715    71A      0.491642    72A      0.560113
      73A      0.566465    74A      0.567724    75A      0.588624
      76A      0.604437    77A      0.622626    78A      0.626919
      79A      0.669633    80A      0.684070    81A      0.690972
      82A      0.699467    83A      0.732712    84A      0.737975
      85A      0.742822    86A      0.749999    87A      0.753938
      88A      0.765238    89A      0.772900    90A      0.779609
      91A      0.782443    92A      0.801552    93A      0.825954
      94A      0.835326    95A      0.852496    96A      0.855778
      97A      0.862221    98A      0.867152    99A      0.875155
     100A      0.890318   101A      0.893224   102A      0.897304
     103A      0.900869   104A      0.903173   105A      0.905488
     106A      0.916467   107A      0.919429   108A      0.927216
     109A      0.934366   110A      0.942361   111A      0.948134
     112A      0.956588   113A      0.967768   114A      0.975817
     115A      0.995216   116A      1.001439   117A      1.008527
     118A      1.022011   119A      1.044855   120A      1.094960
     121A      1.126783   122A      1.132873   123A      1.139338
     124A      1.145526   125A      1.154379   126A      1.161283
     127A      1.194733   128A      1.236884   129A      1.246800
     130A      1.256387   131A      1.259262   132A      1.299086
     133A      1.314918   134A      1.317555   135A      1.334327
     136A      1.352292   137A      1.386536   138A      1.413291
     139A      1.423527   140A      1.438220   141A      1.508163
     142A      1.519368   143A      1.528171   144A      1.546272
     145A      1.576087   146A      1.603556   147A      1.646421
     148A      1.657424   149A      1.680485   150A      1.694087
     151A      1.698935   152A      1.701972   153A      1.706054
     154A      1.724968   155A      1.747022   156A      1.749657
     157A      1.761644   158A      1.768147   159A      1.810615
     160A      1.825726   161A      1.850688   162A      1.861652
     163A      1.867837   164A      1.869771   165A      1.892254
     166A      1.909450   167A      1.920295   168A      1.921195
     169A      1.936879   170A      1.937479   171A      1.946473
     172A      1.951166   173A      1.956290   174A      1.961659
     175A      1.966931   176A      1.976807   177A      1.985259
     178A      1.990023   179A      1.994512   180A      2.010766
     181A      2.018454   182A      2.029816   183A      2.048307
     184A      2.063035   185A      2.076502   186A      2.082386
     187A      2.105002   188A      2.114466   189A      2.126056
     190A      2.129480   191A      2.146815   192A      2.150098
     193A      2.162372   194A      2.182000   195A      2.191934
     196A      2.195152   197A      2.245070   198A      2.268030
     199A      2.269234   200A      2.284855   201A      2.290531
     202A      2.301623   203A      2.306644   204A      2.315622
     205A      2.326325   206A      2.331868   207A      2.343093
     208A      2.372961   209A      2.404335   210A      2.471855
     211A      2.486908   212A      2.494043   213A      2.505464
     214A      2.547030   215A      2.565406   216A      2.609021
     217A      2.635103   218A      2.656979   219A      2.695638
     220A      2.735322   221A      2.747337   222A      2.765202
     223A      2.770670   224A      2.775921   225A      2.788873
     226A      2.796116   227A      2.810697   228A      2.815289
     229A      2.822438   230A      2.834151   231A      2.850399
     232A      2.856565   233A      2.871770   234A      2.890032
     235A      3.008217   236A      3.016402   237A      3.027896
     238A      3.040515   239A      3.058008   240A      3.159233
     241A      3.168903   242A      3.223105   243A      3.322461
     244A      4.008484

    Final Occupation by Irrep:
              A
    DOCC [    42 ]

  @RHF Final Energy:  -427.06543878135443

   => Energetics <=

    Nuclear Repulsion Energy =            597.4181855624194668
    One-Electron Energy =               -1761.0585241120884348
    Two-Electron Energy =                 736.5748997683145944
    Total Energy =                       -427.0654387813543735

Computation Completed

Properties will be evaluated at   0.000000,   0.000000,   0.000000 [a0]

Properties computed using the SCF density matrix

  Nuclear Dipole Moment: [e a0]
     X:    -2.6798      Y:    -6.0315      Z:    11.0580

  Electronic Dipole Moment: [e a0]
     X:     2.8300      Y:     6.0409      Z:   -11.2192

  Dipole Moment: [e a0]
     X:     0.1502      Y:     0.0094      Z:    -0.1612     Total:     0.2206

  Dipole Moment: [D]
     X:     0.3818      Y:     0.0239      Z:    -0.4098     Total:     0.5606

*** tstop() called on ds3 at Tue Apr 28 09:59:27 2020
Module time:
	user time   =     203.84 seconds =       3.40 minutes
	system time =      67.60 seconds =       1.13 minutes
	total time  =        326 seconds =       5.43 minutes
Total time:
	user time   =     203.84 seconds =       3.40 minutes
	system time =      67.60 seconds =       1.13 minutes
	total time  =        326 seconds =       5.43 minutes
                                     G D M A

                                 by Anthony Stone

                           version 2.2.06, 22 June 2011

               Distributed Multipoles from Gaussian wavefunctions

Starting at 9:59:27 on 28 Apr 2020

Using SCF density matrix from file ./SSI/SSI-126ILE-139PHE-2-dimer.test.29650.fchk

                         Distributed Multipole Analysis

Standard DMA

Positions and radii in angstrom
Multipole moments in atomic units, ea_0^k for rank k

C          x = -0.957811  y = -0.553150  z =  1.970941 angstrom
           Maximum rank =  0   Radius =  0.650 angstrom
                   Q00  =   0.008303

C          x = -0.414811  y = -0.069150  z =  3.333941 angstrom
           Maximum rank =  0   Radius =  0.650 angstrom
                   Q00  =  -0.253862

C          x = -0.467811  y = -1.962150  z =  1.639941 angstrom
           Maximum rank =  0   Radius =  0.650 angstrom
                   Q00  =  -0.242308

C          x = -2.485811  y = -0.454150  z =  1.928941 angstrom
           Maximum rank =  0   Radius =  0.650 angstrom
                   Q00  =  -0.245056

H          x = -0.565811  y =  0.125850  z =  1.216941 angstrom
           Maximum rank =  0   Radius =  0.325 angstrom
                   Q00  =   0.037388

H          x = -0.871811  y =  0.889850  z =  3.577941 angstrom
           Maximum rank =  0   Radius =  0.325 angstrom
                   Q00  =   0.078694

H          x = -0.904811  y = -2.699150  z =  2.313941 angstrom
           Maximum rank =  0   Radius =  0.325 angstrom
                   Q00  =   0.074126

H          x = -0.755811  y = -2.205150  z =  0.620941 angstrom
           Maximum rank =  0   Radius =  0.325 angstrom
                   Q00  =   0.082631

H          x =  0.619189  y = -2.019150  z =  1.701941 angstrom
           Maximum rank =  0   Radius =  0.325 angstrom
                   Q00  =   0.076670

H          x = -2.929811  y = -1.320150  z =  2.418941 angstrom
           Maximum rank =  0   Radius =  0.325 angstrom
                   Q00  =   0.072170

H          x = -2.802811  y =  0.438850  z =  2.468941 angstrom
           Maximum rank =  0   Radius =  0.325 angstrom
                   Q00  =   0.073842

H          x =  0.680019  y =  0.033560  z =  3.305790 angstrom
           Maximum rank =  0   Radius =  0.325 angstrom
                   Q00  =   0.076817

H          x = -0.653281  y = -0.775090  z =  4.143121 angstrom
           Maximum rank =  0   Radius =  0.325 angstrom
                   Q00  =   0.072681

H          x = -2.888361  y = -0.374080  z =  0.908380 angstrom
           Maximum rank =  0   Radius =  0.325 angstrom
                   Q00  =   0.084705

C          x =  2.479189  y = -1.144150  z = -1.150059 angstrom
           Maximum rank =  0   Radius =  0.650 angstrom
                   Q00  =  -0.198205

C          x =  1.347189  y =  1.008850  z = -0.542059 angstrom
           Maximum rank =  0   Radius =  0.650 angstrom
                   Q00  =   0.011452

C          x =  1.354189  y = -0.168150  z = -1.279059 angstrom
           Maximum rank =  0   Radius =  0.650 angstrom
                   Q00  =  -0.103717

C          x =  0.353189  y =  1.948850  z = -0.705059 angstrom
           Maximum rank =  0   Radius =  0.650 angstrom
                   Q00  =  -0.066247

C          x = -0.654811  y =  1.722850  z = -1.614059 angstrom
           Maximum rank =  0   Radius =  0.650 angstrom
                   Q00  =  -0.093286

C          x =  0.346189  y = -0.368150  z = -2.207059 angstrom
           Maximum rank =  0   Radius =  0.650 angstrom
                   Q00  =  -0.091345

C          x = -0.658811  y =  0.578850  z = -2.367059 angstrom
           Maximum rank =  0   Radius =  0.650 angstrom
                   Q00  =  -0.048743

H          x =  2.130189  y =  1.190850  z =  0.173941 angstrom
           Maximum rank =  0   Radius =  0.325 angstrom
                   Q00  =   0.052042

H          x =  0.357189  y =  2.853850  z = -0.110059 angstrom
           Maximum rank =  0   Radius =  0.325 angstrom
                   Q00  =   0.062556

H          x =  2.138189  y = -2.142150  z = -1.423059 angstrom
           Maximum rank =  0   Radius =  0.325 angstrom
                   Q00  =   0.100136

H          x =  2.787189  y = -1.182150  z = -0.104059 angstrom
           Maximum rank =  0   Radius =  0.325 angstrom
                   Q00  =   0.097494

H          x = -1.443811  y =  2.453850  z = -1.738059 angstrom
           Maximum rank =  0   Radius =  0.325 angstrom
                   Q00  =   0.057546

H          x =  0.349189  y = -1.256150  z = -2.820059 angstrom
           Maximum rank =  0   Radius =  0.325 angstrom
                   Q00  =   0.055812

H          x = -1.445811  y =  0.410850  z = -3.091059 angstrom
           Maximum rank =  0   Radius =  0.325 angstrom
                   Q00  =   0.062182

H          x =  3.342427  y = -0.858080  z = -1.768917 angstrom
           Maximum rank =  0   Radius =  0.325 angstrom
                   Q00  =   0.105519

Total multipoles referred to origin at
           x =   0.000000,  y =    0.000000,  z =    0.000000 angstrom
                   Q00  =  -0.000000

Finished at 9:59:27 on 28 Apr 2020

  DMA results are available in the Python driver through the
	  variable('DMA DISTRIBUTED MULTIPOLES')
  and
	  variable('DMA TOTAL MULTIPOLES')
  commands.

    Psi4 stopped on: Tuesday, 28 April 2020 09:59AM
    Psi4 wall time for execution: 0:05:26.81

*** Psi4 exiting successfully. Buy a developer a beer!
