                               Psi4 1.3.2 release

  ==> Input File <==

--------------------------------------------------------------------------
import numpy as np
set {scf_type pk
basis cc-pvdz
d_convergence 10
gdma_switch   0
gdma_limit    0
gdma_origin   [ 0.0,  0.0,  0.0 ]
}
molecule test {
    units Angstrom
    0 1
    --
    0 1
    C               -0.104103831595564     1.850511090801762    -0.032494115841162
    C                0.392896168404436     3.027511090801762     0.795505884158838
    H               -1.128103831595564     2.016511090801762    -0.362494115841162
    H                0.526896168404436     1.748511090801762    -0.914494115841162
    H               -0.047103831595564     0.926511090801762     0.538505884158838
    H                0.360896168404436     3.928511090801762     0.182505884158838
    H                1.441896168404436     2.848511090801762     1.038505884158838
    H               -0.155451831595564     3.189507090801762     1.735224884158838
    C                0.377896168404436    -1.935488909198238    -0.159494115841162
    C               -0.674103831595564    -2.946488909198238    -0.598494115841162
    H                1.377896168404436    -2.331488909198238    -0.337494115841162
    H                0.256896168404436    -1.014488909198238    -0.728494115841162
    H                0.260896168404436    -1.716488909198238     0.902505884158838
    H               -1.660103831595564    -2.533488909198239    -0.381494115841162
    H               -0.546743831595564    -3.891968909198238    -0.050919115841162
    H               -0.599576831595564    -3.123038909198238    -1.681673115841162

}
e, wfn = energy('scf', return_wfn=True)
gdma(wfn)
dmavals = variable('DMA DISTRIBUTED MULTIPOLES')
charges = np.array(dmavals)
print(charges)
np.save('SSI-025ILE-056LEU-1-dimer.npy', np.array(charges))--------------------------------------------------------------------------

*** tstart() called on ds3
*** at Sun Apr 26 21:24:51 2020

   => Loading Basis Set <=

    Name: CC-PVDZ
    Role: ORBITAL
    Keyword: BASIS
    atoms 1-2, 9-10  entry C          line   138 file /theoryfs2/ds/metcalf/miniconda2/envs/tf2gpu/share/psi4/basis/cc-pvdz.gbs
    atoms 3-8, 11-16 entry H          line    22 file /theoryfs2/ds/metcalf/miniconda2/envs/tf2gpu/share/psi4/basis/cc-pvdz.gbs

         ---------------------------------------------------------
                                   SCF
               by Justin Turney, Rob Parrish, Andy Simmonett
                          and Daniel G. A. Smith
                              RHF Reference
                        1 Threads,    500 MiB Core
         ---------------------------------------------------------

  ==> Geometry <==

    Molecular point group: c1
    Full point group: C1

    Geometry (in Angstrom), charge = 0, multiplicity = 1:

       Center              X                  Y                   Z               Mass
    ------------   -----------------  -----------------  -----------------  -----------------
         C           -0.104103831596     1.850511090802    -0.032494115841    12.000000000000
         C            0.392896168404     3.027511090802     0.795505884159    12.000000000000
         H           -1.128103831596     2.016511090802    -0.362494115841     1.007825032230
         H            0.526896168404     1.748511090802    -0.914494115841     1.007825032230
         H           -0.047103831596     0.926511090802     0.538505884159     1.007825032230
         H            0.360896168404     3.928511090802     0.182505884159     1.007825032230
         H            1.441896168404     2.848511090802     1.038505884159     1.007825032230
         H           -0.155451831596     3.189507090802     1.735224884159     1.007825032230
         C            0.377896168404    -1.935488909198    -0.159494115841    12.000000000000
         C           -0.674103831596    -2.946488909198    -0.598494115841    12.000000000000
         H            1.377896168404    -2.331488909198    -0.337494115841     1.007825032230
         H            0.256896168404    -1.014488909198    -0.728494115841     1.007825032230
         H            0.260896168404    -1.716488909198     0.902505884159     1.007825032230
         H           -1.660103831596    -2.533488909198    -0.381494115841     1.007825032230
         H           -0.546743831596    -3.891968909198    -0.050919115841     1.007825032230
         H           -0.599576831596    -3.123038909198    -1.681673115841     1.007825032230

  Running in c1 symmetry.

  Rotational constants: A =      0.67178  B =      0.04146  C =      0.04052 [cm^-1]
  Rotational constants: A =  20139.57377  B =   1242.93222  C =   1214.82639 [MHz]
  Nuclear repulsion =  120.237478152220504

  Charge       = 0
  Multiplicity = 1
  Electrons    = 36
  Nalpha       = 18
  Nbeta        = 18

  ==> Algorithm <==

  SCF Algorithm Type is PK.
  DIIS enabled.
  MOM disabled.
  Fractional occupation disabled.
  Guess Type is SAD.
  Energy threshold   = 1.00e-06
  Density threshold  = 1.00e-10
  Integral threshold = 0.00e+00

  ==> Primary Basis <==

  Basis Set: CC-PVDZ
    Blend: CC-PVDZ
    Number of shells: 60
    Number of basis function: 116
    Number of Cartesian functions: 120
    Spherical Harmonics?: true
    Max angular momentum: 2

  ==> Pre-Iterations <==

   -------------------------------------------------------
    Irrep   Nso     Nmo     Nalpha   Nbeta   Ndocc  Nsocc
   -------------------------------------------------------
     A        116     116       0       0       0       0
   -------------------------------------------------------
    Total     116     116      18      18      18       0
   -------------------------------------------------------

  ==> Integral Setup <==

  Using integral reordering PK algorithm.
  Sizing the integral batches needed.
  Building batch lookup table.
   Calculation information:
      Number of atoms:                  16
      Number of AO shells:              60
      Number of primitives:            148
      Number of atomic orbitals:       120
      Number of basis functions:       116

      Integral cutoff                 1.00e-12
      Number of threads:                 1

	Batch   1 pq = [       0,    6786] index = [             0,23028291] size =     23028291
  Task number: 3
  Buffer size: 11059200
  Buffer per thread: 2
  We computed 1362401 shell quartets total.
  Whereas there are 1675365 unique shell quartets.

  ==> DiskJK: Disk-Based J/K Matrices <==

    J tasked:                  Yes
    K tasked:                  Yes
    wK tasked:                  No
    Memory [MiB]:              375
    Schwarz Cutoff:          1E-12

    OpenMP threads:              1

  Minimum eigenvalue in the overlap matrix is 6.8971828986E-03.
  Using Symmetric Orthogonalization.

  SCF Guess: Superposition of Atomic Densities via on-the-fly atomic UHF.

  ==> Iterations <==

                        Total Energy        Delta E     RMS |[F,P]|

   @RHF iter SAD:  -157.37306341604750   -1.57373e+02   0.00000e+00
   @RHF iter   1:  -158.30651357708422   -9.33450e-01   4.23049e-03 DIIS
   @RHF iter   2:  -158.44064535967806   -1.34132e-01   1.80522e-03 DIIS
   @RHF iter   3:  -158.46426785279110   -2.36225e-02   3.50852e-04 DIIS
   @RHF iter   4:  -158.46611589081098   -1.84804e-03   3.91801e-05 DIIS
   @RHF iter   5:  -158.46614020326308   -2.43125e-05   6.64600e-06 DIIS
   @RHF iter   6:  -158.46614085401842   -6.50755e-07   1.17607e-06 DIIS
   @RHF iter   7:  -158.46614086760911   -1.35907e-08   3.23659e-07 DIIS
   @RHF iter   8:  -158.46614086859512   -9.86006e-10   4.62050e-08 DIIS
   @RHF iter   9:  -158.46614086863249   -3.73745e-11   9.97504e-09 DIIS
   @RHF iter  10:  -158.46614086863423   -1.73372e-12   2.33977e-09 DIIS
   @RHF iter  11:  -158.46614086863423    0.00000e+00   3.75473e-10 DIIS
   @RHF iter  12:  -158.46614086863485   -6.25278e-13   9.73235e-11 DIIS
  Energy and wave function converged.

  ==> Post-Iterations <==

    Orbital Energies [Eh]
    ---------------------

    Doubly Occupied:

       1A    -11.218594     2A    -11.217501     3A    -11.215607
       4A    -11.215569     5A     -1.020541     6A     -1.018457
       7A     -0.839698     8A     -0.833448     9A     -0.602774
      10A     -0.598945    11A     -0.596641    12A     -0.595131
      13A     -0.507336    14A     -0.499009    15A     -0.489054
      16A     -0.485641    17A     -0.483282    18A     -0.478021

    Virtual:

      19A      0.177641    20A      0.194134    21A      0.226645
      22A      0.231789    23A      0.246379    24A      0.257594
      25A      0.264494    26A      0.274774    27A      0.282660
      28A      0.286304    29A      0.306137    30A      0.329052
      31A      0.390157    32A      0.420040    33A      0.586639
      34A      0.595331    35A      0.598771    36A      0.604761
      37A      0.607744    38A      0.626102    39A      0.669768
      40A      0.681768    41A      0.702019    42A      0.776616
      43A      0.854153    44A      0.862595    45A      0.888242
      46A      0.892103    47A      0.893422    48A      0.896037
      49A      0.897733    50A      0.901718    51A      0.910726
      52A      0.916230    53A      0.920510    54A      0.950788
      55A      0.980749    56A      1.002889    57A      1.127056
      58A      1.130095    59A      1.136508    60A      1.169183
      61A      1.231671    62A      1.263652    63A      1.463028
      64A      1.472153    65A      1.479054    66A      1.491806
      67A      1.553985    68A      1.596855    69A      1.679195
      70A      1.685656    71A      1.693234    72A      1.699047
      73A      1.851991    74A      1.860587    75A      1.872441
      76A      1.878721    77A      1.889823    78A      1.915046
      79A      1.934613    80A      1.941595    81A      1.948665
      82A      1.950768    83A      1.954170    84A      1.958250
      85A      1.964673    86A      1.972965    87A      2.002641
      88A      2.011883    89A      2.084516    90A      2.101725
      91A      2.115373    92A      2.127597    93A      2.295756
      94A      2.307554    95A      2.311411    96A      2.328348
      97A      2.445291    98A      2.461469    99A      2.473347
     100A      2.483633   101A      2.554166   102A      2.562619
     103A      2.575339   104A      2.581716   105A      2.760226
     106A      2.764104   107A      2.785767   108A      2.794575
     109A      2.846533   110A      2.853540   111A      2.858484
     112A      2.877556   113A      2.941012   114A      2.951135
     115A      2.957593   116A      3.000279

    Final Occupation by Irrep:
              A
    DOCC [    18 ]

  @RHF Final Energy:  -158.46614086863485

   => Energetics <=

    Nuclear Repulsion Energy =            120.2374781522205041
    One-Electron Energy =                -449.5767378345783527
    Two-Electron Energy =                 170.8731188137230106
    Total Energy =                       -158.4661408686348523

Computation Completed

Properties will be evaluated at   0.000000,   0.000000,   0.000000 [a0]

Properties computed using the SCF density matrix

  Nuclear Dipole Moment: [e a0]
     X:     0.0828      Y:     0.0442      Z:    -0.0561

  Electronic Dipole Moment: [e a0]
     X:    -0.0718      Y:    -0.0407      Z:     0.0465

  Dipole Moment: [e a0]
     X:     0.0110      Y:     0.0035      Z:    -0.0096     Total:     0.0150

  Dipole Moment: [D]
     X:     0.0280      Y:     0.0088      Z:    -0.0244     Total:     0.0382

*** tstop() called on ds3 at Sun Apr 26 21:25:06 2020
Module time:
	user time   =       7.44 seconds =       0.12 minutes
	system time =       2.65 seconds =       0.04 minutes
	total time  =         15 seconds =       0.25 minutes
Total time:
	user time   =       7.44 seconds =       0.12 minutes
	system time =       2.65 seconds =       0.04 minutes
	total time  =         15 seconds =       0.25 minutes
                                     G D M A

                                 by Anthony Stone

                           version 2.2.06, 22 June 2011

               Distributed Multipoles from Gaussian wavefunctions

Starting at 21:25:6 on 26 Apr 2020

Using SCF density matrix from file ./SSI/SSI-025ILE-056LEU-1-dimer.test.11381.fchk

                         Distributed Multipole Analysis

Standard DMA

Positions and radii in angstrom
Multipole moments in atomic units, ea_0^k for rank k

C          x = -0.104104  y =  1.850511  z = -0.032494 angstrom
           Maximum rank =  0   Radius =  0.650 angstrom
                   Q00  =  -0.240749

C          x =  0.392896  y =  3.027511  z =  0.795506 angstrom
           Maximum rank =  0   Radius =  0.650 angstrom
                   Q00  =  -0.231860

H          x = -1.128104  y =  2.016511  z = -0.362494 angstrom
           Maximum rank =  0   Radius =  0.325 angstrom
                   Q00  =   0.078430

H          x =  0.526896  y =  1.748511  z = -0.914494 angstrom
           Maximum rank =  0   Radius =  0.325 angstrom
                   Q00  =   0.076742

H          x = -0.047104  y =  0.926511  z =  0.538506 angstrom
           Maximum rank =  0   Radius =  0.325 angstrom
                   Q00  =   0.084003

H          x =  0.360896  y =  3.928511  z =  0.182506 angstrom
           Maximum rank =  0   Radius =  0.325 angstrom
                   Q00  =   0.077698

H          x =  1.441896  y =  2.848511  z =  1.038506 angstrom
           Maximum rank =  0   Radius =  0.325 angstrom
                   Q00  =   0.075113

H          x = -0.155452  y =  3.189507  z =  1.735225 angstrom
           Maximum rank =  0   Radius =  0.325 angstrom
                   Q00  =   0.082005

C          x =  0.377896  y = -1.935489  z = -0.159494 angstrom
           Maximum rank =  0   Radius =  0.650 angstrom
                   Q00  =  -0.239425

C          x = -0.674104  y = -2.946489  z = -0.598494 angstrom
           Maximum rank =  0   Radius =  0.650 angstrom
                   Q00  =  -0.232700

H          x =  1.377896  y = -2.331489  z = -0.337494 angstrom
           Maximum rank =  0   Radius =  0.325 angstrom
                   Q00  =   0.078004

H          x =  0.256896  y = -1.014489  z = -0.728494 angstrom
           Maximum rank =  0   Radius =  0.325 angstrom
                   Q00  =   0.082980

H          x =  0.260896  y = -1.716489  z =  0.902506 angstrom
           Maximum rank =  0   Radius =  0.325 angstrom
                   Q00  =   0.076549

H          x = -1.660104  y = -2.533489  z = -0.381494 angstrom
           Maximum rank =  0   Radius =  0.325 angstrom
                   Q00  =   0.077182

H          x = -0.546744  y = -3.891969  z = -0.050919 angstrom
           Maximum rank =  0   Radius =  0.325 angstrom
                   Q00  =   0.078119

H          x = -0.599577  y = -3.123039  z = -1.681673 angstrom
           Maximum rank =  0   Radius =  0.325 angstrom
                   Q00  =   0.077910

Total multipoles referred to origin at
           x =   0.000000,  y =    0.000000,  z =    0.000000 angstrom
                   Q00  =  -0.000000

Finished at 21:25:6 on 26 Apr 2020

  DMA results are available in the Python driver through the
	  variable('DMA DISTRIBUTED MULTIPOLES')
  and
	  variable('DMA TOTAL MULTIPOLES')
  commands.

    Psi4 stopped on: Sunday, 26 April 2020 09:25PM
    Psi4 wall time for execution: 0:00:15.51

*** Psi4 exiting successfully. Buy a developer a beer!
