                               Psi4 1.3.2 release

  ==> Input File <==

--------------------------------------------------------------------------
import numpy as np
set {scf_type pk
basis cc-pvdz
d_convergence 10
gdma_switch   0
gdma_limit    0
gdma_origin   [ 0.0,  0.0,  0.0 ]
}
molecule test {
    units Angstrom
    0 1
    --
    0 1
    C                2.870445137264228    -0.044871570248471     0.775579028318786
    C               -0.798554862735773     0.800128429751529     0.324579028318786
    C               -0.778554862735773     1.495128429751529    -0.883420971681214
    C                0.390445137264227     0.301128429751529     0.859579028318786
    C                1.601445137264227     0.497128429751529     0.195579028318786
    C                0.429445137264227     1.691128429751529    -1.552420971681214
    C                1.614445137264227     1.190128429751528    -1.014420971681214
    H               -1.730554862735773     0.654128429751529     0.851579028318786
    H               -1.698554862735773     1.880128429751529    -1.302420971681214
    H                0.366445137264227    -0.247871570248471     1.788579028318786
    H                0.442445137264227     2.220128429751529    -2.492420971681214
    H                3.393445137264227    -0.611871570248471     0.013579028318786
    H                2.603445137264228    -0.753871570248472     1.562579028318786
    H                2.541445137264227     1.341128429751528    -1.548420971681214
    H                3.534133137264228     0.720428429751529     1.204346028318786
    C               -2.305554862735773    -2.558871570248471    -0.233420971681214
    C               -2.579554862735773    -2.530871570248471     1.264579028318786
    H               -2.319554862735773    -3.581871570248471    -0.606420971681214
    H               -3.077554862735773    -1.996871570248471    -0.758420971681214
    H               -1.336554862735772    -2.105871570248472    -0.443420971681214
    H               -3.554554862735773    -2.984871570248471     1.445579028318786
    H               -2.626554862735773    -1.483871570248471     1.555579028318786
    H               -1.824180962735772    -3.052561570248471     1.870593028318786

}
e, wfn = energy('scf', return_wfn=True)
gdma(wfn)
dmavals = variable('DMA DISTRIBUTED MULTIPOLES')
charges = np.array(dmavals)
print(charges)
np.save('SSI-057PHE-066ILE-1-dimer.npy', np.array(charges))--------------------------------------------------------------------------

*** tstart() called on ds3
*** at Tue Apr 28 08:52:20 2020

   => Loading Basis Set <=

    Name: CC-PVDZ
    Role: ORBITAL
    Keyword: BASIS
    atoms 1-7, 16-17  entry C          line   138 file /theoryfs2/ds/metcalf/miniconda2/envs/tf2gpu/share/psi4/basis/cc-pvdz.gbs
    atoms 8-15, 18-23 entry H          line    22 file /theoryfs2/ds/metcalf/miniconda2/envs/tf2gpu/share/psi4/basis/cc-pvdz.gbs

         ---------------------------------------------------------
                                   SCF
               by Justin Turney, Rob Parrish, Andy Simmonett
                          and Daniel G. A. Smith
                              RHF Reference
                        1 Threads,    500 MiB Core
         ---------------------------------------------------------

  ==> Geometry <==

    Molecular point group: c1
    Full point group: C1

    Geometry (in Angstrom), charge = 0, multiplicity = 1:

       Center              X                  Y                   Z               Mass
    ------------   -----------------  -----------------  -----------------  -----------------
         C            2.870445137264    -0.044871570248     0.775579028319    12.000000000000
         C           -0.798554862736     0.800128429752     0.324579028319    12.000000000000
         C           -0.778554862736     1.495128429752    -0.883420971681    12.000000000000
         C            0.390445137264     0.301128429752     0.859579028319    12.000000000000
         C            1.601445137264     0.497128429752     0.195579028319    12.000000000000
         C            0.429445137264     1.691128429752    -1.552420971681    12.000000000000
         C            1.614445137264     1.190128429752    -1.014420971681    12.000000000000
         H           -1.730554862736     0.654128429752     0.851579028319     1.007825032230
         H           -1.698554862736     1.880128429752    -1.302420971681     1.007825032230
         H            0.366445137264    -0.247871570248     1.788579028319     1.007825032230
         H            0.442445137264     2.220128429752    -2.492420971681     1.007825032230
         H            3.393445137264    -0.611871570248     0.013579028319     1.007825032230
         H            2.603445137264    -0.753871570248     1.562579028319     1.007825032230
         H            2.541445137264     1.341128429752    -1.548420971681     1.007825032230
         H            3.534133137264     0.720428429752     1.204346028319     1.007825032230
         C           -2.305554862736    -2.558871570248    -0.233420971681    12.000000000000
         C           -2.579554862736    -2.530871570248     1.264579028319    12.000000000000
         H           -2.319554862736    -3.581871570248    -0.606420971681     1.007825032230
         H           -3.077554862736    -1.996871570248    -0.758420971681     1.007825032230
         H           -1.336554862736    -2.105871570248    -0.443420971681     1.007825032230
         H           -3.554554862736    -2.984871570248     1.445579028319     1.007825032230
         H           -2.626554862736    -1.483871570248     1.555579028319     1.007825032230
         H           -1.824180962736    -3.052561570248     1.870593028319     1.007825032230

  Running in c1 symmetry.

  Rotational constants: A =      0.06957  B =      0.02668  C =      0.02186 [cm^-1]
  Rotational constants: A =   2085.79790  B =    799.88397  C =    655.48211 [MHz]
  Nuclear repulsion =  409.187413110500302

  Charge       = 0
  Multiplicity = 1
  Electrons    = 68
  Nalpha       = 34
  Nbeta        = 34

  ==> Algorithm <==

  SCF Algorithm Type is PK.
  DIIS enabled.
  MOM disabled.
  Fractional occupation disabled.
  Guess Type is SAD.
  Energy threshold   = 1.00e-06
  Density threshold  = 1.00e-10
  Integral threshold = 0.00e+00

  ==> Primary Basis <==

  Basis Set: CC-PVDZ
    Blend: CC-PVDZ
    Number of shells: 96
    Number of basis function: 196
    Number of Cartesian functions: 205
    Spherical Harmonics?: true
    Max angular momentum: 2

  ==> Pre-Iterations <==

   -------------------------------------------------------
    Irrep   Nso     Nmo     Nalpha   Nbeta   Ndocc  Nsocc
   -------------------------------------------------------
     A        196     196       0       0       0       0
   -------------------------------------------------------
    Total     196     196      34      34      34       0
   -------------------------------------------------------

  ==> Integral Setup <==

  Using integral reordering PK algorithm.
  Sizing the integral batches needed.
  Building batch lookup table.
   Calculation information:
      Number of atoms:                  23
      Number of AO shells:              96
      Number of primitives:            268
      Number of atomic orbitals:       205
      Number of basis functions:       196

      Integral cutoff                 1.00e-12
      Number of threads:                 1

	Batch   1 pq = [       0,    9405] index = [             0,44231715] size =     44231715
	Batch   2 pq = [    9405,   13301] index = [      44231715,88464951] size =     44233236
	Batch   3 pq = [   13301,   16290] index = [      88464951,132690195] size =     44225244
	Batch   4 pq = [   16290,   18810] index = [     132690195,176917455] size =     44227260
	Batch   5 pq = [   18810,   19306] index = [     176917455,186370471] size =      9453016
  Task number: 17
  Buffer size: 11059200
  Buffer per thread: 2
  We computed 9745469 shell quartets total.
  Whereas there are 10841496 unique shell quartets.

  ==> DiskJK: Disk-Based J/K Matrices <==

    J tasked:                  Yes
    K tasked:                  Yes
    wK tasked:                  No
    Memory [MiB]:              375
    Schwarz Cutoff:          1E-12

    OpenMP threads:              1

  Minimum eigenvalue in the overlap matrix is 3.1396904079E-04.
  Using Symmetric Orthogonalization.

  SCF Guess: Superposition of Atomic Densities via on-the-fly atomic UHF.

  ==> Iterations <==

                        Total Energy        Delta E     RMS |[F,P]|

   @RHF iter SAD:  -347.88040031084228   -3.47880e+02   0.00000e+00
   @RHF iter   1:  -348.76648727399527   -8.86087e-01   2.89971e-03 DIIS
   @RHF iter   2:  -348.95946799157366   -1.92981e-01   1.20195e-03 DIIS
   @RHF iter   3:  -348.98970258074695   -3.02346e-02   2.58899e-04 DIIS
   @RHF iter   4:  -348.99216897204326   -2.46639e-03   5.59354e-05 DIIS
   @RHF iter   5:  -348.99224817474317   -7.92027e-05   1.89983e-05 DIIS
   @RHF iter   6:  -348.99225696930466   -8.79456e-06   4.93326e-06 DIIS
   @RHF iter   7:  -348.99225767810799   -7.08803e-07   1.22553e-06 DIIS
   @RHF iter   8:  -348.99225773455646   -5.64485e-08   3.39312e-07 DIIS
   @RHF iter   9:  -348.99225774360735   -9.05089e-09   1.52165e-07 DIIS
   @RHF iter  10:  -348.99225774602093   -2.41357e-09   7.57004e-08 DIIS
   @RHF iter  11:  -348.99225774678888   -7.67955e-10   2.69241e-08 DIIS
   @RHF iter  12:  -348.99225774687199   -8.31051e-11   1.22339e-08 DIIS
   @RHF iter  13:  -348.99225774688034   -8.35598e-12   4.05689e-09 DIIS
   @RHF iter  14:  -348.99225774688227   -1.93268e-12   1.14183e-09 DIIS
   @RHF iter  15:  -348.99225774688313   -8.52651e-13   3.77744e-10 DIIS
   @RHF iter  16:  -348.99225774688313    0.00000e+00   1.57622e-10 DIIS
   @RHF iter  17:  -348.99225774688381   -6.82121e-13   7.00383e-11 DIIS
  Energy and wave function converged.

  ==> Post-Iterations <==

    Orbital Energies [Eh]
    ---------------------

    Doubly Occupied:

       1A    -11.240600     2A    -11.236484     3A    -11.236337
       4A    -11.232096     5A    -11.231162     6A    -11.230969
       7A    -11.228108     8A    -11.215825     9A    -11.210760
      10A     -1.152177    11A     -1.045396    12A     -1.017235
      13A     -1.011158    14A     -0.931261    15A     -0.833529
      16A     -0.825452    17A     -0.795414    18A     -0.690781
      19A     -0.632877    20A     -0.630381    21A     -0.598718
      22A     -0.594282    23A     -0.581985    24A     -0.579533
      25A     -0.563141    26A     -0.532431    27A     -0.500000
      28A     -0.488618    29A     -0.485676    30A     -0.483461
      31A     -0.479801    32A     -0.478744    33A     -0.331871
      34A     -0.322025

    Virtual:

      35A      0.133769    36A      0.140381    37A      0.171709
      38A      0.195590    39A      0.204428    40A      0.223575
      41A      0.232217    42A      0.241376    43A      0.254862
      44A      0.264225    45A      0.266015    46A      0.273681
      47A      0.279124    48A      0.288802    49A      0.306725
      50A      0.348737    51A      0.370126    52A      0.377924
      53A      0.402618    54A      0.451186    55A      0.461134
      56A      0.479421    57A      0.503304    58A      0.562383
      59A      0.584650    60A      0.596553    61A      0.605633
      62A      0.615159    63A      0.640253    64A      0.657938
      65A      0.679562    66A      0.689391    67A      0.698290
      68A      0.704602    69A      0.727130    70A      0.738228
      71A      0.745993    72A      0.753069    73A      0.756839
      74A      0.770970    75A      0.787838    76A      0.811671
      77A      0.834590    78A      0.850634    79A      0.854521
      80A      0.865383    81A      0.869706    82A      0.883850
      83A      0.891545    84A      0.897136    85A      0.904737
      86A      0.911502    87A      0.918743    88A      0.924698
      89A      0.932707    90A      0.940951    91A      0.962120
      92A      0.984043    93A      0.986592    94A      0.999233
      95A      1.023591    96A      1.058034    97A      1.116716
      98A      1.127893    99A      1.133801   100A      1.142517
     101A      1.153577   102A      1.162963   103A      1.198299
     104A      1.220248   105A      1.237051   106A      1.251253
     107A      1.260849   108A      1.273008   109A      1.303481
     110A      1.304734   111A      1.323475   112A      1.329987
     113A      1.415419   114A      1.464612   115A      1.489785
     116A      1.505732   117A      1.528066   118A      1.552684
     119A      1.579893   120A      1.610091   121A      1.679414
     122A      1.684683   123A      1.697238   124A      1.699219
     125A      1.735642   126A      1.745336   127A      1.767865
     128A      1.793007   129A      1.817530   130A      1.853984
     131A      1.869080   132A      1.872425   133A      1.886694
     134A      1.894259   135A      1.903249   136A      1.907098
     137A      1.921565   138A      1.928318   139A      1.940462
     140A      1.944865   141A      1.949666   142A      1.953330
     143A      1.964123   144A      1.975598   145A      1.982416
     146A      1.987837   147A      2.003056   148A      2.014501
     149A      2.038845   150A      2.054501   151A      2.074015
     152A      2.098907   153A      2.110733   154A      2.130200
     155A      2.140672   156A      2.160017   157A      2.163322
     158A      2.172537   159A      2.194343   160A      2.244944
     161A      2.273768   162A      2.291806   163A      2.298639
     164A      2.316913   165A      2.323533   166A      2.328239
     167A      2.342399   168A      2.452666   169A      2.456145
     170A      2.473470   171A      2.479957   172A      2.520303
     173A      2.535492   174A      2.564900   175A      2.590809
     176A      2.629492   177A      2.737746   178A      2.753963
     179A      2.772379   180A      2.775901   181A      2.786691
     182A      2.803052   183A      2.812584   184A      2.851960
     185A      2.861231   186A      2.869882   187A      2.881170
     188A      2.957142   189A      2.965156   190A      2.980714
     191A      3.008868   192A      3.030140   193A      3.155470
     194A      3.200056   195A      3.296376   196A      3.965322

    Final Occupation by Irrep:
              A
    DOCC [    34 ]

  @RHF Final Energy:  -348.99225774688381

   => Energetics <=

    Nuclear Repulsion Energy =            409.1874131105003016
    One-Electron Energy =               -1281.0627712120956403
    Two-Electron Energy =                 522.8831003547115870
    Total Energy =                       -348.9922577468837517

Computation Completed

Properties will be evaluated at   0.000000,   0.000000,   0.000000 [a0]

Properties computed using the SCF density matrix

  Nuclear Dipole Moment: [e a0]
     X:    -4.9561      Y:    -9.3781      Z:     2.9445

  Electronic Dipole Moment: [e a0]
     X:     5.0969      Y:     9.3649      Z:    -2.9442

  Dipole Moment: [e a0]
     X:     0.1408      Y:    -0.0131      Z:     0.0003     Total:     0.1414

  Dipole Moment: [D]
     X:     0.3579      Y:    -0.0334      Z:     0.0007     Total:     0.3594

*** tstop() called on ds3 at Tue Apr 28 08:54:00 2020
Module time:
	user time   =      70.67 seconds =       1.18 minutes
	system time =      33.58 seconds =       0.56 minutes
	total time  =        100 seconds =       1.67 minutes
Total time:
	user time   =      70.67 seconds =       1.18 minutes
	system time =      33.58 seconds =       0.56 minutes
	total time  =        100 seconds =       1.67 minutes
                                     G D M A

                                 by Anthony Stone

                           version 2.2.06, 22 June 2011

               Distributed Multipoles from Gaussian wavefunctions

Starting at 8:54:0 on 28 Apr 2020

Using SCF density matrix from file ./SSI/SSI-057PHE-066ILE-1-dimer.test.16239.fchk

                         Distributed Multipole Analysis

Standard DMA

Positions and radii in angstrom
Multipole moments in atomic units, ea_0^k for rank k

C          x =  2.870445  y = -0.044872  z =  0.775579 angstrom
           Maximum rank =  0   Radius =  0.650 angstrom
                   Q00  =  -0.203786

C          x = -0.798555  y =  0.800128  z =  0.324579 angstrom
           Maximum rank =  0   Radius =  0.650 angstrom
                   Q00  =  -0.069171

C          x = -0.778555  y =  1.495128  z = -0.883421 angstrom
           Maximum rank =  0   Radius =  0.650 angstrom
                   Q00  =  -0.089526

C          x =  0.390445  y =  0.301128  z =  0.859579 angstrom
           Maximum rank =  0   Radius =  0.650 angstrom
                   Q00  =  -0.017701

C          x =  1.601445  y =  0.497128  z =  0.195579 angstrom
           Maximum rank =  0   Radius =  0.650 angstrom
                   Q00  =  -0.094064

C          x =  0.429445  y =  1.691128  z = -1.552421 angstrom
           Maximum rank =  0   Radius =  0.650 angstrom
                   Q00  =  -0.076960

C          x =  1.614445  y =  1.190128  z = -1.014421 angstrom
           Maximum rank =  0   Radius =  0.650 angstrom
                   Q00  =  -0.056764

H          x = -1.730555  y =  0.654128  z =  0.851579 angstrom
           Maximum rank =  0   Radius =  0.325 angstrom
                   Q00  =   0.065780

H          x = -1.698555  y =  1.880128  z = -1.302421 angstrom
           Maximum rank =  0   Radius =  0.325 angstrom
                   Q00  =   0.061838

H          x =  0.366445  y = -0.247872  z =  1.788579 angstrom
           Maximum rank =  0   Radius =  0.325 angstrom
                   Q00  =   0.059626

H          x =  0.442445  y =  2.220128  z = -2.492421 angstrom
           Maximum rank =  0   Radius =  0.325 angstrom
                   Q00  =   0.065534

H          x =  3.393445  y = -0.611872  z =  0.013579 angstrom
           Maximum rank =  0   Radius =  0.325 angstrom
                   Q00  =   0.101151

H          x =  2.603445  y = -0.753872  z =  1.562579 angstrom
           Maximum rank =  0   Radius =  0.325 angstrom
                   Q00  =   0.093416

H          x =  2.541445  y =  1.341128  z = -1.548421 angstrom
           Maximum rank =  0   Radius =  0.325 angstrom
                   Q00  =   0.056260

H          x =  3.534133  y =  0.720428  z =  1.204346 angstrom
           Maximum rank =  0   Radius =  0.325 angstrom
                   Q00  =   0.104928

C          x = -2.305555  y = -2.558872  z = -0.233421 angstrom
           Maximum rank =  0   Radius =  0.650 angstrom
                   Q00  =  -0.235191

C          x = -2.579555  y = -2.530872  z =  1.264579 angstrom
           Maximum rank =  0   Radius =  0.650 angstrom
                   Q00  =  -0.235096

H          x = -2.319555  y = -3.581872  z = -0.606421 angstrom
           Maximum rank =  0   Radius =  0.325 angstrom
                   Q00  =   0.075332

H          x = -3.077555  y = -1.996872  z = -0.758421 angstrom
           Maximum rank =  0   Radius =  0.325 angstrom
                   Q00  =   0.076322

H          x = -1.336555  y = -2.105872  z = -0.443421 angstrom
           Maximum rank =  0   Radius =  0.325 angstrom
                   Q00  =   0.091363

H          x = -3.554555  y = -2.984872  z =  1.445579 angstrom
           Maximum rank =  0   Radius =  0.325 angstrom
                   Q00  =   0.075740

H          x = -2.626555  y = -1.483872  z =  1.555579 angstrom
           Maximum rank =  0   Radius =  0.325 angstrom
                   Q00  =   0.070465

H          x = -1.824181  y = -3.052562  z =  1.870593 angstrom
           Maximum rank =  0   Radius =  0.325 angstrom
                   Q00  =   0.080501

Total multipoles referred to origin at
           x =   0.000000,  y =    0.000000,  z =    0.000000 angstrom
                   Q00  =  -0.000000

Finished at 8:54:0 on 28 Apr 2020

  DMA results are available in the Python driver through the
	  variable('DMA DISTRIBUTED MULTIPOLES')
  and
	  variable('DMA TOTAL MULTIPOLES')
  commands.

    Psi4 stopped on: Tuesday, 28 April 2020 08:54AM
    Psi4 wall time for execution: 0:01:40.75

*** Psi4 exiting successfully. Buy a developer a beer!
