                               Psi4 1.3.2 release

  ==> Input File <==

--------------------------------------------------------------------------
import numpy as np
set {scf_type pk
basis cc-pvdz
d_convergence 10
gdma_switch   0
gdma_limit    0
gdma_origin   [ 0.0,  0.0,  0.0 ]
}
molecule test {
    units Angstrom
    0 1
    --
    0 1
    C                1.301446805915230     1.100854021630006    -0.134168803641121
    C                1.633446805915230     2.148854021630006     0.936831196358879
    C               -0.162553194084770     0.721854021630006    -0.260168803641121
    C               -0.963553194084770     0.464854021630006     0.868831196358879
    C               -0.741553194084770     0.566854021630006    -1.544168803641121
    C               -2.363553194084770     0.124854021630006     0.728831196358879
    C               -2.104553194084770     0.190854021630006    -1.689168803641121
    C               -2.931553194084770     0.002854021630006    -0.537168803641121
    H                1.646446805915230     1.447854021630006    -1.107168803641121
    H                1.867446805915230     0.223854021630006     0.109831196358879
    H                1.458446805915230     1.715854021630006     1.923831196358879
    H               -0.541553194084770     0.544854021630006     1.860831196358880
    H               -0.141553194084770     0.724854021630006    -2.431168803641120
    H               -2.970553194084770    -0.046145978369994     1.608831196358880
    H               -2.528553194084770     0.074854021630006    -2.679168803641121
    H               -3.975553194084770    -0.260145978369994    -0.648168803641121
    H                1.028596805915230     3.060954521630006     0.826251196358879
    H                2.707186805915230     2.372789021630006     0.853571196358879
    C                2.313446805915230    -2.671145978369994     1.224831196358879
    O                2.570446805915230    -1.956145978369994     0.027831196358879
    H                1.741446805915230    -1.881145978369994    -0.464168803641121
    H                1.258446805915230    -2.936145978369994     1.286831196358879
    H                2.937166805915230    -3.577002978369994     1.204781196358879
    H                2.571016805915230    -1.981090978369994     2.041831196358879

}
e, wfn = energy('scf', return_wfn=True)
gdma(wfn)
dmavals = variable('DMA DISTRIBUTED MULTIPOLES')
charges = np.array(dmavals)
print(charges)
np.save('SSI-021PHE-072THR-1-dimer.npy', np.array(charges))--------------------------------------------------------------------------

*** tstart() called on ds3
*** at Tue Apr 28 09:59:30 2020

   => Loading Basis Set <=

    Name: CC-PVDZ
    Role: ORBITAL
    Keyword: BASIS
    atoms 1-8, 19     entry C          line   138 file /theoryfs2/ds/metcalf/miniconda2/envs/tf2gpu/share/psi4/basis/cc-pvdz.gbs
    atoms 9-18, 21-24 entry H          line    22 file /theoryfs2/ds/metcalf/miniconda2/envs/tf2gpu/share/psi4/basis/cc-pvdz.gbs
    atoms 20          entry O          line   198 file /theoryfs2/ds/metcalf/miniconda2/envs/tf2gpu/share/psi4/basis/cc-pvdz.gbs

         ---------------------------------------------------------
                                   SCF
               by Justin Turney, Rob Parrish, Andy Simmonett
                          and Daniel G. A. Smith
                              RHF Reference
                        1 Threads,    500 MiB Core
         ---------------------------------------------------------

  ==> Geometry <==

    Molecular point group: c1
    Full point group: C1

    Geometry (in Angstrom), charge = 0, multiplicity = 1:

       Center              X                  Y                   Z               Mass
    ------------   -----------------  -----------------  -----------------  -----------------
         C            1.301446805915     1.100854021630    -0.134168803641    12.000000000000
         C            1.633446805915     2.148854021630     0.936831196359    12.000000000000
         C           -0.162553194085     0.721854021630    -0.260168803641    12.000000000000
         C           -0.963553194085     0.464854021630     0.868831196359    12.000000000000
         C           -0.741553194085     0.566854021630    -1.544168803641    12.000000000000
         C           -2.363553194085     0.124854021630     0.728831196359    12.000000000000
         C           -2.104553194085     0.190854021630    -1.689168803641    12.000000000000
         C           -2.931553194085     0.002854021630    -0.537168803641    12.000000000000
         H            1.646446805915     1.447854021630    -1.107168803641     1.007825032230
         H            1.867446805915     0.223854021630     0.109831196359     1.007825032230
         H            1.458446805915     1.715854021630     1.923831196359     1.007825032230
         H           -0.541553194085     0.544854021630     1.860831196359     1.007825032230
         H           -0.141553194085     0.724854021630    -2.431168803641     1.007825032230
         H           -2.970553194085    -0.046145978370     1.608831196359     1.007825032230
         H           -2.528553194085     0.074854021630    -2.679168803641     1.007825032230
         H           -3.975553194085    -0.260145978370    -0.648168803641     1.007825032230
         H            1.028596805915     3.060954521630     0.826251196359     1.007825032230
         H            2.707186805915     2.372789021630     0.853571196359     1.007825032230
         C            2.313446805915    -2.671145978370     1.224831196359    12.000000000000
         O            2.570446805915    -1.956145978370     0.027831196359    15.994914619570
         H            1.741446805915    -1.881145978370    -0.464168803641     1.007825032230
         H            1.258446805915    -2.936145978370     1.286831196359     1.007825032230
         H            2.937166805915    -3.577002978370     1.204781196359     1.007825032230
         H            2.571016805915    -1.981090978370     2.041831196359     1.007825032230

  Running in c1 symmetry.

  Rotational constants: A =      0.04885  B =      0.02322  C =      0.01998 [cm^-1]
  Rotational constants: A =   1464.46483  B =    696.15616  C =    598.96590 [MHz]
  Nuclear repulsion =  493.561302162696109

  Charge       = 0
  Multiplicity = 1
  Electrons    = 76
  Nalpha       = 38
  Nbeta        = 38

  ==> Algorithm <==

  SCF Algorithm Type is PK.
  DIIS enabled.
  MOM disabled.
  Fractional occupation disabled.
  Guess Type is SAD.
  Energy threshold   = 1.00e-06
  Density threshold  = 1.00e-10
  Integral threshold = 0.00e+00

  ==> Primary Basis <==

  Basis Set: CC-PVDZ
    Blend: CC-PVDZ
    Number of shells: 102
    Number of basis function: 210
    Number of Cartesian functions: 220
    Spherical Harmonics?: true
    Max angular momentum: 2

  ==> Pre-Iterations <==

   -------------------------------------------------------
    Irrep   Nso     Nmo     Nalpha   Nbeta   Ndocc  Nsocc
   -------------------------------------------------------
     A        210     210       0       0       0       0
   -------------------------------------------------------
    Total     210     210      38      38      38       0
   -------------------------------------------------------

  ==> Integral Setup <==

  Using integral reordering PK algorithm.
  Sizing the integral batches needed.
  Building batch lookup table.
   Calculation information:
      Number of atoms:                  24
      Number of AO shells:             102
      Number of primitives:            290
      Number of atomic orbitals:       220
      Number of basis functions:       210

      Integral cutoff                 1.00e-12
      Number of threads:                 1

	Batch   1 pq = [       0,    9405] index = [             0,44231715] size =     44231715
	Batch   2 pq = [    9405,   13301] index = [      44231715,88464951] size =     44233236
	Batch   3 pq = [   13301,   16290] index = [      88464951,132690195] size =     44225244
	Batch   4 pq = [   16290,   18810] index = [     132690195,176917455] size =     44227260
	Batch   5 pq = [   18810,   21030] index = [     176917455,221140965] size =     44223510
	Batch   6 pq = [   21030,   22155] index = [     221140965,245433090] size =     24292125
  Task number: 23
  Buffer size: 11059200
  Buffer per thread: 2
  We computed 12990298 shell quartets total.
  Whereas there are 13799631 unique shell quartets.

  ==> DiskJK: Disk-Based J/K Matrices <==

    J tasked:                  Yes
    K tasked:                  Yes
    wK tasked:                  No
    Memory [MiB]:              375
    Schwarz Cutoff:          1E-12

    OpenMP threads:              1

  Minimum eigenvalue in the overlap matrix is 3.6334195692E-04.
  Using Symmetric Orthogonalization.

  SCF Guess: Superposition of Atomic Densities via on-the-fly atomic UHF.

  ==> Iterations <==

                        Total Energy        Delta E     RMS |[F,P]|

   @RHF iter SAD:  -422.32644296579076   -4.22326e+02   0.00000e+00
   @RHF iter   1:  -423.61072337594749   -1.28428e+00   2.79694e-03 DIIS
   @RHF iter   2:  -423.80198029560444   -1.91257e-01   1.24527e-03 DIIS
   @RHF iter   3:  -423.83354299547238   -3.15627e-02   2.87666e-04 DIIS
   @RHF iter   4:  -423.83631022219805   -2.76723e-03   8.42085e-05 DIIS
   @RHF iter   5:  -423.83648430044082   -1.74078e-04   1.78990e-05 DIIS
   @RHF iter   6:  -423.83649607052251   -1.17701e-05   4.77682e-06 DIIS
   @RHF iter   7:  -423.83649726028148   -1.18976e-06   2.44868e-06 DIIS
   @RHF iter   8:  -423.83649754104101   -2.80760e-07   8.53466e-07 DIIS
   @RHF iter   9:  -423.83649763634315   -9.53021e-08   3.77432e-07 DIIS
   @RHF iter  10:  -423.83649765743627   -2.10931e-08   1.80224e-07 DIIS
   @RHF iter  11:  -423.83649766203382   -4.59755e-09   4.88505e-08 DIIS
   @RHF iter  12:  -423.83649766230599   -2.72166e-10   2.00335e-08 DIIS
   @RHF iter  13:  -423.83649766232833   -2.23395e-11   7.90811e-09 DIIS
   @RHF iter  14:  -423.83649766233304   -4.71800e-12   3.01433e-09 DIIS
   @RHF iter  15:  -423.83649766233373   -6.82121e-13   1.52830e-09 DIIS
   @RHF iter  16:  -423.83649766233094    2.78533e-12   6.40513e-10 DIIS
   @RHF iter  17:  -423.83649766233225   -1.30740e-12   2.32181e-10 DIIS
   @RHF iter  18:  -423.83649766233265   -3.97904e-13   8.19365e-11 DIIS
  Energy and wave function converged.

  ==> Post-Iterations <==

    Orbital Energies [Eh]
    ---------------------

    Doubly Occupied:

       1A    -20.550171     2A    -11.276919     3A    -11.246823
       4A    -11.246540     5A    -11.246052     6A    -11.240528
       7A    -11.240175     8A    -11.239838     9A    -11.221923
      10A    -11.221298    11A     -1.352134    12A     -1.140171
      13A     -1.057152    14A     -1.001106    15A     -0.978695
      16A     -0.919271    17A     -0.861506    18A     -0.821865
      19A     -0.779983    20A     -0.687508    21A     -0.685649
      22A     -0.638907    23A     -0.631521    24A     -0.619857
      25A     -0.597865    26A     -0.584710    27A     -0.582557
      28A     -0.574071    29A     -0.531205    30A     -0.514302
      31A     -0.503325    32A     -0.497389    33A     -0.476407
      34A     -0.473203    35A     -0.467668    36A     -0.437691
      37A     -0.327128    38A     -0.321149

    Virtual:

      39A      0.123680    40A      0.137055    41A      0.169453
      42A      0.193961    43A      0.198965    44A      0.207597
      45A      0.228935    46A      0.240335    47A      0.244109
      48A      0.256077    49A      0.265589    50A      0.269591
      51A      0.271825    52A      0.299670    53A      0.323391
      54A      0.330022    55A      0.356387    56A      0.365614
      57A      0.395641    58A      0.415333    59A      0.437679
      60A      0.459437    61A      0.473566    62A      0.494457
      63A      0.572386    64A      0.596157    65A      0.605070
      66A      0.616307    67A      0.627935    68A      0.648584
      69A      0.661712    70A      0.689157    71A      0.702350
      72A      0.712905    73A      0.722026    74A      0.726720
      75A      0.734195    76A      0.741749    77A      0.745572
      78A      0.751534    79A      0.754115    80A      0.795156
      81A      0.828353    82A      0.841160    83A      0.848142
      84A      0.854481    85A      0.862433    86A      0.868662
      87A      0.878426    88A      0.880716    89A      0.890815
      90A      0.892336    91A      0.894819    92A      0.909249
      93A      0.919884    94A      0.928683    95A      0.938238
      96A      0.941798    97A      0.981235    98A      0.986511
      99A      0.999055   100A      1.052091   101A      1.064514
     102A      1.100278   103A      1.126650   104A      1.131040
     105A      1.143018   106A      1.148119   107A      1.161992
     108A      1.174774   109A      1.199934   110A      1.208941
     111A      1.227713   112A      1.241495   113A      1.253676
     114A      1.277325   115A      1.289565   116A      1.299704
     117A      1.306163   118A      1.339129   119A      1.373785
     120A      1.406259   121A      1.422115   122A      1.465918
     123A      1.501552   124A      1.527778   125A      1.535112
     126A      1.561350   127A      1.592659   128A      1.630469
     129A      1.654122   130A      1.673321   131A      1.690632
     132A      1.696832   133A      1.721128   134A      1.731975
     135A      1.749218   136A      1.761840   137A      1.793128
     138A      1.814217   139A      1.832764   140A      1.853366
     141A      1.862675   142A      1.880711   143A      1.887134
     144A      1.893816   145A      1.896803   146A      1.912633
     147A      1.927439   148A      1.929617   149A      1.936236
     150A      1.947817   151A      1.957403   152A      1.964030
     153A      1.974277   154A      1.989720   155A      2.001481
     156A      2.013856   157A      2.029232   158A      2.035133
     159A      2.054746   160A      2.058023   161A      2.086165
     162A      2.107450   163A      2.112318   164A      2.128747
     165A      2.135678   166A      2.154000   167A      2.165929
     168A      2.194132   169A      2.214548   170A      2.252089
     171A      2.256331   172A      2.277156   173A      2.285301
     174A      2.301496   175A      2.319938   176A      2.344809
     177A      2.396983   178A      2.407086   179A      2.416669
     180A      2.450179   181A      2.457849   182A      2.489337
     183A      2.538936   184A      2.547940   185A      2.597072
     186A      2.644015   187A      2.711471   188A      2.728307
     189A      2.733734   190A      2.745272   191A      2.764194
     192A      2.771360   193A      2.778071   194A      2.792583
     195A      2.821476   196A      2.866061   197A      2.920924
     198A      2.935578   199A      2.957182   200A      3.006150
     201A      3.040128   202A      3.138743   203A      3.163809
     204A      3.242801   205A      3.310766   206A      3.386407
     207A      3.441004   208A      3.605166   209A      3.868519
     210A      4.101533

    Final Occupation by Irrep:
              A
    DOCC [    38 ]

  @RHF Final Energy:  -423.83649766233265

   => Energetics <=

    Nuclear Repulsion Energy =            493.5613021626961086
    One-Electron Energy =               -1553.2070721413010688
    Two-Electron Energy =                 635.8092723162721995
    Total Energy =                       -423.8364976623327038

Computation Completed

Properties will be evaluated at   0.000000,   0.000000,   0.000000 [a0]

Properties computed using the SCF density matrix

  Nuclear Dipole Moment: [e a0]
     X:     6.6294      Y:    -0.4930      Z:     4.1126

  Electronic Dipole Moment: [e a0]
     X:    -7.0648      Y:     0.1755      Z:    -3.8942

  Dipole Moment: [e a0]
     X:    -0.4354      Y:    -0.3174      Z:     0.2184     Total:     0.5814

  Dipole Moment: [D]
     X:    -1.1066      Y:    -0.8068      Z:     0.5551     Total:     1.4777

*** tstop() called on ds3 at Tue Apr 28 10:02:33 2020
Module time:
	user time   =     100.12 seconds =       1.67 minutes
	system time =      39.75 seconds =       0.66 minutes
	total time  =        183 seconds =       3.05 minutes
Total time:
	user time   =     100.12 seconds =       1.67 minutes
	system time =      39.75 seconds =       0.66 minutes
	total time  =        183 seconds =       3.05 minutes
                                     G D M A

                                 by Anthony Stone

                           version 2.2.06, 22 June 2011

               Distributed Multipoles from Gaussian wavefunctions

Starting at 10:2:33 on 28 Apr 2020

Using SCF density matrix from file ./SSI/SSI-021PHE-072THR-1-dimer.test.1613.fchk

                         Distributed Multipole Analysis

Standard DMA

Positions and radii in angstrom
Multipole moments in atomic units, ea_0^k for rank k

C          x =  1.301447  y =  1.100854  z = -0.134169 angstrom
           Maximum rank =  0   Radius =  0.650 angstrom
                   Q00  =  -0.038007

C          x =  1.633447  y =  2.148854  z =  0.936831 angstrom
           Maximum rank =  0   Radius =  0.650 angstrom
                   Q00  =  -0.234759

C          x = -0.162553  y =  0.721854  z = -0.260169 angstrom
           Maximum rank =  0   Radius =  0.650 angstrom
                   Q00  =  -0.119488

C          x = -0.963553  y =  0.464854  z =  0.868831 angstrom
           Maximum rank =  0   Radius =  0.650 angstrom
                   Q00  =  -0.089454

C          x = -0.741553  y =  0.566854  z = -1.544169 angstrom
           Maximum rank =  0   Radius =  0.650 angstrom
                   Q00  =  -0.057082

C          x = -2.363553  y =  0.124854  z =  0.728831 angstrom
           Maximum rank =  0   Radius =  0.650 angstrom
                   Q00  =  -0.066594

C          x = -2.104553  y =  0.190854  z = -1.689169 angstrom
           Maximum rank =  0   Radius =  0.650 angstrom
                   Q00  =  -0.053917

C          x = -2.931553  y =  0.002854  z = -0.537169 angstrom
           Maximum rank =  0   Radius =  0.650 angstrom
                   Q00  =  -0.091977

H          x =  1.646447  y =  1.447854  z = -1.107169 angstrom
           Maximum rank =  0   Radius =  0.325 angstrom
                   Q00  =   0.060316

H          x =  1.867447  y =  0.223854  z =  0.109831 angstrom
           Maximum rank =  0   Radius =  0.325 angstrom
                   Q00  =   0.073340

H          x =  1.458447  y =  1.715854  z =  1.923831 angstrom
           Maximum rank =  0   Radius =  0.325 angstrom
                   Q00  =   0.078428

H          x = -0.541553  y =  0.544854  z =  1.860831 angstrom
           Maximum rank =  0   Radius =  0.325 angstrom
                   Q00  =   0.065284

H          x = -0.141553  y =  0.724854  z = -2.431169 angstrom
           Maximum rank =  0   Radius =  0.325 angstrom
                   Q00  =   0.065662

H          x = -2.970553  y = -0.046146  z =  1.608831 angstrom
           Maximum rank =  0   Radius =  0.325 angstrom
                   Q00  =   0.070367

H          x = -2.528553  y =  0.074854  z = -2.679169 angstrom
           Maximum rank =  0   Radius =  0.325 angstrom
                   Q00  =   0.072562

H          x = -3.975553  y = -0.260146  z = -0.648169 angstrom
           Maximum rank =  0   Radius =  0.325 angstrom
                   Q00  =   0.068488

H          x =  1.028597  y =  3.060955  z =  0.826251 angstrom
           Maximum rank =  0   Radius =  0.325 angstrom
                   Q00  =   0.081855

H          x =  2.707187  y =  2.372789  z =  0.853571 angstrom
           Maximum rank =  0   Radius =  0.325 angstrom
                   Q00  =   0.090129

C          x =  2.313447  y = -2.671146  z =  1.224831 angstrom
           Maximum rank =  0   Radius =  0.650 angstrom
                   Q00  =  -0.040210

O          x =  2.570447  y = -1.956146  z =  0.027831 angstrom
           Maximum rank =  0   Radius =  0.650 angstrom
                   Q00  =  -0.596699

H          x =  1.741447  y = -1.881146  z = -0.464169 angstrom
           Maximum rank =  0   Radius =  0.325 angstrom
                   Q00  =   0.403541

H          x =  1.258447  y = -2.936146  z =  1.286831 angstrom
           Maximum rank =  0   Radius =  0.325 angstrom
                   Q00  =   0.075925

H          x =  2.937167  y = -3.577003  z =  1.204781 angstrom
           Maximum rank =  0   Radius =  0.325 angstrom
                   Q00  =   0.097746

H          x =  2.571017  y = -1.981091  z =  2.041831 angstrom
           Maximum rank =  0   Radius =  0.325 angstrom
                   Q00  =   0.084546

Total multipoles referred to origin at
           x =   0.000000,  y =    0.000000,  z =    0.000000 angstrom
                   Q00  =  -0.000000

Finished at 10:2:33 on 28 Apr 2020

  DMA results are available in the Python driver through the
	  variable('DMA DISTRIBUTED MULTIPOLES')
  and
	  variable('DMA TOTAL MULTIPOLES')
  commands.

    Psi4 stopped on: Tuesday, 28 April 2020 10:02AM
    Psi4 wall time for execution: 0:03:03.13

*** Psi4 exiting successfully. Buy a developer a beer!
