                               Psi4 1.3.2 release

  ==> Input File <==

--------------------------------------------------------------------------
import numpy as np
set {scf_type pk
basis cc-pvdz
d_convergence 10
gdma_switch   0
gdma_limit    0
gdma_origin   [ 0.0,  0.0,  0.0 ]
}
molecule test {
    units Angstrom
    0 1
    --
    0 1
    C                2.040771360625863    -1.485137585601841     0.549794366807123
    C               -1.564228639374137    -0.341137585601841     0.313794366807123
    C               -0.373228639374137    -1.010137585601841     0.057794366807123
    C               -1.631228639374137     0.585862414398159     1.341794366807122
    C                0.753771360625863    -0.766137585601841     0.831794366807123
    C               -0.506228639374137     0.834862414398159     2.119794366807123
    C                0.683771360625863     0.164862414398159     1.861794366807122
    H               -2.430228639374137    -0.571137585601841    -0.278205633192877
    H               -0.327228639374137    -1.727137585601841    -0.749205633192877
    H               -2.556228639374137     1.102862414398159     1.555794366807123
    H               -0.552228639374137     1.555862414398159     2.921794366807123
    H                2.861771360625863    -0.817137585601841     0.817794366807122
    H                2.122771360625863    -1.693137585601841    -0.514205633192877
    H                1.552771360625863     0.372862414398159     2.467794366807123
    H                2.153084360625864    -2.444120585601841     1.076804366807123
    C               -0.376228639374137     1.463862414398159    -2.882205633192878
    C                0.659771360625863     0.428862414398159    -3.261205633192877
    H               -0.855228639374137     1.175862414398159    -1.948205633192877
    H                0.111771360625863     2.425862414398158    -2.727205633192877
    H               -1.095228639374137     1.582862414398159    -3.685205633192878
    H                0.187771360625863    -0.553137585601841    -3.273205633192878
    H                1.080042360625863     0.648008414398159    -4.253855633192878
    H                1.473913360625863     0.420909414398159    -2.521535633192877

}
e, wfn = energy('scf', return_wfn=True)
gdma(wfn)
dmavals = variable('DMA DISTRIBUTED MULTIPOLES')
charges = np.array(dmavals)
print(charges)
np.save('SSI-021PHE-097LEU-2-dimer.npy', np.array(charges))--------------------------------------------------------------------------

*** tstart() called on ds3
*** at Tue Apr 28 20:29:52 2020

   => Loading Basis Set <=

    Name: CC-PVDZ
    Role: ORBITAL
    Keyword: BASIS
    atoms 1-7, 16-17  entry C          line   138 file /theoryfs2/ds/metcalf/miniconda2/envs/tf2gpu/share/psi4/basis/cc-pvdz.gbs
    atoms 8-15, 18-23 entry H          line    22 file /theoryfs2/ds/metcalf/miniconda2/envs/tf2gpu/share/psi4/basis/cc-pvdz.gbs

         ---------------------------------------------------------
                                   SCF
               by Justin Turney, Rob Parrish, Andy Simmonett
                          and Daniel G. A. Smith
                              RHF Reference
                        1 Threads,    500 MiB Core
         ---------------------------------------------------------

  ==> Geometry <==

    Molecular point group: c1
    Full point group: C1

    Geometry (in Angstrom), charge = 0, multiplicity = 1:

       Center              X                  Y                   Z               Mass
    ------------   -----------------  -----------------  -----------------  -----------------
         C            2.040771360626    -1.485137585602     0.549794366807    12.000000000000
         C           -1.564228639374    -0.341137585602     0.313794366807    12.000000000000
         C           -0.373228639374    -1.010137585602     0.057794366807    12.000000000000
         C           -1.631228639374     0.585862414398     1.341794366807    12.000000000000
         C            0.753771360626    -0.766137585602     0.831794366807    12.000000000000
         C           -0.506228639374     0.834862414398     2.119794366807    12.000000000000
         C            0.683771360626     0.164862414398     1.861794366807    12.000000000000
         H           -2.430228639374    -0.571137585602    -0.278205633193     1.007825032230
         H           -0.327228639374    -1.727137585602    -0.749205633193     1.007825032230
         H           -2.556228639374     1.102862414398     1.555794366807     1.007825032230
         H           -0.552228639374     1.555862414398     2.921794366807     1.007825032230
         H            2.861771360626    -0.817137585602     0.817794366807     1.007825032230
         H            2.122771360626    -1.693137585602    -0.514205633193     1.007825032230
         H            1.552771360626     0.372862414398     2.467794366807     1.007825032230
         H            2.153084360626    -2.444120585602     1.076804366807     1.007825032230
         C           -0.376228639374     1.463862414398    -2.882205633193    12.000000000000
         C            0.659771360626     0.428862414398    -3.261205633193    12.000000000000
         H           -0.855228639374     1.175862414398    -1.948205633193     1.007825032230
         H            0.111771360626     2.425862414398    -2.727205633193     1.007825032230
         H           -1.095228639374     1.582862414398    -3.685205633193     1.007825032230
         H            0.187771360626    -0.553137585602    -3.273205633193     1.007825032230
         H            1.080042360626     0.648008414398    -4.253855633193     1.007825032230
         H            1.473913360626     0.420909414398    -2.521535633193     1.007825032230

  Running in c1 symmetry.

  Rotational constants: A =      0.06094  B =      0.03289  C =      0.02537 [cm^-1]
  Rotational constants: A =   1826.90057  B =    985.88452  C =    760.45332 [MHz]
  Nuclear repulsion =  416.764895328364958

  Charge       = 0
  Multiplicity = 1
  Electrons    = 68
  Nalpha       = 34
  Nbeta        = 34

  ==> Algorithm <==

  SCF Algorithm Type is PK.
  DIIS enabled.
  MOM disabled.
  Fractional occupation disabled.
  Guess Type is SAD.
  Energy threshold   = 1.00e-06
  Density threshold  = 1.00e-10
  Integral threshold = 0.00e+00

  ==> Primary Basis <==

  Basis Set: CC-PVDZ
    Blend: CC-PVDZ
    Number of shells: 96
    Number of basis function: 196
    Number of Cartesian functions: 205
    Spherical Harmonics?: true
    Max angular momentum: 2

  ==> Pre-Iterations <==

   -------------------------------------------------------
    Irrep   Nso     Nmo     Nalpha   Nbeta   Ndocc  Nsocc
   -------------------------------------------------------
     A        196     196       0       0       0       0
   -------------------------------------------------------
    Total     196     196      34      34      34       0
   -------------------------------------------------------

  ==> Integral Setup <==

  Using integral reordering PK algorithm.
  Sizing the integral batches needed.
  Building batch lookup table.
   Calculation information:
      Number of atoms:                  23
      Number of AO shells:              96
      Number of primitives:            268
      Number of atomic orbitals:       205
      Number of basis functions:       196

      Integral cutoff                 1.00e-12
      Number of threads:                 1

	Batch   1 pq = [       0,    9405] index = [             0,44231715] size =     44231715
	Batch   2 pq = [    9405,   13301] index = [      44231715,88464951] size =     44233236
	Batch   3 pq = [   13301,   16290] index = [      88464951,132690195] size =     44225244
	Batch   4 pq = [   16290,   18810] index = [     132690195,176917455] size =     44227260
	Batch   5 pq = [   18810,   19306] index = [     176917455,186370471] size =      9453016
  Task number: 17
  Buffer size: 11059200
  Buffer per thread: 2
  We computed 10455885 shell quartets total.
  Whereas there are 10841496 unique shell quartets.

  ==> DiskJK: Disk-Based J/K Matrices <==

    J tasked:                  Yes
    K tasked:                  Yes
    wK tasked:                  No
    Memory [MiB]:              375
    Schwarz Cutoff:          1E-12

    OpenMP threads:              1

  Minimum eigenvalue in the overlap matrix is 3.0492827125E-04.
  Using Symmetric Orthogonalization.

  SCF Guess: Superposition of Atomic Densities via on-the-fly atomic UHF.

  ==> Iterations <==

                        Total Energy        Delta E     RMS |[F,P]|

   @RHF iter SAD:  -347.95379101718748   -3.47954e+02   0.00000e+00
   @RHF iter   1:  -348.76397957803437   -8.10189e-01   2.92438e-03 DIIS
   @RHF iter   2:  -348.95846431850998   -1.94485e-01   1.22611e-03 DIIS
   @RHF iter   3:  -348.98975971823910   -3.12954e-02   2.62088e-04 DIIS
   @RHF iter   4:  -348.99226345858779   -2.50374e-03   5.92590e-05 DIIS
   @RHF iter   5:  -348.99235157978580   -8.81212e-05   1.98859e-05 DIIS
   @RHF iter   6:  -348.99236121698948   -9.63720e-06   5.07085e-06 DIIS
   @RHF iter   7:  -348.99236195490647   -7.37917e-07   1.19556e-06 DIIS
   @RHF iter   8:  -348.99236200254745   -4.76410e-08   2.89117e-07 DIIS
   @RHF iter   9:  -348.99236200739091   -4.84346e-09   1.12527e-07 DIIS
   @RHF iter  10:  -348.99236200833957   -9.48660e-10   5.30316e-08 DIIS
   @RHF iter  11:  -348.99236200865550   -3.15936e-10   2.11293e-08 DIIS
   @RHF iter  12:  -348.99236200870877   -5.32623e-11   1.06533e-08 DIIS
   @RHF iter  13:  -348.99236200871792   -9.15179e-12   3.77503e-09 DIIS
   @RHF iter  14:  -348.99236200871991   -1.98952e-12   9.78181e-10 DIIS
   @RHF iter  15:  -348.99236200872059   -6.82121e-13   2.97242e-10 DIIS
   @RHF iter  16:  -348.99236200872139   -7.95808e-13   9.34459e-11 DIIS
  Energy and wave function converged.

  ==> Post-Iterations <==

    Orbital Energies [Eh]
    ---------------------

    Doubly Occupied:

       1A    -11.239616     2A    -11.235368     3A    -11.234543
       4A    -11.231323     5A    -11.230307     6A    -11.229606
       7A    -11.228362     8A    -11.213249     9A    -11.206488
      10A     -1.155882    11A     -1.046411    12A     -1.017233
      13A     -1.013390    14A     -0.932092    15A     -0.829808
      16A     -0.826205    17A     -0.797587    18A     -0.692945
      19A     -0.633486    20A     -0.631144    21A     -0.597890
      22A     -0.593202    23A     -0.584134    24A     -0.575935
      25A     -0.563562    26A     -0.535211    27A     -0.497403
      28A     -0.490563    29A     -0.486734    30A     -0.482729
      31A     -0.478432    32A     -0.475090    33A     -0.333183
      34A     -0.323636

    Virtual:

      35A      0.134851    36A      0.139579    37A      0.172181
      38A      0.196831    39A      0.202330    40A      0.218748
      41A      0.235219    42A      0.242474    43A      0.258757
      44A      0.260313    45A      0.271345    46A      0.279815
      47A      0.287784    48A      0.294898    49A      0.315076
      50A      0.321714    51A      0.367549    52A      0.381191
      53A      0.405920    54A      0.453755    55A      0.462828
      56A      0.486944    57A      0.491233    58A      0.562043
      59A      0.583210    60A      0.595415    61A      0.607118
      62A      0.611393    63A      0.646866    64A      0.669975
      65A      0.679601    66A      0.689347    67A      0.700678
      68A      0.710954    69A      0.730774    70A      0.737901
      71A      0.742290    72A      0.746413    73A      0.767245
      74A      0.775604    75A      0.797064    76A      0.822387
      77A      0.844543    78A      0.846541    79A      0.859670
      80A      0.864477    81A      0.872915    82A      0.886567
      83A      0.894933    84A      0.897608    85A      0.904864
      86A      0.911789    87A      0.915716    88A      0.926388
      89A      0.941595    90A      0.950238    91A      0.978391
      92A      0.987585    93A      1.005587    94A      1.006712
      95A      1.034309    96A      1.054238    97A      1.125681
      98A      1.132763    99A      1.137588   100A      1.140664
     101A      1.153886   102A      1.168545   103A      1.189579
     104A      1.235302   105A      1.246384   106A      1.252957
     107A      1.259847   108A      1.278512   109A      1.300811
     110A      1.317930   111A      1.320781   112A      1.362327
     113A      1.413221   114A      1.481981   115A      1.490133
     116A      1.510031   117A      1.518899   118A      1.556838
     119A      1.588527   120A      1.603978   121A      1.679679
     122A      1.688085   123A      1.701264   124A      1.703494
     125A      1.738743   126A      1.755182   127A      1.762141
     128A      1.797390   129A      1.815116   130A      1.858167
     131A      1.869896   132A      1.878465   133A      1.884764
     134A      1.900666   135A      1.910395   136A      1.917362
     137A      1.927571   138A      1.928739   139A      1.946726
     140A      1.949379   141A      1.954013   142A      1.962091
     143A      1.968545   144A      1.975023   145A      1.978845
     146A      1.997738   147A      1.999370   148A      2.007122
     149A      2.038981   150A      2.072307   151A      2.081898
     152A      2.109215   153A      2.117206   154A      2.146562
     155A      2.152865   156A      2.157920   157A      2.163626
     158A      2.175955   159A      2.182898   160A      2.260451
     161A      2.280238   162A      2.296293   163A      2.305471
     164A      2.310683   165A      2.317737   166A      2.323298
     167A      2.340967   168A      2.455531   169A      2.476012
     170A      2.479389   171A      2.479794   172A      2.500829
     173A      2.549478   174A      2.582100   175A      2.587533
     176A      2.622079   177A      2.743380   178A      2.761208
     179A      2.768618   180A      2.780052   181A      2.790947
     182A      2.813801   183A      2.815863   184A      2.852391
     185A      2.854408   186A      2.871918   187A      2.890664
     188A      2.971600   189A      2.977618   190A      2.994907
     191A      3.025891   192A      3.040353   193A      3.164456
     194A      3.213613   195A      3.308089   196A      3.986399

    Final Occupation by Irrep:
              A
    DOCC [    34 ]

  @RHF Final Energy:  -348.99236200872139

   => Energetics <=

    Nuclear Repulsion Energy =            416.7648953283649575
    One-Electron Energy =               -1296.2290185648957959
    Two-Electron Energy =                 530.4717612278094521
    Total Energy =                       -348.9923620087214431

Computation Completed

Properties will be evaluated at   0.000000,   0.000000,   0.000000 [a0]

Properties computed using the SCF density matrix

  Nuclear Dipole Moment: [e a0]
     X:     3.4944      Y:     1.3868      Z:   -10.4161

  Electronic Dipole Moment: [e a0]
     X:    -3.4088      Y:    -1.4537      Z:    10.4782

  Dipole Moment: [e a0]
     X:     0.0856      Y:    -0.0669      Z:     0.0621     Total:     0.1252

  Dipole Moment: [D]
     X:     0.2176      Y:    -0.1702      Z:     0.1579     Total:     0.3182

*** tstop() called on ds3 at Tue Apr 28 20:32:04 2020
Module time:
	user time   =      70.56 seconds =       1.18 minutes
	system time =      23.11 seconds =       0.39 minutes
	total time  =        132 seconds =       2.20 minutes
Total time:
	user time   =      70.56 seconds =       1.18 minutes
	system time =      23.11 seconds =       0.39 minutes
	total time  =        132 seconds =       2.20 minutes
                                     G D M A

                                 by Anthony Stone

                           version 2.2.06, 22 June 2011

               Distributed Multipoles from Gaussian wavefunctions

Starting at 20:32:4 on 28 Apr 2020

Using SCF density matrix from file ./SSI/SSI-021PHE-097LEU-2-dimer.test.28393.fchk

                         Distributed Multipole Analysis

Standard DMA

Positions and radii in angstrom
Multipole moments in atomic units, ea_0^k for rank k

C          x =  2.040771  y = -1.485138  z =  0.549794 angstrom
           Maximum rank =  0   Radius =  0.650 angstrom
                   Q00  =  -0.200289

C          x = -1.564229  y = -0.341138  z =  0.313794 angstrom
           Maximum rank =  0   Radius =  0.650 angstrom
                   Q00  =  -0.082302

C          x = -0.373229  y = -1.010138  z =  0.057794 angstrom
           Maximum rank =  0   Radius =  0.650 angstrom
                   Q00  =   0.014408

C          x = -1.631229  y =  0.585862  z =  1.341794 angstrom
           Maximum rank =  0   Radius =  0.650 angstrom
                   Q00  =  -0.095475

C          x =  0.753771  y = -0.766138  z =  0.831794 angstrom
           Maximum rank =  0   Radius =  0.650 angstrom
                   Q00  =  -0.102857

C          x = -0.506229  y =  0.834862  z =  2.119794 angstrom
           Maximum rank =  0   Radius =  0.650 angstrom
                   Q00  =  -0.050212

C          x =  0.683771  y =  0.164862  z =  1.861794 angstrom
           Maximum rank =  0   Radius =  0.650 angstrom
                   Q00  =  -0.088939

H          x = -2.430229  y = -0.571138  z = -0.278206 angstrom
           Maximum rank =  0   Radius =  0.325 angstrom
                   Q00  =   0.064541

H          x = -0.327229  y = -1.727138  z = -0.749206 angstrom
           Maximum rank =  0   Radius =  0.325 angstrom
                   Q00  =   0.057233

H          x = -2.556229  y =  1.102862  z =  1.555794 angstrom
           Maximum rank =  0   Radius =  0.325 angstrom
                   Q00  =   0.061196

H          x = -0.552229  y =  1.555862  z =  2.921794 angstrom
           Maximum rank =  0   Radius =  0.325 angstrom
                   Q00  =   0.064718

H          x =  2.861771  y = -0.817138  z =  0.817794 angstrom
           Maximum rank =  0   Radius =  0.325 angstrom
                   Q00  =   0.095924

H          x =  2.122771  y = -1.693138  z = -0.514206 angstrom
           Maximum rank =  0   Radius =  0.325 angstrom
                   Q00  =   0.098645

H          x =  1.552771  y =  0.372862  z =  2.467794 angstrom
           Maximum rank =  0   Radius =  0.325 angstrom
                   Q00  =   0.057083

H          x =  2.153084  y = -2.444121  z =  1.076804 angstrom
           Maximum rank =  0   Radius =  0.325 angstrom
                   Q00  =   0.105327

C          x = -0.376229  y =  1.463862  z = -2.882206 angstrom
           Maximum rank =  0   Radius =  0.650 angstrom
                   Q00  =  -0.234049

C          x =  0.659771  y =  0.428862  z = -3.261206 angstrom
           Maximum rank =  0   Radius =  0.650 angstrom
                   Q00  =  -0.231486

H          x = -0.855229  y =  1.175862  z = -1.948206 angstrom
           Maximum rank =  0   Radius =  0.325 angstrom
                   Q00  =   0.096851

H          x =  0.111771  y =  2.425862  z = -2.727206 angstrom
           Maximum rank =  0   Radius =  0.325 angstrom
                   Q00  =   0.073868

H          x = -1.095229  y =  1.582862  z = -3.685206 angstrom
           Maximum rank =  0   Radius =  0.325 angstrom
                   Q00  =   0.072559

H          x =  0.187771  y = -0.553138  z = -3.273206 angstrom
           Maximum rank =  0   Radius =  0.325 angstrom
                   Q00  =   0.070674

H          x =  1.080042  y =  0.648008  z = -4.253856 angstrom
           Maximum rank =  0   Radius =  0.325 angstrom
                   Q00  =   0.074508

H          x =  1.473913  y =  0.420909  z = -2.521536 angstrom
           Maximum rank =  0   Radius =  0.325 angstrom
                   Q00  =   0.078075

Total multipoles referred to origin at
           x =   0.000000,  y =    0.000000,  z =    0.000000 angstrom
                   Q00  =  -0.000000

Finished at 20:32:4 on 28 Apr 2020

  DMA results are available in the Python driver through the
	  variable('DMA DISTRIBUTED MULTIPOLES')
  and
	  variable('DMA TOTAL MULTIPOLES')
  commands.

    Psi4 stopped on: Tuesday, 28 April 2020 08:32PM
    Psi4 wall time for execution: 0:02:11.33

*** Psi4 exiting successfully. Buy a developer a beer!
