                               Psi4 1.3.2 release

  ==> Input File <==

--------------------------------------------------------------------------
import numpy as np
set {scf_type pk
basis cc-pvdz
d_convergence 10
gdma_switch   0
gdma_limit    0
gdma_origin   [ 0.0,  0.0,  0.0 ]
}
molecule test {
    units Angstrom
    0 1
    --
    0 1
    C                2.485532873348153    -0.531707068796351     1.335187366320371
    C                0.201532873348153    -0.677707068796351     0.084187366320371
    C                1.098532873348152    -1.038707068796351     1.138187366320371
    C               -1.027467126651847    -1.342707068796351     0.308187366320371
    C                0.390532873348153    -1.840707068796351     1.964187366320371
    C               -0.744467126651848     0.244292931203649    -1.910812633679629
    C               -1.950467126651847    -0.395707068796351    -1.659812633679630
    C                0.330532873348153     0.123292931203649    -1.045812633679629
    C               -2.113467126651848    -1.192707068796351    -0.548812633679629
    N               -0.885467126651847    -2.032707068796352     1.488187366320371
    H               -0.651467126651848     0.868292931203649    -2.789812633679630
    H               -2.774467126651848    -0.272707068796351    -2.347812633679629
    H                1.253532873348152     0.646292931203649    -1.237812633679629
    H               -3.059467126651847    -1.668707068796351    -0.348812633679629
    H                2.384532873348153     0.454292931203649     1.790187366320370
    H                2.941532873348153    -0.378707068796351     0.357187366320371
    H                0.777532873348152    -2.318707068796351     2.844187366320371
    H               -1.647467126651847    -2.365707068796351     2.056187366320371
    H                3.162542873348152    -1.121927068796351     1.970247366320371
    C                0.149532873348153     3.852292931203649    -0.895812633679629
    C                1.581532873348153     3.770292931203649    -0.375812633679629
    H                0.148532873348153     4.232292931203649    -1.911812633679630
    H               -0.309467126651847     2.865292931203649    -0.892812633679629
    H               -0.444467126651847     4.517292931203649    -0.269812633679629
    H                2.148532873348152     3.075292931203649    -0.994812633679629
    H                2.040012873348153     4.769032931203649    -0.423882633679629
    H                1.548142873348152     3.389252931203649     0.655537366320371

}
e, wfn = energy('scf', return_wfn=True)
gdma(wfn)
dmavals = variable('DMA DISTRIBUTED MULTIPOLES')
charges = np.array(dmavals)
print(charges)
np.save('SSI-063TRP-098LEU-1-dimer.npy', np.array(charges))--------------------------------------------------------------------------

*** tstart() called on ds3
*** at Mon Apr 27 13:18:02 2020

   => Loading Basis Set <=

    Name: CC-PVDZ
    Role: ORBITAL
    Keyword: BASIS
    atoms 1-9, 20-21   entry C          line   138 file /theoryfs2/ds/metcalf/miniconda2/envs/tf2gpu/share/psi4/basis/cc-pvdz.gbs
    atoms 10           entry N          line   168 file /theoryfs2/ds/metcalf/miniconda2/envs/tf2gpu/share/psi4/basis/cc-pvdz.gbs
    atoms 11-19, 22-27 entry H          line    22 file /theoryfs2/ds/metcalf/miniconda2/envs/tf2gpu/share/psi4/basis/cc-pvdz.gbs

         ---------------------------------------------------------
                                   SCF
               by Justin Turney, Rob Parrish, Andy Simmonett
                          and Daniel G. A. Smith
                              RHF Reference
                        1 Threads,    500 MiB Core
         ---------------------------------------------------------

  ==> Geometry <==

    Molecular point group: c1
    Full point group: C1

    Geometry (in Angstrom), charge = 0, multiplicity = 1:

       Center              X                  Y                   Z               Mass
    ------------   -----------------  -----------------  -----------------  -----------------
         C            2.485532873348    -0.531707068796     1.335187366320    12.000000000000
         C            0.201532873348    -0.677707068796     0.084187366320    12.000000000000
         C            1.098532873348    -1.038707068796     1.138187366320    12.000000000000
         C           -1.027467126652    -1.342707068796     0.308187366320    12.000000000000
         C            0.390532873348    -1.840707068796     1.964187366320    12.000000000000
         C           -0.744467126652     0.244292931204    -1.910812633680    12.000000000000
         C           -1.950467126652    -0.395707068796    -1.659812633680    12.000000000000
         C            0.330532873348     0.123292931204    -1.045812633680    12.000000000000
         C           -2.113467126652    -1.192707068796    -0.548812633680    12.000000000000
         N           -0.885467126652    -2.032707068796     1.488187366320    14.003074004430
         H           -0.651467126652     0.868292931204    -2.789812633680     1.007825032230
         H           -2.774467126652    -0.272707068796    -2.347812633680     1.007825032230
         H            1.253532873348     0.646292931204    -1.237812633680     1.007825032230
         H           -3.059467126652    -1.668707068796    -0.348812633680     1.007825032230
         H            2.384532873348     0.454292931204     1.790187366320     1.007825032230
         H            2.941532873348    -0.378707068796     0.357187366320     1.007825032230
         H            0.777532873348    -2.318707068796     2.844187366320     1.007825032230
         H           -1.647467126652    -2.365707068796     2.056187366320     1.007825032230
         H            3.162542873348    -1.121927068796     1.970247366320     1.007825032230
         C            0.149532873348     3.852292931204    -0.895812633680    12.000000000000
         C            1.581532873348     3.770292931204    -0.375812633680    12.000000000000
         H            0.148532873348     4.232292931204    -1.911812633680     1.007825032230
         H           -0.309467126652     2.865292931204    -0.892812633680     1.007825032230
         H           -0.444467126652     4.517292931204    -0.269812633680     1.007825032230
         H            2.148532873348     3.075292931204    -0.994812633680     1.007825032230
         H            2.040012873348     4.769032931204    -0.423882633680     1.007825032230
         H            1.548142873348     3.389252931204     0.655537366320     1.007825032230

  Running in c1 symmetry.

  Rotational constants: A =      0.03605  B =      0.02143  C =      0.01497 [cm^-1]
  Rotational constants: A =   1080.81074  B =    642.59621  C =    448.65197 [MHz]
  Nuclear repulsion =  659.408283833148630

  Charge       = 0
  Multiplicity = 1
  Electrons    = 88
  Nalpha       = 44
  Nbeta        = 44

  ==> Algorithm <==

  SCF Algorithm Type is PK.
  DIIS enabled.
  MOM disabled.
  Fractional occupation disabled.
  Guess Type is SAD.
  Energy threshold   = 1.00e-06
  Density threshold  = 1.00e-10
  Integral threshold = 0.00e+00

  ==> Primary Basis <==

  Basis Set: CC-PVDZ
    Blend: CC-PVDZ
    Number of shells: 117
    Number of basis function: 243
    Number of Cartesian functions: 255
    Spherical Harmonics?: true
    Max angular momentum: 2

  ==> Pre-Iterations <==

   -------------------------------------------------------
    Irrep   Nso     Nmo     Nalpha   Nbeta   Ndocc  Nsocc
   -------------------------------------------------------
     A        243     243       0       0       0       0
   -------------------------------------------------------
    Total     243     243      44      44      44       0
   -------------------------------------------------------

  ==> Integral Setup <==

  Using integral reordering PK algorithm.
  Sizing the integral batches needed.
  Building batch lookup table.
   Calculation information:
      Number of atoms:                  27
      Number of AO shells:             117
      Number of primitives:            339
      Number of atomic orbitals:       255
      Number of basis functions:       243

      Integral cutoff                 1.00e-12
      Number of threads:                 1

	Batch   1 pq = [       0,    9405] index = [             0,44231715] size =     44231715
	Batch   2 pq = [    9405,   13301] index = [      44231715,88464951] size =     44233236
	Batch   3 pq = [   13301,   16290] index = [      88464951,132690195] size =     44225244
	Batch   4 pq = [   16290,   18810] index = [     132690195,176917455] size =     44227260
	Batch   5 pq = [   18810,   21030] index = [     176917455,221140965] size =     44223510
	Batch   6 pq = [   21030,   23037] index = [     221140965,265363203] size =     44222238
	Batch   7 pq = [   23037,   24883] index = [     265363203,309594286] size =     44231083
	Batch   8 pq = [   24883,   26601] index = [     309594286,353819901] size =     44225615
	Batch   9 pq = [   26601,   28214] index = [     353819901,398029005] size =     44209104
	Batch  10 pq = [   28214,   29646] index = [     398029005,439457481] size =     41428476
  Task number: 40
  Buffer size: 11059200
  Buffer per thread: 2
  We computed 23227967 shell quartets total.
  Whereas there are 23829156 unique shell quartets.

  ==> DiskJK: Disk-Based J/K Matrices <==

    J tasked:                  Yes
    K tasked:                  Yes
    wK tasked:                  No
    Memory [MiB]:              375
    Schwarz Cutoff:          1E-12

    OpenMP threads:              1

  Minimum eigenvalue in the overlap matrix is 2.3178061315E-04.
  Using Symmetric Orthogonalization.

  SCF Guess: Superposition of Atomic Densities via on-the-fly atomic UHF.

  ==> Iterations <==

                        Total Energy        Delta E     RMS |[F,P]|

   @RHF iter SAD:  -479.17764019645108   -4.79178e+02   0.00000e+00
   @RHF iter   1:  -479.48375751000856   -3.06117e-01   2.62397e-03 DIIS
   @RHF iter   2:  -479.71827544749203   -2.34518e-01   1.16699e-03 DIIS
   @RHF iter   3:  -479.76066150815313   -4.23861e-02   3.04070e-04 DIIS
   @RHF iter   4:  -479.76447673542611   -3.81523e-03   1.41526e-04 DIIS
   @RHF iter   5:  -479.76514503675298   -6.68301e-04   1.99645e-05 DIIS
   @RHF iter   6:  -479.76517488622346   -2.98495e-05   9.03519e-06 DIIS
   @RHF iter   7:  -479.76518083045227   -5.94423e-06   3.81458e-06 DIIS
   @RHF iter   8:  -479.76518249703554   -1.66658e-06   1.45467e-06 DIIS
   @RHF iter   9:  -479.76518280839247   -3.11357e-07   6.33387e-07 DIIS
   @RHF iter  10:  -479.76518286789877   -5.95063e-08   2.89796e-07 DIIS
   @RHF iter  11:  -479.76518288250321   -1.46044e-08   1.08572e-07 DIIS
   @RHF iter  12:  -479.76518288456555   -2.06234e-09   3.75732e-08 DIIS
   @RHF iter  13:  -479.76518288472852   -1.62970e-10   1.11317e-08 DIIS
   @RHF iter  14:  -479.76518288473812   -9.60654e-12   5.08380e-09 DIIS
   @RHF iter  15:  -479.76518288473875   -6.25278e-13   2.55253e-09 DIIS
   @RHF iter  16:  -479.76518288474620   -7.44649e-12   1.01769e-09 DIIS
   @RHF iter  17:  -479.76518288474165    4.54747e-12   4.19938e-10 DIIS
   @RHF iter  18:  -479.76518288474409   -2.44427e-12   1.60378e-10 DIIS
   @RHF iter  19:  -479.76518288473687    7.21911e-12   5.94785e-11 DIIS
  Energy and wave function converged.

  ==> Post-Iterations <==

    Orbital Energies [Eh]
    ---------------------

    Doubly Occupied:

       1A    -15.597260     2A    -11.263824     3A    -11.259414
       4A    -11.229600     5A    -11.228513     6A    -11.227163
       7A    -11.226792     8A    -11.219761     9A    -11.219111
      10A    -11.217021    11A    -11.214437    12A    -11.205565
      13A     -1.294966    14A     -1.133546    15A     -1.077480
      16A     -1.013282    17A     -0.999263    18A     -0.990153
      19A     -0.934436    20A     -0.841401    21A     -0.829003
      22A     -0.805486    23A     -0.754927    24A     -0.721104
      25A     -0.661463    26A     -0.644736    27A     -0.608884
      28A     -0.601059    29A     -0.593752    30A     -0.588673
      31A     -0.586338    32A     -0.571184    33A     -0.551424
      34A     -0.538078    35A     -0.526397    36A     -0.495024
      37A     -0.491834    38A     -0.482700    39A     -0.479592
      40A     -0.474433    41A     -0.461824    42A     -0.373867
      43A     -0.296862    44A     -0.277122

    Virtual:

      45A      0.126279    46A      0.165613    47A      0.171423
      48A      0.184381    49A      0.197967    50A      0.210531
      51A      0.214718    52A      0.225935    53A      0.233512
      54A      0.252317    55A      0.256155    56A      0.269475
      57A      0.271399    58A      0.279766    59A      0.290936
      60A      0.313268    61A      0.332966    62A      0.345658
      63A      0.375802    64A      0.385900    65A      0.403069
      66A      0.408482    67A      0.424249    68A      0.444578
      69A      0.476452    70A      0.484223    71A      0.500028
      72A      0.511663    73A      0.595832    74A      0.603921
      75A      0.609827    76A      0.618546    77A      0.623469
      78A      0.627732    79A      0.640199    80A      0.668874
      81A      0.686454    82A      0.694193    83A      0.698068
      84A      0.708617    85A      0.719976    86A      0.731757
      87A      0.738873    88A      0.745231    89A      0.754429
      90A      0.763608    91A      0.773898    92A      0.789838
      93A      0.794575    94A      0.800111    95A      0.826108
      96A      0.842260    97A      0.852441    98A      0.865428
      99A      0.869407   100A      0.883620   101A      0.889225
     102A      0.893325   103A      0.903697   104A      0.912632
     105A      0.918179   106A      0.923820   107A      0.929080
     108A      0.931226   109A      0.951936   110A      0.958931
     111A      0.974964   112A      0.980348   113A      0.999003
     114A      1.004315   115A      1.017429   116A      1.028220
     117A      1.054786   118A      1.069609   119A      1.096766
     120A      1.123588   121A      1.130725   122A      1.139160
     123A      1.146935   124A      1.150927   125A      1.171506
     126A      1.185750   127A      1.209289   128A      1.229279
     129A      1.232674   130A      1.241818   131A      1.254592
     132A      1.266907   133A      1.278203   134A      1.291564
     135A      1.322606   136A      1.332325   137A      1.339140
     138A      1.353809   139A      1.381955   140A      1.411670
     141A      1.452001   142A      1.490810   143A      1.493018
     144A      1.537703   145A      1.549671   146A      1.573434
     147A      1.576938   148A      1.599706   149A      1.629999
     150A      1.639327   151A      1.658861   152A      1.689468
     153A      1.693776   154A      1.703279   155A      1.705988
     156A      1.738917   157A      1.770008   158A      1.775643
     159A      1.799248   160A      1.805751   161A      1.829576
     162A      1.839709   163A      1.864963   164A      1.872050
     165A      1.884305   166A      1.892982   167A      1.897700
     168A      1.907519   169A      1.918396   170A      1.923530
     171A      1.933268   172A      1.945857   173A      1.951247
     174A      1.960074   175A      1.961227   176A      1.975948
     177A      1.980533   178A      1.982950   179A      1.995952
     180A      2.001740   181A      2.014913   182A      2.035202
     183A      2.057153   184A      2.065338   185A      2.090361
     186A      2.100239   187A      2.112301   188A      2.121706
     189A      2.125559   190A      2.132065   191A      2.139505
     192A      2.146701   193A      2.169553   194A      2.180299
     195A      2.190882   196A      2.237773   197A      2.243511
     198A      2.280895   199A      2.287901   200A      2.307189
     201A      2.321501   202A      2.329465   203A      2.341565
     204A      2.364924   205A      2.397729   206A      2.438363
     207A      2.450701   208A      2.468904   209A      2.474960
     210A      2.479276   211A      2.552958   212A      2.576666
     213A      2.577294   214A      2.591194   215A      2.593688
     216A      2.648245   217A      2.662381   218A      2.686551
     219A      2.736071   220A      2.760075   221A      2.773610
     222A      2.776079   223A      2.785849   224A      2.804675
     225A      2.821595   226A      2.843759   227A      2.854567
     228A      2.859446   229A      2.870239   230A      2.890559
     231A      2.947479   232A      2.971842   233A      2.981674
     234A      3.017362   235A      3.049738   236A      3.071031
     237A      3.097487   238A      3.133007   239A      3.225757
     240A      3.328446   241A      3.380263   242A      3.714925
     243A      3.975287

    Final Occupation by Irrep:
              A
    DOCC [    44 ]

  @RHF Final Energy:  -479.76518288473687

   => Energetics <=

    Nuclear Repulsion Energy =            659.4082838331486300
    One-Electron Energy =               -1956.7294247691579585
    Two-Electron Energy =                 817.5559580512723414
    Total Energy =                       -479.7651828847368733

Computation Completed

Properties will be evaluated at   0.000000,   0.000000,   0.000000 [a0]

Properties computed using the SCF density matrix

  Nuclear Dipole Moment: [e a0]
     X:     7.0506      Y:    15.6531      Z:    -1.4516

  Electronic Dipole Moment: [e a0]
     X:    -7.3046      Y:   -16.0070      Z:     2.1373

  Dipole Moment: [e a0]
     X:    -0.2541      Y:    -0.3539      Z:     0.6856     Total:     0.8124

  Dipole Moment: [D]
     X:    -0.6458      Y:    -0.8996      Z:     1.7427     Total:     2.0648

*** tstop() called on ds3 at Mon Apr 27 13:22:38 2020
Module time:
	user time   =     198.64 seconds =       3.31 minutes
	system time =      89.65 seconds =       1.49 minutes
	total time  =        276 seconds =       4.60 minutes
Total time:
	user time   =     198.64 seconds =       3.31 minutes
	system time =      89.65 seconds =       1.49 minutes
	total time  =        276 seconds =       4.60 minutes
                                     G D M A

                                 by Anthony Stone

                           version 2.2.06, 22 June 2011

               Distributed Multipoles from Gaussian wavefunctions

Starting at 13:22:38 on 27 Apr 2020

Using SCF density matrix from file ./SSI/SSI-063TRP-098LEU-1-dimer.test.6050.fchk

                         Distributed Multipole Analysis

Standard DMA

Positions and radii in angstrom
Multipole moments in atomic units, ea_0^k for rank k

C          x =  2.485533  y = -0.531707  z =  1.335187 angstrom
           Maximum rank =  0   Radius =  0.650 angstrom
                   Q00  =  -0.216754

C          x =  0.201533  y = -0.677707  z =  0.084187 angstrom
           Maximum rank =  0   Radius =  0.650 angstrom
                   Q00  =  -0.057893

C          x =  1.098533  y = -1.038707  z =  1.138187 angstrom
           Maximum rank =  0   Radius =  0.650 angstrom
                   Q00  =  -0.106246

C          x = -1.027467  y = -1.342707  z =  0.308187 angstrom
           Maximum rank =  0   Radius =  0.650 angstrom
                   Q00  =   0.258180

C          x =  0.390533  y = -1.840707  z =  1.964187 angstrom
           Maximum rank =  0   Radius =  0.650 angstrom
                   Q00  =   0.073404

C          x = -0.744467  y =  0.244293  z = -1.910813 angstrom
           Maximum rank =  0   Radius =  0.650 angstrom
                   Q00  =  -0.056003

C          x = -1.950467  y = -0.395707  z = -1.659813 angstrom
           Maximum rank =  0   Radius =  0.650 angstrom
                   Q00  =  -0.061401

C          x =  0.330533  y =  0.123293  z = -1.045813 angstrom
           Maximum rank =  0   Radius =  0.650 angstrom
                   Q00  =  -0.101556

C          x = -2.113467  y = -1.192707  z = -0.548813 angstrom
           Maximum rank =  0   Radius =  0.650 angstrom
                   Q00  =  -0.116814

N          x = -0.885467  y = -2.032707  z =  1.488187 angstrom
           Maximum rank =  0   Radius =  0.650 angstrom
                   Q00  =  -0.495006

H          x = -0.651467  y =  0.868293  z = -2.789813 angstrom
           Maximum rank =  0   Radius =  0.325 angstrom
                   Q00  =   0.057749

H          x = -2.774467  y = -0.272707  z = -2.347813 angstrom
           Maximum rank =  0   Radius =  0.325 angstrom
                   Q00  =   0.062788

H          x =  1.253533  y =  0.646293  z = -1.237813 angstrom
           Maximum rank =  0   Radius =  0.325 angstrom
                   Q00  =   0.068361

H          x = -3.059467  y = -1.668707  z = -0.348813 angstrom
           Maximum rank =  0   Radius =  0.325 angstrom
                   Q00  =   0.071984

H          x =  2.384533  y =  0.454293  z =  1.790187 angstrom
           Maximum rank =  0   Radius =  0.325 angstrom
                   Q00  =   0.096903

H          x =  2.941533  y = -0.378707  z =  0.357187 angstrom
           Maximum rank =  0   Radius =  0.325 angstrom
                   Q00  =   0.103244

H          x =  0.777533  y = -2.318707  z =  2.844187 angstrom
           Maximum rank =  0   Radius =  0.325 angstrom
                   Q00  =   0.098854

H          x = -1.647467  y = -2.365707  z =  2.056187 angstrom
           Maximum rank =  0   Radius =  0.325 angstrom
                   Q00  =   0.211148

H          x =  3.162543  y = -1.121927  z =  1.970247 angstrom
           Maximum rank =  0   Radius =  0.325 angstrom
                   Q00  =   0.109609

C          x =  0.149533  y =  3.852293  z = -0.895813 angstrom
           Maximum rank =  0   Radius =  0.650 angstrom
                   Q00  =  -0.239913

C          x =  1.581533  y =  3.770293  z = -0.375813 angstrom
           Maximum rank =  0   Radius =  0.650 angstrom
                   Q00  =  -0.236320

H          x =  0.148533  y =  4.232293  z = -1.911813 angstrom
           Maximum rank =  0   Radius =  0.325 angstrom
                   Q00  =   0.071476

H          x = -0.309467  y =  2.865293  z = -0.892813 angstrom
           Maximum rank =  0   Radius =  0.325 angstrom
                   Q00  =   0.098921

H          x = -0.444467  y =  4.517293  z = -0.269813 angstrom
           Maximum rank =  0   Radius =  0.325 angstrom
                   Q00  =   0.076081

H          x =  2.148533  y =  3.075293  z = -0.994813 angstrom
           Maximum rank =  0   Radius =  0.325 angstrom
                   Q00  =   0.073981

H          x =  2.040013  y =  4.769033  z = -0.423883 angstrom
           Maximum rank =  0   Radius =  0.325 angstrom
                   Q00  =   0.077024

H          x =  1.548143  y =  3.389253  z =  0.655537 angstrom
           Maximum rank =  0   Radius =  0.325 angstrom
                   Q00  =   0.078200

Total multipoles referred to origin at
           x =   0.000000,  y =    0.000000,  z =    0.000000 angstrom
                   Q00  =  -0.000000

Finished at 13:22:38 on 27 Apr 2020

  DMA results are available in the Python driver through the
	  variable('DMA DISTRIBUTED MULTIPOLES')
  and
	  variable('DMA TOTAL MULTIPOLES')
  commands.

    Psi4 stopped on: Monday, 27 April 2020 01:22PM
    Psi4 wall time for execution: 0:04:36.31

*** Psi4 exiting successfully. Buy a developer a beer!
