                               Psi4 1.3.2 release

  ==> Input File <==

--------------------------------------------------------------------------
import numpy as np
set {scf_type pk
basis cc-pvdz
d_convergence 10
gdma_switch   0
gdma_limit    0
gdma_origin   [ 0.0,  0.0,  0.0 ]
}
molecule test {
    units Angstrom
    -1 1
    --
    -1 1
    C                2.521597245290073     4.467889157013716     0.792399966540255
    C                0.934597245290074     0.642889157013716    -0.497600033459745
    C                0.070597245290074     1.645889157013716    -0.049600033459745
    C                2.312597245290074     0.870889157013716    -0.515600033459745
    C                0.588597245290074     2.877889157013716     0.376399966540255
    C                2.823597245290074     2.104889157013716    -0.084600033459745
    C                1.967597245290074     3.121889157013716     0.361399966540255
    O                0.436597245290074    -0.550110842986284    -0.932600033459745
    H               -0.520402754709926    -0.635110842986284    -0.728600033459745
    H               -0.994402754709926     1.467889157013716    -0.036600033459745
    H                2.973597245290074     0.096889157013716    -0.876600033459745
    H               -0.088402754709926     3.650889157013716     0.718399966540255
    H                3.893597245290074     2.265889157013716    -0.093600033459745
    H                3.529597245290073     4.312889157013717     1.178399966540254
    H                1.928597245290074     4.845889157013716     1.626399966540255
    H                2.570137245290073     5.216609157013717    -0.012000033459745
    C               -1.142402754709926    -3.164110842986284     0.295399966540255
    C               -1.613402754709926    -4.544110842986284     0.755399966540255
    C               -2.303402754709926    -2.258110842986284    -0.055600033459745
    O               -3.449402754709926    -2.742110842986284    -0.047600033459745
    O               -2.052402754709926    -1.069110842986284    -0.353600033459745
    H               -0.520402754709926    -2.701110842986284     1.064399966540254
    H               -0.531402754709926    -3.273110842986284    -0.601600033459745
    H               -2.570402754709926    -4.794110842986284     0.301399966540255
    H               -1.698252754709926    -4.575650842986284     1.851669966540255
    H               -0.929062754709926    -5.313820842986283     0.369099966540255

}
e, wfn = energy('scf', return_wfn=True)
gdma(wfn)
dmavals = variable('DMA DISTRIBUTED MULTIPOLES')
charges = np.array(dmavals)
print(charges)
np.save('SSI-053TYR-083ASP-1-dimer.npy', np.array(charges))--------------------------------------------------------------------------

*** tstart() called on ds3
*** at Sun Apr 26 22:36:47 2020

   => Loading Basis Set <=

    Name: CC-PVDZ
    Role: ORBITAL
    Keyword: BASIS
    atoms 1-7, 17-19  entry C          line   138 file /theoryfs2/ds/metcalf/miniconda2/envs/tf2gpu/share/psi4/basis/cc-pvdz.gbs
    atoms 8, 20-21    entry O          line   198 file /theoryfs2/ds/metcalf/miniconda2/envs/tf2gpu/share/psi4/basis/cc-pvdz.gbs
    atoms 9-16, 22-26 entry H          line    22 file /theoryfs2/ds/metcalf/miniconda2/envs/tf2gpu/share/psi4/basis/cc-pvdz.gbs

         ---------------------------------------------------------
                                   SCF
               by Justin Turney, Rob Parrish, Andy Simmonett
                          and Daniel G. A. Smith
                              RHF Reference
                        1 Threads,    500 MiB Core
         ---------------------------------------------------------

  ==> Geometry <==

    Molecular point group: c1
    Full point group: C1

    Geometry (in Angstrom), charge = -1, multiplicity = 1:

       Center              X                  Y                   Z               Mass
    ------------   -----------------  -----------------  -----------------  -----------------
         C            2.521597245290     4.467889157014     0.792399966540    12.000000000000
         C            0.934597245290     0.642889157014    -0.497600033460    12.000000000000
         C            0.070597245290     1.645889157014    -0.049600033460    12.000000000000
         C            2.312597245290     0.870889157014    -0.515600033460    12.000000000000
         C            0.588597245290     2.877889157014     0.376399966540    12.000000000000
         C            2.823597245290     2.104889157014    -0.084600033460    12.000000000000
         C            1.967597245290     3.121889157014     0.361399966540    12.000000000000
         O            0.436597245290    -0.550110842986    -0.932600033460    15.994914619570
         H           -0.520402754710    -0.635110842986    -0.728600033460     1.007825032230
         H           -0.994402754710     1.467889157014    -0.036600033460     1.007825032230
         H            2.973597245290     0.096889157014    -0.876600033460     1.007825032230
         H           -0.088402754710     3.650889157014     0.718399966540     1.007825032230
         H            3.893597245290     2.265889157014    -0.093600033460     1.007825032230
         H            3.529597245290     4.312889157014     1.178399966540     1.007825032230
         H            1.928597245290     4.845889157014     1.626399966540     1.007825032230
         H            2.570137245290     5.216609157014    -0.012000033460     1.007825032230
         C           -1.142402754710    -3.164110842986     0.295399966540    12.000000000000
         C           -1.613402754710    -4.544110842986     0.755399966540    12.000000000000
         C           -2.303402754710    -2.258110842986    -0.055600033460    12.000000000000
         O           -3.449402754710    -2.742110842986    -0.047600033460    15.994914619570
         O           -2.052402754710    -1.069110842986    -0.353600033460    15.994914619570
         H           -0.520402754710    -2.701110842986     1.064399966540     1.007825032230
         H           -0.531402754710    -3.273110842986    -0.601600033460     1.007825032230
         H           -2.570402754710    -4.794110842986     0.301399966540     1.007825032230
         H           -1.698252754710    -4.575650842986     1.851669966540     1.007825032230
         H           -0.929062754710    -5.313820842986     0.369099966540     1.007825032230

  Running in c1 symmetry.

  Rotational constants: A =      0.07188  B =      0.00884  C =      0.00827 [cm^-1]
  Rotational constants: A =   2154.93590  B =    265.10459  C =    247.80984 [MHz]
  Nuclear repulsion =  729.621401201350636

  Charge       = -1
  Multiplicity = 1
  Electrons    = 98
  Nalpha       = 49
  Nbeta        = 49

  ==> Algorithm <==

  SCF Algorithm Type is PK.
  DIIS enabled.
  MOM disabled.
  Fractional occupation disabled.
  Guess Type is SAD.
  Energy threshold   = 1.00e-06
  Density threshold  = 1.00e-10
  Integral threshold = 0.00e+00

  ==> Primary Basis <==

  Basis Set: CC-PVDZ
    Blend: CC-PVDZ
    Number of shells: 117
    Number of basis function: 247
    Number of Cartesian functions: 260
    Spherical Harmonics?: true
    Max angular momentum: 2

  ==> Pre-Iterations <==

   -------------------------------------------------------
    Irrep   Nso     Nmo     Nalpha   Nbeta   Ndocc  Nsocc
   -------------------------------------------------------
     A        247     247       0       0       0       0
   -------------------------------------------------------
    Total     247     247      49      49      49       0
   -------------------------------------------------------

  ==> Integral Setup <==

  Using integral reordering PK algorithm.
  Sizing the integral batches needed.
  Building batch lookup table.
   Calculation information:
      Number of atoms:                  26
      Number of AO shells:             117
      Number of primitives:            351
      Number of atomic orbitals:       260
      Number of basis functions:       247

      Integral cutoff                 1.00e-12
      Number of threads:                 1

	Batch   1 pq = [       0,    9405] index = [             0,44231715] size =     44231715
	Batch   2 pq = [    9405,   13301] index = [      44231715,88464951] size =     44233236
	Batch   3 pq = [   13301,   16290] index = [      88464951,132690195] size =     44225244
	Batch   4 pq = [   16290,   18810] index = [     132690195,176917455] size =     44227260
	Batch   5 pq = [   18810,   21030] index = [     176917455,221140965] size =     44223510
	Batch   6 pq = [   21030,   23037] index = [     221140965,265363203] size =     44222238
	Batch   7 pq = [   23037,   24883] index = [     265363203,309594286] size =     44231083
	Batch   8 pq = [   24883,   26601] index = [     309594286,353819901] size =     44225615
	Batch   9 pq = [   26601,   28214] index = [     353819901,398029005] size =     44209104
	Batch  10 pq = [   28214,   29740] index = [     398029005,442248670] size =     44219665
	Batch  11 pq = [   29740,   30628] index = [     442248670,469052506] size =     26803836
  Task number: 43
  Buffer size: 11059200
  Buffer per thread: 2
  We computed 17945333 shell quartets total.
  Whereas there are 23829156 unique shell quartets.

  ==> DiskJK: Disk-Based J/K Matrices <==

    J tasked:                  Yes
    K tasked:                  Yes
    wK tasked:                  No
    Memory [MiB]:              375
    Schwarz Cutoff:          1E-12

    OpenMP threads:              1

  Minimum eigenvalue in the overlap matrix is 3.3367414080E-04.
  Using Symmetric Orthogonalization.

  SCF Guess: Superposition of Atomic Densities via on-the-fly atomic UHF.

  ==> Iterations <==

                        Total Energy        Delta E     RMS |[F,P]|

   @RHF iter SAD:  -609.24356347475634   -6.09244e+02   0.00000e+00
   @RHF iter   1:  -610.58014616257083   -1.33658e+00   3.28726e-03 DIIS
   @RHF iter   2:  -610.86735228577720   -2.87206e-01   1.67807e-03 DIIS
   @RHF iter   3:  -610.93349571819044   -6.61434e-02   3.18947e-04 DIIS
   @RHF iter   4:  -610.93750788433124   -4.01217e-03   1.30231e-04 DIIS
   @RHF iter   5:  -610.93811054705441   -6.02663e-04   2.29256e-05 DIIS
   @RHF iter   6:  -610.93813822841958   -2.76814e-05   1.10785e-05 DIIS
   @RHF iter   7:  -610.93814376496846   -5.53655e-06   3.37413e-06 DIIS
   @RHF iter   8:  -610.93814495955598   -1.19459e-06   1.49922e-06 DIIS
   @RHF iter   9:  -610.93814524220613   -2.82650e-07   6.64865e-07 DIIS
   @RHF iter  10:  -610.93814530789541   -6.56893e-08   2.86431e-07 DIIS
   @RHF iter  11:  -610.93814531951568   -1.16203e-08   1.17152e-07 DIIS
   @RHF iter  12:  -610.93814532135366   -1.83798e-09   4.50543e-08 DIIS
   @RHF iter  13:  -610.93814532160002   -2.46359e-10   1.59768e-08 DIIS
   @RHF iter  14:  -610.93814532163083   -3.08091e-11   6.86262e-09 DIIS
   @RHF iter  15:  -610.93814532162912    1.70530e-12   2.52576e-09 DIIS
   @RHF iter  16:  -610.93814532162617    2.95586e-12   1.01991e-09 DIIS
   @RHF iter  17:  -610.93814532163390   -7.73070e-12   3.26283e-10 DIIS
   @RHF iter  18:  -610.93814532163606   -2.16005e-12   1.11730e-10 DIIS
   @RHF iter  19:  -610.93814532163151    4.54747e-12   5.14412e-11 DIIS
  Energy and wave function converged.

  ==> Post-Iterations <==

    Orbital Energies [Eh]
    ---------------------

    Doubly Occupied:

       1A    -20.416955     2A    -20.306481     3A    -20.296309
       4A    -11.178977     5A    -11.148989     6A    -11.145010
       7A    -11.137607     8A    -11.134142     9A    -11.131538
      10A    -11.120478    11A    -11.113823    12A    -11.076676
      13A    -11.067603    14A     -1.240212    15A     -1.193401
      16A     -1.083118    17A     -1.036591    18A     -0.928765
      19A     -0.903738    20A     -0.883249    21A     -0.823169
      22A     -0.729039    23A     -0.717899    24A     -0.685382
      25A     -0.601684    26A     -0.551190    27A     -0.535168
      28A     -0.526679    29A     -0.498301    30A     -0.488743
      31A     -0.476512    32A     -0.475464    33A     -0.465056
      34A     -0.453919    35A     -0.437195    36A     -0.423447
      37A     -0.412241    38A     -0.389764    39A     -0.384307
      40A     -0.375118    41A     -0.358596    42A     -0.348656
      43A     -0.342734    44A     -0.325801    45A     -0.228763
      46A     -0.221627    47A     -0.211744    48A     -0.206512
      49A     -0.183762

    Virtual:

      50A      0.236287    51A      0.262001    52A      0.270513
      53A      0.304858    54A      0.316103    55A      0.322598
      56A      0.343347    57A      0.356823    58A      0.358218
      59A      0.370233    60A      0.381226    61A      0.399271
      62A      0.413740    63A      0.424219    64A      0.457639
      65A      0.466253    66A      0.478966    67A      0.488403
      68A      0.543224    69A      0.555575    70A      0.567710
      71A      0.588322    72A      0.598837    73A      0.609773
      74A      0.642458    75A      0.684302    76A      0.711086
      77A      0.727130    78A      0.728460    79A      0.755087
      80A      0.758052    81A      0.769688    82A      0.794333
      83A      0.802818    84A      0.805419    85A      0.813437
      86A      0.835993    87A      0.838290    88A      0.845797
      89A      0.849476    90A      0.874371    91A      0.895212
      92A      0.898314    93A      0.905169    94A      0.925260
      95A      0.940683    96A      0.948323    97A      0.955796
      98A      0.964825    99A      0.967031   100A      0.981794
     101A      0.989336   102A      0.994283   103A      1.006248
     104A      1.018956   105A      1.023928   106A      1.024589
     107A      1.033159   108A      1.034290   109A      1.038060
     110A      1.045974   111A      1.057265   112A      1.068468
     113A      1.082448   114A      1.097188   115A      1.119145
     116A      1.119805   117A      1.149324   118A      1.158489
     119A      1.200499   120A      1.228195   121A      1.251758
     122A      1.255561   123A      1.270721   124A      1.277327
     125A      1.308581   126A      1.310917   127A      1.341860
     128A      1.352539   129A      1.371875   130A      1.389821
     131A      1.398310   132A      1.413740   133A      1.432021
     134A      1.452309   135A      1.465302   136A      1.472758
     137A      1.492711   138A      1.516782   139A      1.549719
     140A      1.578241   141A      1.587287   142A      1.608308
     143A      1.619602   144A      1.623423   145A      1.643030
     146A      1.670548   147A      1.690511   148A      1.704875
     149A      1.743025   150A      1.777983   151A      1.791595
     152A      1.805348   153A      1.825495   154A      1.832603
     155A      1.835443   156A      1.849022   157A      1.856684
     158A      1.870060   159A      1.876541   160A      1.911230
     161A      1.918506   162A      1.943288   163A      1.977764
     164A      1.982084   165A      1.997912   166A      2.003991
     167A      2.011561   168A      2.012534   169A      2.035249
     170A      2.039783   171A      2.043423   172A      2.052955
     173A      2.063253   174A      2.073879   175A      2.086020
     176A      2.092661   177A      2.102792   178A      2.136219
     179A      2.144079   180A      2.148872   181A      2.157347
     182A      2.171140   183A      2.180084   184A      2.184172
     185A      2.209279   186A      2.235753   187A      2.239624
     188A      2.254153   189A      2.264566   190A      2.278458
     191A      2.316143   192A      2.327981   193A      2.340138
     194A      2.367624   195A      2.380313   196A      2.384276
     197A      2.400720   198A      2.421610   199A      2.429508
     200A      2.455901   201A      2.499094   202A      2.508501
     203A      2.521917   204A      2.563278   205A      2.570150
     206A      2.588899   207A      2.616708   208A      2.622232
     209A      2.659503   210A      2.685320   211A      2.697335
     212A      2.748450   213A      2.754131   214A      2.787959
     215A      2.842391   216A      2.857479   217A      2.881662
     218A      2.889832   219A      2.903081   220A      2.911602
     221A      2.926543   222A      2.956053   223A      2.985344
     224A      2.994026   225A      3.044048   226A      3.060195
     227A      3.099292   228A      3.104371   229A      3.181192
     230A      3.189400   231A      3.210809   232A      3.256709
     233A      3.296494   234A      3.376746   235A      3.408171
     236A      3.462695   237A      3.540204   238A      3.608165
     239A      3.724167   240A      3.767468   241A      3.798583
     242A      3.830246   243A      4.031020   244A      4.080961
     245A      4.098573   246A      4.174514   247A      4.430508

    Final Occupation by Irrep:
              A
    DOCC [    49 ]

  @RHF Final Energy:  -610.93814532163151

   => Energetics <=

    Nuclear Repulsion Energy =            729.6214012013506363
    One-Electron Energy =               -2296.2748312506673756
    Two-Electron Energy =                 955.7152847276852299
    Total Energy =                       -610.9381453216315094

Computation Completed

Properties will be evaluated at   0.000000,   0.000000,   0.000000 [a0]

Properties computed using the SCF density matrix

  Nuclear Dipole Moment: [e a0]
     X:     6.5781      Y:     0.5078      Z:     4.4567

  Electronic Dipole Moment: [e a0]
     X:    -2.9623      Y:     2.2205      Z:    -3.9037

  Dipole Moment: [e a0]
     X:     3.6157      Y:     2.7283      Z:     0.5530     Total:     4.5632

  Dipole Moment: [D]
     X:     9.1903      Y:     6.9346      Z:     1.4055     Total:    11.5985

*** tstop() called on ds3 at Sun Apr 26 22:43:50 2020
Module time:
	user time   =     153.54 seconds =       2.56 minutes
	system time =      75.08 seconds =       1.25 minutes
	total time  =        423 seconds =       7.05 minutes
Total time:
	user time   =     153.54 seconds =       2.56 minutes
	system time =      75.08 seconds =       1.25 minutes
	total time  =        423 seconds =       7.05 minutes
                                     G D M A

                                 by Anthony Stone

                           version 2.2.06, 22 June 2011

               Distributed Multipoles from Gaussian wavefunctions

Starting at 22:43:50 on 26 Apr 2020

Using SCF density matrix from file ./SSI/SSI-053TYR-083ASP-1-dimer.test.14538.fchk

                         Distributed Multipole Analysis

Standard DMA

Positions and radii in angstrom
Multipole moments in atomic units, ea_0^k for rank k

C          x =  2.521597  y =  4.467889  z =  0.792400 angstrom
           Maximum rank =  0   Radius =  0.650 angstrom
                   Q00  =  -0.197765

C          x =  0.934597  y =  0.642889  z = -0.497600 angstrom
           Maximum rank =  0   Radius =  0.650 angstrom
                   Q00  =   0.387374

C          x =  0.070597  y =  1.645889  z = -0.049600 angstrom
           Maximum rank =  0   Radius =  0.650 angstrom
                   Q00  =  -0.182377

C          x =  2.312597  y =  0.870889  z = -0.515600 angstrom
           Maximum rank =  0   Radius =  0.650 angstrom
                   Q00  =  -0.127489

C          x =  0.588597  y =  2.877889  z =  0.376400 angstrom
           Maximum rank =  0   Radius =  0.650 angstrom
                   Q00  =   0.022411

C          x =  2.823597  y =  2.104889  z = -0.084600 angstrom
           Maximum rank =  0   Radius =  0.650 angstrom
                   Q00  =  -0.025376

C          x =  1.967597  y =  3.121889  z =  0.361400 angstrom
           Maximum rank =  0   Radius =  0.650 angstrom
                   Q00  =  -0.157828

O          x =  0.436597  y = -0.550111  z = -0.932600 angstrom
           Maximum rank =  0   Radius =  0.650 angstrom
                   Q00  =  -0.792249

H          x = -0.520403  y = -0.635111  z = -0.728600 angstrom
           Maximum rank =  0   Radius =  0.325 angstrom
                   Q00  =   0.557532

H          x = -0.994403  y =  1.467889  z = -0.036600 angstrom
           Maximum rank =  0   Radius =  0.325 angstrom
                   Q00  =   0.096271

H          x =  2.973597  y =  0.096889  z = -0.876600 angstrom
           Maximum rank =  0   Radius =  0.325 angstrom
                   Q00  =   0.058671

H          x = -0.088403  y =  3.650889  z =  0.718400 angstrom
           Maximum rank =  0   Radius =  0.325 angstrom
                   Q00  =   0.046510

H          x =  3.893597  y =  2.265889  z = -0.093600 angstrom
           Maximum rank =  0   Radius =  0.325 angstrom
                   Q00  =   0.037868

H          x =  3.529597  y =  4.312889  z =  1.178400 angstrom
           Maximum rank =  0   Radius =  0.325 angstrom
                   Q00  =   0.080596

H          x =  1.928597  y =  4.845889  z =  1.626400 angstrom
           Maximum rank =  0   Radius =  0.325 angstrom
                   Q00  =   0.085891

H          x =  2.570137  y =  5.216609  z = -0.012000 angstrom
           Maximum rank =  0   Radius =  0.325 angstrom
                   Q00  =   0.083094

C          x = -1.142403  y = -3.164111  z =  0.295400 angstrom
           Maximum rank =  0   Radius =  0.650 angstrom
                   Q00  =  -0.179100

C          x = -1.613403  y = -4.544111  z =  0.755400 angstrom
           Maximum rank =  0   Radius =  0.650 angstrom
                   Q00  =  -0.232732

C          x = -2.303403  y = -2.258111  z = -0.055600 angstrom
           Maximum rank =  0   Radius =  0.650 angstrom
                   Q00  =   0.984199

O          x = -3.449403  y = -2.742111  z = -0.047600 angstrom
           Maximum rank =  0   Radius =  0.650 angstrom
                   Q00  =  -0.910693

O          x = -2.052403  y = -1.069111  z = -0.353600 angstrom
           Maximum rank =  0   Radius =  0.650 angstrom
                   Q00  =  -0.965027

H          x = -0.520403  y = -2.701111  z =  1.064400 angstrom
           Maximum rank =  0   Radius =  0.325 angstrom
                   Q00  =   0.056031

H          x = -0.531403  y = -3.273111  z = -0.601600 angstrom
           Maximum rank =  0   Radius =  0.325 angstrom
                   Q00  =   0.077156

H          x = -2.570403  y = -4.794111  z =  0.301400 angstrom
           Maximum rank =  0   Radius =  0.325 angstrom
                   Q00  =   0.109509

H          x = -1.698253  y = -4.575651  z =  1.851670 angstrom
           Maximum rank =  0   Radius =  0.325 angstrom
                   Q00  =   0.059422

H          x = -0.929063  y = -5.313821  z =  0.369100 angstrom
           Maximum rank =  0   Radius =  0.325 angstrom
                   Q00  =   0.028102

Total multipoles referred to origin at
           x =   0.000000,  y =    0.000000,  z =    0.000000 angstrom
                   Q00  =  -1.000000

Finished at 22:43:50 on 26 Apr 2020

  DMA results are available in the Python driver through the
	  variable('DMA DISTRIBUTED MULTIPOLES')
  and
	  variable('DMA TOTAL MULTIPOLES')
  commands.

    Psi4 stopped on: Sunday, 26 April 2020 10:43PM
    Psi4 wall time for execution: 0:07:02.85

*** Psi4 exiting successfully. Buy a developer a beer!
