                               Psi4 1.3.2 release

  ==> Input File <==

--------------------------------------------------------------------------
import numpy as np
set {scf_type pk
basis cc-pvdz
d_convergence 10
gdma_switch   0
gdma_limit    0
gdma_origin   [ 0.0,  0.0,  0.0 ]
}
molecule test {
    units Angstrom
    0 1
    --
    0 1
    C                1.968705877304497    -0.480981902236359    -0.600989314226655
    C                1.943705877304496    -1.979981902236359    -0.298989314226655
    C                2.685705877304497     0.426018097763641     0.403010685773345
    H                2.457705877304496    -0.353981902236359    -1.565989314226655
    H                0.951705877304496    -0.124981902236359    -0.717989314226655
    H                1.449705877304496    -2.124981902236359     0.660010685773345
    H                3.714705877304496     0.091018097763641     0.515010685773345
    H                2.967788877304496    -2.380578902236359    -0.271128314226655
    H                1.333647877304496    -2.490053902236359    -1.059026314226655
    H                2.707391877304496     1.453926097763641     0.011942685773345
    H                2.201211877304496     0.394924097763641     1.390076685773345
    C               -1.638294122695504     0.606018097763641     0.104010685773345
    C               -2.468294122695503     1.464018097763641    -0.834989314226655
    C               -2.466294122695504    -0.037981902236359     1.201010685773345
    H               -1.157294122695504    -0.174981902236359    -0.475989314226655
    H               -0.880294122695504     1.235018097763641     0.569010685773345
    H               -3.087294122695504     2.135018097763641    -0.237989314226655
    H               -2.936294122695504     0.757018097763641     1.785010685773345
    H               -3.272294122695504    -0.633981902236359     0.777010685773345
    H               -3.109396122695503     0.829704097763641    -1.464778314226655
    H               -1.800222122695504     2.090200097763641    -1.444559314226655
    H               -1.841247122695504    -0.668856902236359     1.850097685773345

}
e, wfn = energy('scf', return_wfn=True)
gdma(wfn)
dmavals = variable('DMA DISTRIBUTED MULTIPOLES')
charges = np.array(dmavals)
print(charges)
np.save('SSI-024LEU-028GLU-1-dimer.npy', np.array(charges))--------------------------------------------------------------------------

*** tstart() called on ds3
*** at Sun Apr 26 20:15:20 2020

   => Loading Basis Set <=

    Name: CC-PVDZ
    Role: ORBITAL
    Keyword: BASIS
    atoms 1-3, 12-14  entry C          line   138 file /theoryfs2/ds/metcalf/miniconda2/envs/tf2gpu/share/psi4/basis/cc-pvdz.gbs
    atoms 4-11, 15-22 entry H          line    22 file /theoryfs2/ds/metcalf/miniconda2/envs/tf2gpu/share/psi4/basis/cc-pvdz.gbs

         ---------------------------------------------------------
                                   SCF
               by Justin Turney, Rob Parrish, Andy Simmonett
                          and Daniel G. A. Smith
                              RHF Reference
                        1 Threads,    500 MiB Core
         ---------------------------------------------------------

  ==> Geometry <==

    Molecular point group: c1
    Full point group: C1

    Geometry (in Angstrom), charge = 0, multiplicity = 1:

       Center              X                  Y                   Z               Mass
    ------------   -----------------  -----------------  -----------------  -----------------
         C            1.968705877304    -0.480981902236    -0.600989314227    12.000000000000
         C            1.943705877304    -1.979981902236    -0.298989314227    12.000000000000
         C            2.685705877304     0.426018097764     0.403010685773    12.000000000000
         H            2.457705877304    -0.353981902236    -1.565989314227     1.007825032230
         H            0.951705877304    -0.124981902236    -0.717989314227     1.007825032230
         H            1.449705877304    -2.124981902236     0.660010685773     1.007825032230
         H            3.714705877304     0.091018097764     0.515010685773     1.007825032230
         H            2.967788877304    -2.380578902236    -0.271128314227     1.007825032230
         H            1.333647877304    -2.490053902236    -1.059026314227     1.007825032230
         H            2.707391877304     1.453926097764     0.011942685773     1.007825032230
         H            2.201211877304     0.394924097764     1.390076685773     1.007825032230
         C           -1.638294122696     0.606018097764     0.104010685773    12.000000000000
         C           -2.468294122696     1.464018097764    -0.834989314227    12.000000000000
         C           -2.466294122696    -0.037981902236     1.201010685773    12.000000000000
         H           -1.157294122696    -0.174981902236    -0.475989314227     1.007825032230
         H           -0.880294122696     1.235018097764     0.569010685773     1.007825032230
         H           -3.087294122696     2.135018097764    -0.237989314227     1.007825032230
         H           -2.936294122696     0.757018097764     1.785010685773     1.007825032230
         H           -3.272294122696    -0.633981902236     0.777010685773     1.007825032230
         H           -3.109396122696     0.829704097764    -1.464778314227     1.007825032230
         H           -1.800222122696     2.090200097764    -1.444559314227     1.007825032230
         H           -1.841247122696    -0.668856902236     1.850097685773     1.007825032230

  Running in c1 symmetry.

  Rotational constants: A =      0.13356  B =      0.03139  C =      0.02961 [cm^-1]
  Rotational constants: A =   4003.98598  B =    941.00587  C =    887.80866 [MHz]
  Nuclear repulsion =  239.438440982828865

  Charge       = 0
  Multiplicity = 1
  Electrons    = 52
  Nalpha       = 26
  Nbeta        = 26

  ==> Algorithm <==

  SCF Algorithm Type is PK.
  DIIS enabled.
  MOM disabled.
  Fractional occupation disabled.
  Guess Type is SAD.
  Energy threshold   = 1.00e-06
  Density threshold  = 1.00e-10
  Integral threshold = 0.00e+00

  ==> Primary Basis <==

  Basis Set: CC-PVDZ
    Blend: CC-PVDZ
    Number of shells: 84
    Number of basis function: 164
    Number of Cartesian functions: 170
    Spherical Harmonics?: true
    Max angular momentum: 2

  ==> Pre-Iterations <==

   -------------------------------------------------------
    Irrep   Nso     Nmo     Nalpha   Nbeta   Ndocc  Nsocc
   -------------------------------------------------------
     A        164     164       0       0       0       0
   -------------------------------------------------------
    Total     164     164      26      26      26       0
   -------------------------------------------------------

  ==> Integral Setup <==

  Using integral reordering PK algorithm.
  Sizing the integral batches needed.
  Building batch lookup table.
   Calculation information:
      Number of atoms:                  22
      Number of AO shells:              84
      Number of primitives:            212
      Number of atomic orbitals:       170
      Number of basis functions:       164

      Integral cutoff                 1.00e-12
      Number of threads:                 1

	Batch   1 pq = [       0,    9405] index = [             0,44231715] size =     44231715
	Batch   2 pq = [    9405,   13530] index = [      44231715,91537215] size =     47305500
  Task number: 9
  Buffer size: 11059200
  Buffer per thread: 2
  We computed 5492917 shell quartets total.
  Whereas there are 6374235 unique shell quartets.

  ==> DiskJK: Disk-Based J/K Matrices <==

    J tasked:                  Yes
    K tasked:                  Yes
    wK tasked:                  No
    Memory [MiB]:              375
    Schwarz Cutoff:          1E-12

    OpenMP threads:              1

  Minimum eigenvalue in the overlap matrix is 5.1062226153E-03.
  Using Symmetric Orthogonalization.

  SCF Guess: Superposition of Atomic Densities via on-the-fly atomic UHF.

  ==> Iterations <==

                        Total Energy        Delta E     RMS |[F,P]|

   @RHF iter SAD:  -235.40163164181010   -2.35402e+02   0.00000e+00
   @RHF iter   1:  -236.31417914384156   -9.12548e-01   3.50208e-03 DIIS
   @RHF iter   2:  -236.50171998390124   -1.87541e-01   1.52075e-03 DIIS
   @RHF iter   3:  -236.53522764575243   -3.35077e-02   3.06054e-04 DIIS
   @RHF iter   4:  -236.53785492304084   -2.62728e-03   5.00069e-05 DIIS
   @RHF iter   5:  -236.53790784589799   -5.29229e-05   1.39556e-05 DIIS
   @RHF iter   6:  -236.53791224218580   -4.39629e-06   2.21290e-06 DIIS
   @RHF iter   7:  -236.53791236905289   -1.26867e-07   4.34539e-07 DIIS
   @RHF iter   8:  -236.53791237521898   -6.16609e-09   8.59783e-08 DIIS
   @RHF iter   9:  -236.53791237549439   -2.75406e-10   2.09476e-08 DIIS
   @RHF iter  10:  -236.53791237550834   -1.39551e-11   6.26861e-09 DIIS
   @RHF iter  11:  -236.53791237550996   -1.62004e-12   1.46363e-09 DIIS
   @RHF iter  12:  -236.53791237550897    9.94760e-13   3.42863e-10 DIIS
   @RHF iter  13:  -236.53791237550996   -9.94760e-13   5.93954e-11 DIIS
  Energy and wave function converged.

  ==> Post-Iterations <==

    Orbital Energies [Eh]
    ---------------------

    Doubly Occupied:

       1A    -11.217782     2A    -11.217770     3A    -11.217397
       4A    -11.217130     5A    -11.215919     6A    -11.215775
       7A     -1.059138     8A     -1.050390     9A     -0.926166
      10A     -0.924986    11A     -0.798987    12A     -0.791685
      13A     -0.632125    14A     -0.624748    15A     -0.597024
      16A     -0.591386    17A     -0.551108    18A     -0.549845
      19A     -0.534920    20A     -0.531155    21A     -0.479228
      22A     -0.473583    23A     -0.472269    24A     -0.470094
      25A     -0.462174    26A     -0.456550

    Virtual:

      27A      0.163346    28A      0.193650    29A      0.206480
      30A      0.212207    31A      0.229502    32A      0.246933
      33A      0.249983    34A      0.256946    35A      0.266822
      36A      0.275672    37A      0.292024    38A      0.293148
      39A      0.298815    40A      0.307844    41A      0.310993
      42A      0.344606    43A      0.362563    44A      0.397913
      45A      0.426552    46A      0.432525    47A      0.571762
      48A      0.579742    49A      0.593844    50A      0.609943
      51A      0.613721    52A      0.620581    53A      0.622399
      54A      0.641086    55A      0.645561    56A      0.724753
      57A      0.777359    58A      0.788732    59A      0.802483
      60A      0.807776    61A      0.844708    62A      0.869731
      63A      0.871619    64A      0.884894    65A      0.887233
      66A      0.889839    67A      0.894075    68A      0.898250
      69A      0.900136    70A      0.904990    71A      0.906538
      72A      0.911509    73A      0.923426    74A      0.934649
      75A      0.943870    76A      0.946333    77A      0.970911
      78A      0.986569    79A      0.997967    80A      1.029345
      81A      1.119818    82A      1.122884    83A      1.129751
      84A      1.160043    85A      1.206707    86A      1.285678
      87A      1.370760    88A      1.385125    89A      1.464298
      90A      1.474929    91A      1.485291    92A      1.490931
      93A      1.513387    94A      1.545006    95A      1.629435
      96A      1.655391    97A      1.668711    98A      1.679391
      99A      1.684016   100A      1.686928   101A      1.694526
     102A      1.708129   103A      1.848095   104A      1.863500
     105A      1.867159   106A      1.876339   107A      1.885211
     108A      1.897278   109A      1.908165   110A      1.912859
     111A      1.924569   112A      1.930651   113A      1.937650
     114A      1.952562   115A      1.960093   116A      1.966227
     117A      1.971777   118A      1.987020   119A      1.991551
     120A      1.995962   121A      2.010072   122A      2.011618
     123A      2.015074   124A      2.030816   125A      2.038763
     126A      2.052065   127A      2.126586   128A      2.143285
     129A      2.161527   130A      2.170494   131A      2.277235
     132A      2.284548   133A      2.292794   134A      2.297384
     135A      2.329388   136A      2.335962   137A      2.342659
     138A      2.345916   139A      2.490667   140A      2.504822
     141A      2.531891   142A      2.541422   143A      2.582754
     144A      2.597352   145A      2.609575   146A      2.624411
     147A      2.630281   148A      2.633908   149A      2.747479
     150A      2.752937   151A      2.756916   152A      2.764327
     153A      2.782005   154A      2.791582   155A      2.802073
     156A      2.815316   157A      2.914243   158A      2.934890
     159A      2.953944   160A      2.970444   161A      2.972663
     162A      2.988436   163A      3.071029   164A      3.088837

    Final Occupation by Irrep:
              A
    DOCC [    26 ]

  @RHF Final Energy:  -236.53791237550996

   => Energetics <=

    Nuclear Repulsion Energy =            239.4384409828288653
    One-Electron Energy =                -791.3940317783701630
    Two-Electron Energy =                 315.4176784200313364
    Total Energy =                       -236.5379123755099613

Computation Completed

Properties will be evaluated at   0.000000,   0.000000,   0.000000 [a0]

Properties computed using the SCF density matrix

  Nuclear Dipole Moment: [e a0]
     X:    -0.2817      Y:     0.0323      Z:     0.3007

  Electronic Dipole Moment: [e a0]
     X:     0.2690      Y:    -0.0094      Z:    -0.3314

  Dipole Moment: [e a0]
     X:    -0.0126      Y:     0.0228      Z:    -0.0308     Total:     0.0404

  Dipole Moment: [D]
     X:    -0.0322      Y:     0.0580      Z:    -0.0782     Total:     0.1026

*** tstop() called on ds3 at Sun Apr 26 20:16:02 2020
Module time:
	user time   =      27.51 seconds =       0.46 minutes
	system time =       9.78 seconds =       0.16 minutes
	total time  =         42 seconds =       0.70 minutes
Total time:
	user time   =      27.51 seconds =       0.46 minutes
	system time =       9.78 seconds =       0.16 minutes
	total time  =         42 seconds =       0.70 minutes
                                     G D M A

                                 by Anthony Stone

                           version 2.2.06, 22 June 2011

               Distributed Multipoles from Gaussian wavefunctions

Starting at 20:16:2 on 26 Apr 2020

Using SCF density matrix from file ./SSI/SSI-024LEU-028GLU-1-dimer.test.22546.fchk

                         Distributed Multipole Analysis

Standard DMA

Positions and radii in angstrom
Multipole moments in atomic units, ea_0^k for rank k

C          x =  1.968706  y = -0.480982  z = -0.600989 angstrom
           Maximum rank =  0   Radius =  0.650 angstrom
                   Q00  =  -0.073652

C          x =  1.943706  y = -1.979982  z = -0.298989 angstrom
           Maximum rank =  0   Radius =  0.650 angstrom
                   Q00  =  -0.248735

C          x =  2.685706  y =  0.426018  z =  0.403011 angstrom
           Maximum rank =  0   Radius =  0.650 angstrom
                   Q00  =  -0.248707

H          x =  2.457706  y = -0.353982  z = -1.565989 angstrom
           Maximum rank =  0   Radius =  0.325 angstrom
                   Q00  =   0.038990

H          x =  0.951706  y = -0.124982  z = -0.717989 angstrom
           Maximum rank =  0   Radius =  0.325 angstrom
                   Q00  =   0.054171

H          x =  1.449706  y = -2.124982  z =  0.660011 angstrom
           Maximum rank =  0   Radius =  0.325 angstrom
                   Q00  =   0.074093

H          x =  3.714706  y =  0.091018  z =  0.515011 angstrom
           Maximum rank =  0   Radius =  0.325 angstrom
                   Q00  =   0.076547

H          x =  2.967789  y = -2.380579  z = -0.271128 angstrom
           Maximum rank =  0   Radius =  0.325 angstrom
                   Q00  =   0.079900

H          x =  1.333648  y = -2.490054  z = -1.059026 angstrom
           Maximum rank =  0   Radius =  0.325 angstrom
                   Q00  =   0.084100

H          x =  2.707392  y =  1.453926  z =  0.011943 angstrom
           Maximum rank =  0   Radius =  0.325 angstrom
                   Q00  =   0.084797

H          x =  2.201212  y =  0.394924  z =  1.390077 angstrom
           Maximum rank =  0   Radius =  0.325 angstrom
                   Q00  =   0.076408

C          x = -1.638294  y =  0.606018  z =  0.104011 angstrom
           Maximum rank =  0   Radius =  0.650 angstrom
                   Q00  =  -0.076348

C          x = -2.468294  y =  1.464018  z = -0.834989 angstrom
           Maximum rank =  0   Radius =  0.650 angstrom
                   Q00  =  -0.238668

C          x = -2.466294  y = -0.037982  z =  1.201011 angstrom
           Maximum rank =  0   Radius =  0.650 angstrom
                   Q00  =  -0.236166

H          x = -1.157294  y = -0.174982  z = -0.475989 angstrom
           Maximum rank =  0   Radius =  0.325 angstrom
                   Q00  =   0.044218

H          x = -0.880294  y =  1.235018  z =  0.569011 angstrom
           Maximum rank =  0   Radius =  0.325 angstrom
                   Q00  =   0.044034

H          x = -3.087294  y =  2.135018  z = -0.237989 angstrom
           Maximum rank =  0   Radius =  0.325 angstrom
                   Q00  =   0.072785

H          x = -2.936294  y =  0.757018  z =  1.785011 angstrom
           Maximum rank =  0   Radius =  0.325 angstrom
                   Q00  =   0.073398

H          x = -3.272294  y = -0.633982  z =  0.777011 angstrom
           Maximum rank =  0   Radius =  0.325 angstrom
                   Q00  =   0.075750

H          x = -3.109396  y =  0.829704  z = -1.464778 angstrom
           Maximum rank =  0   Radius =  0.325 angstrom
                   Q00  =   0.077541

H          x = -1.800222  y =  2.090200  z = -1.444559 angstrom
           Maximum rank =  0   Radius =  0.325 angstrom
                   Q00  =   0.082077

H          x = -1.841247  y = -0.668857  z =  1.850098 angstrom
           Maximum rank =  0   Radius =  0.325 angstrom
                   Q00  =   0.083465

Total multipoles referred to origin at
           x =   0.000000,  y =    0.000000,  z =    0.000000 angstrom
                   Q00  =  -0.000000

Finished at 20:16:2 on 26 Apr 2020

  DMA results are available in the Python driver through the
	  variable('DMA DISTRIBUTED MULTIPOLES')
  and
	  variable('DMA TOTAL MULTIPOLES')
  commands.

    Psi4 stopped on: Sunday, 26 April 2020 08:16PM
    Psi4 wall time for execution: 0:00:41.75

*** Psi4 exiting successfully. Buy a developer a beer!
