                               Psi4 1.3.2 release

  ==> Input File <==

--------------------------------------------------------------------------
import numpy as np
set {scf_type pk
basis cc-pvdz
d_convergence 10
gdma_switch   0
gdma_limit    0
gdma_origin   [ 0.0,  0.0,  0.0 ]
}
molecule test {
    units Angstrom
    0 1
    --
    0 1
    C                1.439791951488126    -2.683732209278197     1.554023034012242
    C                2.720791951488126    -1.898732209278197     1.230023034012242
    H                1.259791951488126    -2.743732209278197     2.623023034012242
    H                0.582791951488126    -2.205732209278197     1.079023034012242
    H                1.526791951488126    -3.693732209278196     1.162023034012242
    H                2.637791951488126    -0.899732209278197     1.654023034012242
    H                3.602611951488126    -2.406120209278197     1.648293034012242
    H                2.835571951488125    -1.797669209278197     0.140703034012242
    C               -1.689208048511874     0.231267790721803    -3.054976965987758
    C               -1.051208048511874    -0.083732209278197     0.685023034012242
    C               -0.038208048511874     0.836267790721803     0.856023034012242
    C               -1.606208048511874    -0.265732209278197    -0.586976965987758
    C               -1.124208048511874     0.442267790721803    -1.670976965987758
    C                0.411791951488126     1.564267790721803    -0.236976965987758
    C               -0.109208048511874     1.361267790721803    -1.490976965987758
    O                0.493791951488126     1.015267790721803     2.095023034012242
    H               -1.429208048511874    -0.644732209278197     1.524023034012242
    H               -2.410208048511874    -0.979732209278197    -0.723976965987758
    H                0.899791951488126     2.485267790721803    -0.138976965987758
    H                0.263791951488126     0.284267790721803     2.696023034012242
    H               -2.193208048511874    -0.732732209278197    -3.095976965987759
    H               -0.823208048511874     0.145267790721803    -3.714976965987758
    H                0.219791951488126     1.973267790721803    -2.324976965987758
    H               -2.356708048511874     1.015617790721803    -3.441306965987758

}
e, wfn = energy('scf', return_wfn=True)
gdma(wfn)
dmavals = variable('DMA DISTRIBUTED MULTIPOLES')
charges = np.array(dmavals)
print(charges)
np.save('SSI-005LEU-106TYR-1-dimer.npy', np.array(charges))--------------------------------------------------------------------------

*** tstart() called on ds3
*** at Tue Apr 28 01:48:57 2020

   => Loading Basis Set <=

    Name: CC-PVDZ
    Role: ORBITAL
    Keyword: BASIS
    atoms 1-2, 9-15  entry C          line   138 file /theoryfs2/ds/metcalf/miniconda2/envs/tf2gpu/share/psi4/basis/cc-pvdz.gbs
    atoms 3-8, 17-24 entry H          line    22 file /theoryfs2/ds/metcalf/miniconda2/envs/tf2gpu/share/psi4/basis/cc-pvdz.gbs
    atoms 16         entry O          line   198 file /theoryfs2/ds/metcalf/miniconda2/envs/tf2gpu/share/psi4/basis/cc-pvdz.gbs

         ---------------------------------------------------------
                                   SCF
               by Justin Turney, Rob Parrish, Andy Simmonett
                          and Daniel G. A. Smith
                              RHF Reference
                        1 Threads,    500 MiB Core
         ---------------------------------------------------------

  ==> Geometry <==

    Molecular point group: c1
    Full point group: C1

    Geometry (in Angstrom), charge = 0, multiplicity = 1:

       Center              X                  Y                   Z               Mass
    ------------   -----------------  -----------------  -----------------  -----------------
         C            1.439791951488    -2.683732209278     1.554023034012    12.000000000000
         C            2.720791951488    -1.898732209278     1.230023034012    12.000000000000
         H            1.259791951488    -2.743732209278     2.623023034012     1.007825032230
         H            0.582791951488    -2.205732209278     1.079023034012     1.007825032230
         H            1.526791951488    -3.693732209278     1.162023034012     1.007825032230
         H            2.637791951488    -0.899732209278     1.654023034012     1.007825032230
         H            3.602611951488    -2.406120209278     1.648293034012     1.007825032230
         H            2.835571951488    -1.797669209278     0.140703034012     1.007825032230
         C           -1.689208048512     0.231267790722    -3.054976965988    12.000000000000
         C           -1.051208048512    -0.083732209278     0.685023034012    12.000000000000
         C           -0.038208048512     0.836267790722     0.856023034012    12.000000000000
         C           -1.606208048512    -0.265732209278    -0.586976965988    12.000000000000
         C           -1.124208048512     0.442267790722    -1.670976965988    12.000000000000
         C            0.411791951488     1.564267790722    -0.236976965988    12.000000000000
         C           -0.109208048512     1.361267790722    -1.490976965988    12.000000000000
         O            0.493791951488     1.015267790722     2.095023034012    15.994914619570
         H           -1.429208048512    -0.644732209278     1.524023034012     1.007825032230
         H           -2.410208048512    -0.979732209278    -0.723976965988     1.007825032230
         H            0.899791951488     2.485267790722    -0.138976965988     1.007825032230
         H            0.263791951488     0.284267790722     2.696023034012     1.007825032230
         H           -2.193208048512    -0.732732209278    -3.095976965988     1.007825032230
         H           -0.823208048512     0.145267790722    -3.714976965988     1.007825032230
         H            0.219791951488     1.973267790722    -2.324976965988     1.007825032230
         H           -2.356708048512     1.015617790722    -3.441306965988     1.007825032230

  Running in c1 symmetry.

  Rotational constants: A =      0.05718  B =      0.02394  C =      0.02103 [cm^-1]
  Rotational constants: A =   1714.21979  B =    717.74381  C =    630.49209 [MHz]
  Nuclear repulsion =  506.199380479604940

  Charge       = 0
  Multiplicity = 1
  Electrons    = 76
  Nalpha       = 38
  Nbeta        = 38

  ==> Algorithm <==

  SCF Algorithm Type is PK.
  DIIS enabled.
  MOM disabled.
  Fractional occupation disabled.
  Guess Type is SAD.
  Energy threshold   = 1.00e-06
  Density threshold  = 1.00e-10
  Integral threshold = 0.00e+00

  ==> Primary Basis <==

  Basis Set: CC-PVDZ
    Blend: CC-PVDZ
    Number of shells: 102
    Number of basis function: 210
    Number of Cartesian functions: 220
    Spherical Harmonics?: true
    Max angular momentum: 2

  ==> Pre-Iterations <==

   -------------------------------------------------------
    Irrep   Nso     Nmo     Nalpha   Nbeta   Ndocc  Nsocc
   -------------------------------------------------------
     A        210     210       0       0       0       0
   -------------------------------------------------------
    Total     210     210      38      38      38       0
   -------------------------------------------------------

  ==> Integral Setup <==

  Using integral reordering PK algorithm.
  Sizing the integral batches needed.
  Building batch lookup table.
   Calculation information:
      Number of atoms:                  24
      Number of AO shells:             102
      Number of primitives:            290
      Number of atomic orbitals:       220
      Number of basis functions:       210

      Integral cutoff                 1.00e-12
      Number of threads:                 1

	Batch   1 pq = [       0,    9405] index = [             0,44231715] size =     44231715
	Batch   2 pq = [    9405,   13301] index = [      44231715,88464951] size =     44233236
	Batch   3 pq = [   13301,   16290] index = [      88464951,132690195] size =     44225244
	Batch   4 pq = [   16290,   18810] index = [     132690195,176917455] size =     44227260
	Batch   5 pq = [   18810,   21030] index = [     176917455,221140965] size =     44223510
	Batch   6 pq = [   21030,   22155] index = [     221140965,245433090] size =     24292125
  Task number: 23
  Buffer size: 11059200
  Buffer per thread: 2
  We computed 12541872 shell quartets total.
  Whereas there are 13799631 unique shell quartets.

  ==> DiskJK: Disk-Based J/K Matrices <==

    J tasked:                  Yes
    K tasked:                  Yes
    wK tasked:                  No
    Memory [MiB]:              375
    Schwarz Cutoff:          1E-12

    OpenMP threads:              1

  Minimum eigenvalue in the overlap matrix is 3.4034066097E-04.
  Using Symmetric Orthogonalization.

  SCF Guess: Superposition of Atomic Densities via on-the-fly atomic UHF.

  ==> Iterations <==

                        Total Energy        Delta E     RMS |[F,P]|

   @RHF iter SAD:  -422.80314556490379   -4.22803e+02   0.00000e+00
   @RHF iter   1:  -423.58788397406846   -7.84738e-01   2.99620e-03 DIIS
   @RHF iter   2:  -423.80598051651521   -2.18097e-01   1.26755e-03 DIIS
   @RHF iter   3:  -423.84150446086079   -3.55239e-02   2.84280e-04 DIIS
   @RHF iter   4:  -423.84439340139579   -2.88894e-03   1.17052e-04 DIIS
   @RHF iter   5:  -423.84474731524364   -3.53914e-04   2.12884e-05 DIIS
   @RHF iter   6:  -423.84476628065198   -1.89654e-05   6.76215e-06 DIIS
   @RHF iter   7:  -423.84476820744572   -1.92679e-06   2.14505e-06 DIIS
   @RHF iter   8:  -423.84476849192521   -2.84479e-07   8.47990e-07 DIIS
   @RHF iter   9:  -423.84476854150029   -4.95751e-08   3.27841e-07 DIIS
   @RHF iter  10:  -423.84476855133255   -9.83226e-09   1.36602e-07 DIIS
   @RHF iter  11:  -423.84476855429909   -2.96654e-09   6.34277e-08 DIIS
   @RHF iter  12:  -423.84476855483831   -5.39217e-10   2.45502e-08 DIIS
   @RHF iter  13:  -423.84476855491027   -7.19638e-11   7.92356e-09 DIIS
   @RHF iter  14:  -423.84476855491334   -3.06954e-12   2.15968e-09 DIIS
   @RHF iter  15:  -423.84476855491607   -2.72848e-12   6.57384e-10 DIIS
   @RHF iter  16:  -423.84476855491062    5.45697e-12   2.21568e-10 DIIS
   @RHF iter  17:  -423.84476855491192   -1.30740e-12   1.06589e-10 DIIS
   @RHF iter  18:  -423.84476855491499   -3.06954e-12   4.69644e-11 DIIS
  Energy and wave function converged.

  ==> Post-Iterations <==

    Orbital Energies [Eh]
    ---------------------

    Doubly Occupied:

       1A    -20.584689     2A    -11.298660     3A    -11.238414
       4A    -11.234127     5A    -11.232026     6A    -11.230322
       7A    -11.227066     8A    -11.224096     9A    -11.214827
      10A    -11.214208    11A     -1.399571    12A     -1.157680
      13A     -1.039944    14A     -1.023043    15A     -1.013076
      16A     -0.926924    17A     -0.846378    18A     -0.835308
      19A     -0.807681    20A     -0.733112    21A     -0.672730
      22A     -0.640613    23A     -0.615167    24A     -0.601725
      25A     -0.593449    26A     -0.589860    27A     -0.579967
      28A     -0.574526    29A     -0.562617    30A     -0.524531
      31A     -0.498435    32A     -0.495880    33A     -0.486759
      34A     -0.484360    35A     -0.481490    36A     -0.466969
      37A     -0.339339    38A     -0.304804

    Virtual:

      39A      0.127527    40A      0.152085    41A      0.165599
      42A      0.185712    43A      0.207728    44A      0.216855
      45A      0.220825    46A      0.245147    47A      0.258270
      48A      0.265523    49A      0.267899    50A      0.272760
      51A      0.277086    52A      0.291401    53A      0.306663
      54A      0.314682    55A      0.371919    56A      0.378207
      57A      0.397172    58A      0.433076    59A      0.456010
      60A      0.482022    61A      0.500788    62A      0.517965
      63A      0.580274    64A      0.592937    65A      0.610159
      66A      0.614324    67A      0.634696    68A      0.651491
      69A      0.664487    70A      0.668697    71A      0.676446
      72A      0.698021    73A      0.710894    74A      0.729828
      75A      0.742139    76A      0.747307    77A      0.765505
      78A      0.768342    79A      0.778407    80A      0.807953
      81A      0.815271    82A      0.824422    83A      0.840805
      84A      0.861521    85A      0.877135    86A      0.882295
      87A      0.886271    88A      0.894083    89A      0.899890
      90A      0.902132    91A      0.909177    92A      0.920135
      93A      0.927181    94A      0.934851    95A      0.943078
      96A      0.947329    97A      0.955327    98A      0.972379
      99A      0.999383   100A      1.026363   101A      1.042315
     102A      1.059389   103A      1.120706   104A      1.124667
     105A      1.134503   106A      1.142903   107A      1.153397
     108A      1.173672   109A      1.179210   110A      1.214186
     111A      1.238132   112A      1.265778   113A      1.282235
     114A      1.292487   115A      1.321937   116A      1.325095
     117A      1.351015   118A      1.364926   119A      1.383831
     120A      1.408589   121A      1.456279   122A      1.479710
     123A      1.489726   124A      1.518715   125A      1.541268
     126A      1.563710   127A      1.577062   128A      1.610594
     129A      1.633971   130A      1.683863   131A      1.695000
     132A      1.701827   133A      1.704600   134A      1.737123
     135A      1.759412   136A      1.782772   137A      1.790487
     138A      1.807756   139A      1.859824   140A      1.870910
     141A      1.881551   142A      1.885647   143A      1.891858
     144A      1.905012   145A      1.913637   146A      1.927444
     147A      1.930433   148A      1.945089   149A      1.949454
     150A      1.952591   151A      1.955560   152A      1.960382
     153A      1.979406   154A      1.985149   155A      1.992648
     156A      2.010953   157A      2.024969   158A      2.051466
     159A      2.061124   160A      2.089283   161A      2.101712
     162A      2.113780   163A      2.130662   164A      2.139737
     165A      2.158186   166A      2.176917   167A      2.200272
     168A      2.248915   169A      2.266420   170A      2.287414
     171A      2.299650   172A      2.310826   173A      2.320748
     174A      2.352000   175A      2.388797   176A      2.433306
     177A      2.440725   178A      2.463346   179A      2.471912
     180A      2.479811   181A      2.519273   182A      2.534542
     183A      2.546844   184A      2.579588   185A      2.583763
     186A      2.596355   187A      2.644891   188A      2.749815
     189A      2.769151   190A      2.774105   191A      2.803811
     192A      2.805570   193A      2.841832   194A      2.848899
     195A      2.862462   196A      2.864375   197A      2.912199
     198A      2.956296   199A      2.965562   200A      2.983476
     201A      2.999686   202A      3.115384   203A      3.123530
     204A      3.263433   205A      3.276365   206A      3.364477
     207A      3.583025   208A      3.674189   209A      3.980682
     210A      4.169889

    Final Occupation by Irrep:
              A
    DOCC [    38 ]

  @RHF Final Energy:  -423.84476855491499

   => Energetics <=

    Nuclear Repulsion Energy =            506.1993804796049403
    One-Electron Energy =               -1578.0995523389228765
    Two-Electron Energy =                 648.0554033044029438
    Total Energy =                       -423.8447685549149355

Computation Completed

Properties will be evaluated at   0.000000,   0.000000,   0.000000 [a0]

Properties computed using the SCF density matrix

  Nuclear Dipole Moment: [e a0]
     X:     4.3299      Y:    -9.5575      Z:    -0.8459

  Electronic Dipole Moment: [e a0]
     X:    -4.7211      Y:     9.1942      Z:     0.7736

  Dipole Moment: [e a0]
     X:    -0.3912      Y:    -0.3634      Z:    -0.0723     Total:     0.5388

  Dipole Moment: [D]
     X:    -0.9943      Y:    -0.9236      Z:    -0.1837     Total:     1.3695

*** tstop() called on ds3 at Tue Apr 28 01:50:59 2020
Module time:
	user time   =      89.11 seconds =       1.49 minutes
	system time =      36.45 seconds =       0.61 minutes
	total time  =        122 seconds =       2.03 minutes
Total time:
	user time   =      89.11 seconds =       1.49 minutes
	system time =      36.45 seconds =       0.61 minutes
	total time  =        122 seconds =       2.03 minutes
                                     G D M A

                                 by Anthony Stone

                           version 2.2.06, 22 June 2011

               Distributed Multipoles from Gaussian wavefunctions

Starting at 1:50:59 on 28 Apr 2020

Using SCF density matrix from file ./SSI/SSI-005LEU-106TYR-1-dimer.test.9294.fchk

                         Distributed Multipole Analysis

Standard DMA

Positions and radii in angstrom
Multipole moments in atomic units, ea_0^k for rank k

C          x =  1.439792  y = -2.683732  z =  1.554023 angstrom
           Maximum rank =  0   Radius =  0.650 angstrom
                   Q00  =  -0.259346

C          x =  2.720792  y = -1.898732  z =  1.230023 angstrom
           Maximum rank =  0   Radius =  0.650 angstrom
                   Q00  =  -0.227173

H          x =  1.259792  y = -2.743732  z =  2.623023 angstrom
           Maximum rank =  0   Radius =  0.325 angstrom
                   Q00  =   0.069059

H          x =  0.582792  y = -2.205732  z =  1.079023 angstrom
           Maximum rank =  0   Radius =  0.325 angstrom
                   Q00  =   0.093830

H          x =  1.526792  y = -3.693732  z =  1.162023 angstrom
           Maximum rank =  0   Radius =  0.325 angstrom
                   Q00  =   0.080509

H          x =  2.637792  y = -0.899732  z =  1.654023 angstrom
           Maximum rank =  0   Radius =  0.325 angstrom
                   Q00  =   0.078014

H          x =  3.602612  y = -2.406120  z =  1.648293 angstrom
           Maximum rank =  0   Radius =  0.325 angstrom
                   Q00  =   0.076298

H          x =  2.835572  y = -1.797669  z =  0.140703 angstrom
           Maximum rank =  0   Radius =  0.325 angstrom
                   Q00  =   0.084257

C          x = -1.689208  y =  0.231268  z = -3.054977 angstrom
           Maximum rank =  0   Radius =  0.650 angstrom
                   Q00  =  -0.201479

C          x = -1.051208  y = -0.083732  z =  0.685023 angstrom
           Maximum rank =  0   Radius =  0.650 angstrom
                   Q00  =  -0.180740

C          x = -0.038208  y =  0.836268  z =  0.856023 angstrom
           Maximum rank =  0   Radius =  0.650 angstrom
                   Q00  =   0.265867

C          x = -1.606208  y = -0.265732  z = -0.586977 angstrom
           Maximum rank =  0   Radius =  0.650 angstrom
                   Q00  =  -0.038410

C          x = -1.124208  y =  0.442268  z = -1.670977 angstrom
           Maximum rank =  0   Radius =  0.650 angstrom
                   Q00  =  -0.122453

C          x =  0.411792  y =  1.564268  z = -0.236977 angstrom
           Maximum rank =  0   Radius =  0.650 angstrom
                   Q00  =  -0.010007

C          x = -0.109208  y =  1.361268  z = -1.490977 angstrom
           Maximum rank =  0   Radius =  0.650 angstrom
                   Q00  =  -0.070597

O          x =  0.493792  y =  1.015268  z =  2.095023 angstrom
           Maximum rank =  0   Radius =  0.650 angstrom
                   Q00  =  -0.640379

H          x = -1.429208  y = -0.644732  z =  1.524023 angstrom
           Maximum rank =  0   Radius =  0.325 angstrom
                   Q00  =   0.071682

H          x = -2.410208  y = -0.979732  z = -0.723977 angstrom
           Maximum rank =  0   Radius =  0.325 angstrom
                   Q00  =   0.069263

H          x =  0.899792  y =  2.485268  z = -0.138977 angstrom
           Maximum rank =  0   Radius =  0.325 angstrom
                   Q00  =   0.092055

H          x =  0.263792  y =  0.284268  z =  2.696023 angstrom
           Maximum rank =  0   Radius =  0.325 angstrom
                   Q00  =   0.415177

H          x = -2.193208  y = -0.732732  z = -3.095977 angstrom
           Maximum rank =  0   Radius =  0.325 angstrom
                   Q00  =   0.095873

H          x = -0.823208  y =  0.145268  z = -3.714977 angstrom
           Maximum rank =  0   Radius =  0.325 angstrom
                   Q00  =   0.091241

H          x =  0.219792  y =  1.973268  z = -2.324977 angstrom
           Maximum rank =  0   Radius =  0.325 angstrom
                   Q00  =   0.066550

H          x = -2.356708  y =  1.015618  z = -3.441307 angstrom
           Maximum rank =  0   Radius =  0.325 angstrom
                   Q00  =   0.100908

Total multipoles referred to origin at
           x =   0.000000,  y =    0.000000,  z =    0.000000 angstrom
                   Q00  =  -0.000000

Finished at 1:50:59 on 28 Apr 2020

  DMA results are available in the Python driver through the
	  variable('DMA DISTRIBUTED MULTIPOLES')
  and
	  variable('DMA TOTAL MULTIPOLES')
  commands.

    Psi4 stopped on: Tuesday, 28 April 2020 01:50AM
    Psi4 wall time for execution: 0:02:02.06

*** Psi4 exiting successfully. Buy a developer a beer!
