                               Psi4 1.3.2 release

  ==> Input File <==

--------------------------------------------------------------------------
import numpy as np
set {scf_type pk
basis cc-pvdz
d_convergence 10
gdma_switch   0
gdma_limit    0
gdma_origin   [ 0.0,  0.0,  0.0 ]
}
molecule test {
    units Angstrom
    0 1
    --
    0 1
    C               -1.125341112481451     0.286186219041289    -0.053854831190258
    C               -2.230341112481451     0.424186219041289     1.017145168809742
    C               -1.687341112482452     0.367186219041289    -1.474854831190258
    O               -0.176341112482451     1.330186219041289     0.134145168809742
    H               -0.629341112481451    -0.674813780958711     0.063145168809742
    H               -2.894341112482451    -0.431813780958711     0.906145168809742
    H               -2.144341112482452     1.342186219041289    -1.645854831190258
    H               -0.890341112481451     0.214186219041289    -2.203854831190258
    H               -2.444341112481451    -0.402813780958711    -1.619854831190258
    H                0.186658887517548     1.572186219041289    -0.725854831190258
    H               -2.796671112482451     1.363776219041289     0.936890168809742
    H               -1.801031112482452     0.375126219041289     2.028722168809742
    C                2.278658887517549    -1.194813780958711     0.911145168809742
    C                2.833658887518549    -1.305813780958711    -0.497854831190258
    H                1.446658887517549    -0.497813780958711     0.947145168809742
    H                1.951658887517548    -2.171813780958711     1.265145168809742
    H                3.063658887518549    -0.820813780958711     1.567145168809742
    H                3.672658887518549    -1.995813780958711    -0.474854831190258
    H                3.179808887517549    -0.315563780958711    -0.828896831190258
    H                2.072888887518549    -1.722983780958711    -1.174014831190258

}
e, wfn = energy('scf', return_wfn=True)
gdma(wfn)
dmavals = variable('DMA DISTRIBUTED MULTIPOLES')
charges = np.array(dmavals)
print(charges)
np.save('SSI-174THR-205LEU-1-dimer.npy', np.array(charges))--------------------------------------------------------------------------

*** tstart() called on ds3
*** at Tue Apr 28 10:41:55 2020

   => Loading Basis Set <=

    Name: CC-PVDZ
    Role: ORBITAL
    Keyword: BASIS
    atoms 1-3, 13-14  entry C          line   138 file /theoryfs2/ds/metcalf/miniconda2/envs/tf2gpu/share/psi4/basis/cc-pvdz.gbs
    atoms 4           entry O          line   198 file /theoryfs2/ds/metcalf/miniconda2/envs/tf2gpu/share/psi4/basis/cc-pvdz.gbs
    atoms 5-12, 15-20 entry H          line    22 file /theoryfs2/ds/metcalf/miniconda2/envs/tf2gpu/share/psi4/basis/cc-pvdz.gbs

         ---------------------------------------------------------
                                   SCF
               by Justin Turney, Rob Parrish, Andy Simmonett
                          and Daniel G. A. Smith
                              RHF Reference
                        1 Threads,    500 MiB Core
         ---------------------------------------------------------

  ==> Geometry <==

    Molecular point group: c1
    Full point group: C1

    Geometry (in Angstrom), charge = 0, multiplicity = 1:

       Center              X                  Y                   Z               Mass
    ------------   -----------------  -----------------  -----------------  -----------------
         C           -1.125341112481     0.286186219041    -0.053854831190    12.000000000000
         C           -2.230341112481     0.424186219041     1.017145168810    12.000000000000
         C           -1.687341112482     0.367186219041    -1.474854831190    12.000000000000
         O           -0.176341112482     1.330186219041     0.134145168810    15.994914619570
         H           -0.629341112481    -0.674813780959     0.063145168810     1.007825032230
         H           -2.894341112482    -0.431813780959     0.906145168810     1.007825032230
         H           -2.144341112482     1.342186219041    -1.645854831190     1.007825032230
         H           -0.890341112481     0.214186219041    -2.203854831190     1.007825032230
         H           -2.444341112481    -0.402813780959    -1.619854831190     1.007825032230
         H            0.186658887518     1.572186219041    -0.725854831190     1.007825032230
         H           -2.796671112482     1.363776219041     0.936890168810     1.007825032230
         H           -1.801031112482     0.375126219041     2.028722168810     1.007825032230
         C            2.278658887518    -1.194813780959     0.911145168810    12.000000000000
         C            2.833658887519    -1.305813780959    -0.497854831190    12.000000000000
         H            1.446658887518    -0.497813780959     0.947145168810     1.007825032230
         H            1.951658887518    -2.171813780959     1.265145168810     1.007825032230
         H            3.063658887519    -0.820813780959     1.567145168810     1.007825032230
         H            3.672658887519    -1.995813780959    -0.474854831190     1.007825032230
         H            3.179808887518    -0.315563780959    -0.828896831190     1.007825032230
         H            2.072888887519    -1.722983780959    -1.174014831190     1.007825032230

  Running in c1 symmetry.

  Rotational constants: A =      0.14996  B =      0.03880  C =      0.03569 [cm^-1]
  Rotational constants: A =   4495.77242  B =   1163.15968  C =   1070.10153 [MHz]
  Nuclear repulsion =  249.739699938096265

  Charge       = 0
  Multiplicity = 1
  Electrons    = 52
  Nalpha       = 26
  Nbeta        = 26

  ==> Algorithm <==

  SCF Algorithm Type is PK.
  DIIS enabled.
  MOM disabled.
  Fractional occupation disabled.
  Guess Type is SAD.
  Energy threshold   = 1.00e-06
  Density threshold  = 1.00e-10
  Integral threshold = 0.00e+00

  ==> Primary Basis <==

  Basis Set: CC-PVDZ
    Blend: CC-PVDZ
    Number of shells: 78
    Number of basis function: 154
    Number of Cartesian functions: 160
    Spherical Harmonics?: true
    Max angular momentum: 2

  ==> Pre-Iterations <==

   -------------------------------------------------------
    Irrep   Nso     Nmo     Nalpha   Nbeta   Ndocc  Nsocc
   -------------------------------------------------------
     A        154     154       0       0       0       0
   -------------------------------------------------------
    Total     154     154      26      26      26       0
   -------------------------------------------------------

  ==> Integral Setup <==

  Using integral reordering PK algorithm.
  Sizing the integral batches needed.
  Building batch lookup table.
   Calculation information:
      Number of atoms:                  20
      Number of AO shells:              78
      Number of primitives:            202
      Number of atomic orbitals:       160
      Number of basis functions:       154

      Integral cutoff                 1.00e-12
      Number of threads:                 1

	Batch   1 pq = [       0,    9405] index = [             0,44231715] size =     44231715
	Batch   2 pq = [    9405,   11935] index = [      44231715,71228080] size =     26996365
  Task number: 7
  Buffer size: 11059200
  Buffer per thread: 2
  We computed 4192008 shell quartets total.
  Whereas there are 4747821 unique shell quartets.

  ==> DiskJK: Disk-Based J/K Matrices <==

    J tasked:                  Yes
    K tasked:                  Yes
    wK tasked:                  No
    Memory [MiB]:              375
    Schwarz Cutoff:          1E-12

    OpenMP threads:              1

  Minimum eigenvalue in the overlap matrix is 4.5364521466E-03.
  Using Symmetric Orthogonalization.

  SCF Guess: Superposition of Atomic Densities via on-the-fly atomic UHF.

  ==> Iterations <==

                        Total Energy        Delta E     RMS |[F,P]|

   @RHF iter SAD:  -271.09573103505477   -2.71096e+02   0.00000e+00
   @RHF iter   1:  -272.14662021843122   -1.05089e+00   3.86964e-03 DIIS
   @RHF iter   2:  -272.32951154174305   -1.82891e-01   1.75400e-03 DIIS
   @RHF iter   3:  -272.36259125163116   -3.30797e-02   3.53165e-04 DIIS
   @RHF iter   4:  -272.36506573262739   -2.47448e-03   1.19939e-04 DIIS
   @RHF iter   5:  -272.36524765102354   -1.81918e-04   2.25800e-05 DIIS
   @RHF iter   6:  -272.36525736702475   -9.71600e-06   4.86861e-06 DIIS
   @RHF iter   7:  -272.36525794179846   -5.74774e-07   1.45548e-06 DIIS
   @RHF iter   8:  -272.36525799166054   -4.98621e-08   4.48091e-07 DIIS
   @RHF iter   9:  -272.36525799794583   -6.28529e-09   1.07909e-07 DIIS
   @RHF iter  10:  -272.36525799831736   -3.71529e-10   2.80758e-08 DIIS
   @RHF iter  11:  -272.36525799833714   -1.97815e-11   8.27841e-09 DIIS
   @RHF iter  12:  -272.36525799833970   -2.55795e-12   2.45701e-09 DIIS
   @RHF iter  13:  -272.36525799834050   -7.95808e-13   6.70620e-10 DIIS
   @RHF iter  14:  -272.36525799833998    5.11591e-13   1.61403e-10 DIIS
   @RHF iter  15:  -272.36525799833856    1.42109e-12   5.71045e-11 DIIS
  Energy and wave function converged.

  ==> Post-Iterations <==

    Orbital Energies [Eh]
    ---------------------

    Doubly Occupied:

       1A    -20.549785     2A    -11.281434     3A    -11.227461
       4A    -11.221062     5A    -11.215987     6A    -11.206620
       7A     -1.355563     8A     -1.038846     9A     -1.016957
      10A     -0.940127    11A     -0.830650    12A     -0.805221
      13A     -0.678822    14A     -0.637045    15A     -0.607882
      16A     -0.598161    17A     -0.592797    18A     -0.547982
      19A     -0.533085    20A     -0.527088    21A     -0.512808
      22A     -0.494835    23A     -0.483440    24A     -0.476096
      25A     -0.464906    26A     -0.431730

    Virtual:

      27A      0.160296    28A      0.196667    29A      0.211463
      30A      0.222205    31A      0.237064    32A      0.242606
      33A      0.253006    34A      0.264767    35A      0.269218
      36A      0.282714    37A      0.290188    38A      0.301777
      39A      0.317195    40A      0.341338    41A      0.374512
      42A      0.397126    43A      0.408683    44A      0.437585
      45A      0.563061    46A      0.591118    47A      0.607022
      48A      0.616624    49A      0.621953    50A      0.663319
      51A      0.673517    52A      0.690007    53A      0.696840
      54A      0.765731    55A      0.788247    56A      0.791580
      57A      0.830920    58A      0.852112    59A      0.860285
      60A      0.874994    61A      0.884451    62A      0.886322
      63A      0.894537    64A      0.897722    65A      0.904450
      66A      0.908563    67A      0.912751    68A      0.923832
      69A      0.937435    70A      0.955281    71A      0.967248
      72A      0.980468    73A      1.020270    74A      1.121233
      75A      1.129501    76A      1.131147    77A      1.165818
      78A      1.177710    79A      1.253801    80A      1.282045
      81A      1.358144    82A      1.398002    83A      1.423599
      84A      1.482407    85A      1.487441    86A      1.492770
      87A      1.504534    88A      1.559380    89A      1.584791
      90A      1.614839    91A      1.665531    92A      1.678705
      93A      1.682746    94A      1.686913    95A      1.716506
      96A      1.726764    97A      1.821748    98A      1.846659
      99A      1.860774   100A      1.868841   101A      1.871255
     102A      1.900406   103A      1.911380   104A      1.916459
     105A      1.931189   106A      1.951555   107A      1.960524
     108A      1.971378   109A      1.979456   110A      1.987764
     111A      1.991346   112A      2.000165   113A      2.008706
     114A      2.016535   115A      2.057421   116A      2.101227
     117A      2.117317   118A      2.128791   119A      2.137338
     120A      2.213294   121A      2.251872   122A      2.291937
     123A      2.296826   124A      2.300649   125A      2.324179
     126A      2.371385   127A      2.436771   128A      2.459598
     129A      2.480589   130A      2.519074   131A      2.536408
     132A      2.545435   133A      2.572961   134A      2.584207
     135A      2.588021   136A      2.651751   137A      2.746900
     138A      2.769047   139A      2.774362   140A      2.792946
     141A      2.809617   142A      2.817889   143A      2.852565
     144A      2.865565   145A      2.888637   146A      2.908280
     147A      2.957005   148A      2.985774   149A      3.013556
     150A      3.315685   151A      3.425312   152A      3.479008
     153A      3.673147   154A      4.131088

    Final Occupation by Irrep:
              A
    DOCC [    26 ]

  @RHF Final Energy:  -272.36525799833856

   => Energetics <=

    Nuclear Repulsion Energy =            249.7396999380962654
    One-Electron Energy =                -863.6571392740877400
    Two-Electron Energy =                 341.5521813376529394
    Total Energy =                       -272.3652579983385635

Computation Completed

Properties will be evaluated at   0.000000,   0.000000,   0.000000 [a0]

Properties computed using the SCF density matrix

  Nuclear Dipole Moment: [e a0]
     X:     1.8493      Y:    -3.8998      Z:    -0.8982

  Electronic Dipole Moment: [e a0]
     X:    -2.1067      Y:     3.6854      Z:     0.3246

  Dipole Moment: [e a0]
     X:    -0.2574      Y:    -0.2145      Z:    -0.5736     Total:     0.6643

  Dipole Moment: [D]
     X:    -0.6541      Y:    -0.5451      Z:    -1.4580     Total:     1.6884

*** tstop() called on ds3 at Tue Apr 28 10:42:29 2020
Module time:
	user time   =      23.97 seconds =       0.40 minutes
	system time =      10.34 seconds =       0.17 minutes
	total time  =         34 seconds =       0.57 minutes
Total time:
	user time   =      23.97 seconds =       0.40 minutes
	system time =      10.34 seconds =       0.17 minutes
	total time  =         34 seconds =       0.57 minutes
                                     G D M A

                                 by Anthony Stone

                           version 2.2.06, 22 June 2011

               Distributed Multipoles from Gaussian wavefunctions

Starting at 10:42:29 on 28 Apr 2020

Using SCF density matrix from file ./SSI/SSI-174THR-205LEU-1-dimer.test.10992.fchk

                         Distributed Multipole Analysis

Standard DMA

Positions and radii in angstrom
Multipole moments in atomic units, ea_0^k for rank k

C          x = -1.125341  y =  0.286186  z = -0.053855 angstrom
           Maximum rank =  0   Radius =  0.650 angstrom
                   Q00  =   0.173324

C          x = -2.230341  y =  0.424186  z =  1.017145 angstrom
           Maximum rank =  0   Radius =  0.650 angstrom
                   Q00  =  -0.268410

C          x = -1.687341  y =  0.367186  z = -1.474855 angstrom
           Maximum rank =  0   Radius =  0.650 angstrom
                   Q00  =  -0.261448

O          x = -0.176341  y =  1.330186  z =  0.134145 angstrom
           Maximum rank =  0   Radius =  0.650 angstrom
                   Q00  =  -0.545353

H          x = -0.629341  y = -0.674814  z =  0.063145 angstrom
           Maximum rank =  0   Radius =  0.325 angstrom
                   Q00  =   0.000194

H          x = -2.894341  y = -0.431814  z =  0.906145 angstrom
           Maximum rank =  0   Radius =  0.325 angstrom
                   Q00  =   0.077894

H          x = -2.144341  y =  1.342186  z = -1.645855 angstrom
           Maximum rank =  0   Radius =  0.325 angstrom
                   Q00  =   0.086110

H          x = -0.890341  y =  0.214186  z = -2.203855 angstrom
           Maximum rank =  0   Radius =  0.325 angstrom
                   Q00  =   0.077675

H          x = -2.444341  y = -0.402814  z = -1.619855 angstrom
           Maximum rank =  0   Radius =  0.325 angstrom
                   Q00  =   0.093711

H          x =  0.186659  y =  1.572186  z = -0.725855 angstrom
           Maximum rank =  0   Radius =  0.325 angstrom
                   Q00  =   0.387935

H          x = -2.796671  y =  1.363776  z =  0.936890 angstrom
           Maximum rank =  0   Radius =  0.325 angstrom
                   Q00  =   0.093469

H          x = -1.801031  y =  0.375126  z =  2.028722 angstrom
           Maximum rank =  0   Radius =  0.325 angstrom
                   Q00  =   0.101253

C          x =  2.278659  y = -1.194814  z =  0.911145 angstrom
           Maximum rank =  0   Radius =  0.650 angstrom
                   Q00  =  -0.234339

C          x =  2.833659  y = -1.305814  z = -0.497855 angstrom
           Maximum rank =  0   Radius =  0.650 angstrom
                   Q00  =  -0.231982

H          x =  1.446659  y = -0.497814  z =  0.947145 angstrom
           Maximum rank =  0   Radius =  0.325 angstrom
                   Q00  =   0.081218

H          x =  1.951659  y = -2.171814  z =  1.265145 angstrom
           Maximum rank =  0   Radius =  0.325 angstrom
                   Q00  =   0.070356

H          x =  3.063659  y = -0.820814  z =  1.567145 angstrom
           Maximum rank =  0   Radius =  0.325 angstrom
                   Q00  =   0.075619

H          x =  3.672659  y = -1.995814  z = -0.474855 angstrom
           Maximum rank =  0   Radius =  0.325 angstrom
                   Q00  =   0.076821

H          x =  3.179809  y = -0.315564  z = -0.828897 angstrom
           Maximum rank =  0   Radius =  0.325 angstrom
                   Q00  =   0.075571

H          x =  2.072889  y = -1.722984  z = -1.174015 angstrom
           Maximum rank =  0   Radius =  0.325 angstrom
                   Q00  =   0.070381

Total multipoles referred to origin at
           x =   0.000000,  y =    0.000000,  z =    0.000000 angstrom
                   Q00  =  -0.000000

Finished at 10:42:29 on 28 Apr 2020

  DMA results are available in the Python driver through the
	  variable('DMA DISTRIBUTED MULTIPOLES')
  and
	  variable('DMA TOTAL MULTIPOLES')
  commands.

    Psi4 stopped on: Tuesday, 28 April 2020 10:42AM
    Psi4 wall time for execution: 0:00:33.76

*** Psi4 exiting successfully. Buy a developer a beer!
