                               Psi4 1.3.2 release

  ==> Input File <==

--------------------------------------------------------------------------
import numpy as np
set {scf_type pk
basis cc-pvdz
d_convergence 10
gdma_switch   0
gdma_limit    0
gdma_origin   [ 0.0,  0.0,  0.0 ]
}
molecule test {
    units Angstrom
    0 1
    --
    0 1
    C                0.400399101266600     0.558263316713877    -1.197678183973244
    C                1.267399101266600     0.891263316713877    -2.383678183973244
    C               -0.132600898733400     1.888263316713877    -0.738678183973244
    H                1.018399101266600     0.142263316713877    -0.408678183973244
    H               -0.404600898733400    -0.127736683286123    -1.463678183973244
    H                2.086399101266600     0.176263316713877    -2.471678183973244
    H                0.657399101266600     0.909263316713877    -3.286678183973244
    H               -0.395600898733400     1.864263316713877     0.314321816026756
    H               -0.989600898733400     2.168263316713877    -1.338678183973244
    H                1.629869101266600     1.905133316713877    -2.158538183973244
    H                0.678659101266600     2.602553316713877    -0.942758183973244
    C               -0.833600898733400    -1.290736683286123     1.457321816026756
    C               -0.684600898733400    -2.023736683286123     2.785321816026756
    H               -0.746600898733400    -0.213736683286123     1.605321816026756
    H               -0.042600898733400    -1.609736683286123     0.777321816026756
    H               -1.798600898733400    -1.525736683286123     1.005321816026756
    H                0.219399101266600    -1.639736683286123     3.248321816026756
    H               -1.549740898733400    -1.826496683286123     3.435422816026756
    H               -0.565140898733400    -3.102449683286123     2.606135816026756

}
e, wfn = energy('scf', return_wfn=True)
gdma(wfn)
dmavals = variable('DMA DISTRIBUTED MULTIPOLES')
charges = np.array(dmavals)
print(charges)
np.save('SSI-159PRO-164VAL-1-dimer.npy', np.array(charges))--------------------------------------------------------------------------

*** tstart() called on ds3
*** at Mon Apr 27 22:55:29 2020

   => Loading Basis Set <=

    Name: CC-PVDZ
    Role: ORBITAL
    Keyword: BASIS
    atoms 1-3, 12-13  entry C          line   138 file /theoryfs2/ds/metcalf/miniconda2/envs/tf2gpu/share/psi4/basis/cc-pvdz.gbs
    atoms 4-11, 14-19 entry H          line    22 file /theoryfs2/ds/metcalf/miniconda2/envs/tf2gpu/share/psi4/basis/cc-pvdz.gbs

         ---------------------------------------------------------
                                   SCF
               by Justin Turney, Rob Parrish, Andy Simmonett
                          and Daniel G. A. Smith
                              RHF Reference
                        1 Threads,    500 MiB Core
         ---------------------------------------------------------

  ==> Geometry <==

    Molecular point group: c1
    Full point group: C1

    Geometry (in Angstrom), charge = 0, multiplicity = 1:

       Center              X                  Y                   Z               Mass
    ------------   -----------------  -----------------  -----------------  -----------------
         C            0.400399101267     0.558263316714    -1.197678183973    12.000000000000
         C            1.267399101267     0.891263316714    -2.383678183973    12.000000000000
         C           -0.132600898733     1.888263316714    -0.738678183973    12.000000000000
         H            1.018399101267     0.142263316714    -0.408678183973     1.007825032230
         H           -0.404600898733    -0.127736683286    -1.463678183973     1.007825032230
         H            2.086399101267     0.176263316714    -2.471678183973     1.007825032230
         H            0.657399101267     0.909263316714    -3.286678183973     1.007825032230
         H           -0.395600898733     1.864263316714     0.314321816027     1.007825032230
         H           -0.989600898733     2.168263316714    -1.338678183973     1.007825032230
         H            1.629869101267     1.905133316714    -2.158538183973     1.007825032230
         H            0.678659101267     2.602553316714    -0.942758183973     1.007825032230
         C           -0.833600898733    -1.290736683286     1.457321816027    12.000000000000
         C           -0.684600898733    -2.023736683286     2.785321816027    12.000000000000
         H           -0.746600898733    -0.213736683286     1.605321816027     1.007825032230
         H           -0.042600898733    -1.609736683286     0.777321816027     1.007825032230
         H           -1.798600898733    -1.525736683286     1.005321816027     1.007825032230
         H            0.219399101267    -1.639736683286     3.248321816027     1.007825032230
         H           -1.549740898733    -1.826496683286     3.435422816027     1.007825032230
         H           -0.565140898733    -3.102449683286     2.606135816027     1.007825032230

  Running in c1 symmetry.

  Rotational constants: A =      0.30490  B =      0.03791  C =      0.03528 [cm^-1]
  Rotational constants: A =   9140.67824  B =   1136.62431  C =   1057.54994 [MHz]
  Nuclear repulsion =  180.438330417244799

  Charge       = 0
  Multiplicity = 1
  Electrons    = 44
  Nalpha       = 22
  Nbeta        = 22

  ==> Algorithm <==

  SCF Algorithm Type is PK.
  DIIS enabled.
  MOM disabled.
  Fractional occupation disabled.
  Guess Type is SAD.
  Energy threshold   = 1.00e-06
  Density threshold  = 1.00e-10
  Integral threshold = 0.00e+00

  ==> Primary Basis <==

  Basis Set: CC-PVDZ
    Blend: CC-PVDZ
    Number of shells: 72
    Number of basis function: 140
    Number of Cartesian functions: 145
    Spherical Harmonics?: true
    Max angular momentum: 2

  ==> Pre-Iterations <==

   -------------------------------------------------------
    Irrep   Nso     Nmo     Nalpha   Nbeta   Ndocc  Nsocc
   -------------------------------------------------------
     A        140     140       0       0       0       0
   -------------------------------------------------------
    Total     140     140      22      22      22       0
   -------------------------------------------------------

  ==> Integral Setup <==

  Using integral reordering PK algorithm.
  Sizing the integral batches needed.
  Building batch lookup table.
   Calculation information:
      Number of atoms:                  19
      Number of AO shells:              72
      Number of primitives:            180
      Number of atomic orbitals:       145
      Number of basis functions:       140

      Integral cutoff                 1.00e-12
      Number of threads:                 1

	Batch   1 pq = [       0,    9405] index = [             0,44231715] size =     44231715
	Batch   2 pq = [    9405,    9870] index = [      44231715,48713385] size =      4481670
  Task number: 5
  Buffer size: 11059200
  Buffer per thread: 2
  We computed 2831531 shell quartets total.
  Whereas there are 3454506 unique shell quartets.

  ==> DiskJK: Disk-Based J/K Matrices <==

    J tasked:                  Yes
    K tasked:                  Yes
    wK tasked:                  No
    Memory [MiB]:              375
    Schwarz Cutoff:          1E-12

    OpenMP threads:              1

  Minimum eigenvalue in the overlap matrix is 4.5019705907E-03.
  Using Symmetric Orthogonalization.

  SCF Guess: Superposition of Atomic Densities via on-the-fly atomic UHF.

  ==> Iterations <==

                        Total Energy        Delta E     RMS |[F,P]|

   @RHF iter SAD:  -196.58436237023525   -1.96584e+02   0.00000e+00
   @RHF iter   1:  -197.28524013929385   -7.00878e-01   3.90062e-03 DIIS
   @RHF iter   2:  -197.45034004472450   -1.65100e-01   1.69889e-03 DIIS
   @RHF iter   3:  -197.48057599533831   -3.02360e-02   3.32170e-04 DIIS
   @RHF iter   4:  -197.48282547472610   -2.24948e-03   5.06005e-05 DIIS
   @RHF iter   5:  -197.48286730892511   -4.18342e-05   1.53821e-05 DIIS
   @RHF iter   6:  -197.48287100922590   -3.70030e-06   2.71092e-06 DIIS
   @RHF iter   7:  -197.48287114215003   -1.32924e-07   5.01093e-07 DIIS
   @RHF iter   8:  -197.48287114741444   -5.26441e-09   1.14447e-07 DIIS
   @RHF iter   9:  -197.48287114768712   -2.72678e-10   3.73312e-08 DIIS
   @RHF iter  10:  -197.48287114771622   -2.91038e-11   8.31626e-09 DIIS
   @RHF iter  11:  -197.48287114771804   -1.81899e-12   1.57160e-09 DIIS
   @RHF iter  12:  -197.48287114771898   -9.37916e-13   3.08847e-10 DIIS
   @RHF iter  13:  -197.48287114771827    7.10543e-13   7.16525e-11 DIIS
  Energy and wave function converged.

  ==> Post-Iterations <==

    Orbital Energies [Eh]
    ---------------------

    Doubly Occupied:

       1A    -11.218015     2A    -11.215143     3A    -11.210891
       4A    -11.210193     5A    -11.209469     6A     -1.070727
       7A     -1.019604     8A     -0.915675     9A     -0.835308
      10A     -0.796754    11A     -0.638394    12A     -0.615798
      13A     -0.599403    14A     -0.598651    15A     -0.544712
      16A     -0.512403    17A     -0.500605    18A     -0.488058
      19A     -0.484573    20A     -0.478148    21A     -0.465060
      22A     -0.459127

    Virtual:

      23A      0.175232    24A      0.195026    25A      0.221206
      26A      0.223462    27A      0.226282    28A      0.248126
      29A      0.257978    30A      0.268791    31A      0.276835
      32A      0.289801    33A      0.302289    34A      0.310916
      35A      0.328918    36A      0.357129    37A      0.382532
      38A      0.403461    39A      0.450221    40A      0.564582
      41A      0.582701    42A      0.599271    43A      0.605511
      44A      0.606180    45A      0.637746    46A      0.658649
      47A      0.673277    48A      0.702338    49A      0.769994
      50A      0.787621    51A      0.817545    52A      0.835978
      53A      0.857261    54A      0.879085    55A      0.892265
      56A      0.893924    57A      0.901127    58A      0.903348
      59A      0.908522    60A      0.914805    61A      0.920839
      62A      0.922527    63A      0.930155    64A      0.954772
      65A      0.965644    66A      0.977966    67A      0.987422
      68A      1.007167    69A      1.103266    70A      1.121347
      71A      1.129467    72A      1.161826    73A      1.187322
      74A      1.268158    75A      1.444122    76A      1.465552
      77A      1.476925    78A      1.484524    79A      1.497776
      80A      1.590832    81A      1.622453    82A      1.626811
      83A      1.648195    84A      1.676863    85A      1.694018
      86A      1.721738    87A      1.745409    88A      1.803331
      89A      1.856954    90A      1.862887    91A      1.878427
      92A      1.889655    93A      1.920962    94A      1.923254
      95A      1.928954    96A      1.939747    97A      1.943330
      98A      1.953369    99A      1.961611   100A      1.965436
     101A      1.978680   102A      1.992509   103A      2.009061
     104A      2.030640   105A      2.044825   106A      2.095945
     107A      2.107942   108A      2.126511   109A      2.135883
     110A      2.146148   111A      2.217031   112A      2.248397
     113A      2.302094   114A      2.312537   115A      2.334469
     116A      2.373457   117A      2.450299   118A      2.457298
     119A      2.465910   120A      2.478730   121A      2.513470
     122A      2.563356   123A      2.565512   124A      2.595245
     125A      2.643616   126A      2.707129   127A      2.756516
     128A      2.771238   129A      2.788055   130A      2.794739
     131A      2.807121   132A      2.838747   133A      2.846346
     134A      2.855060   135A      2.876617   136A      2.938901
     137A      2.954290   138A      2.959452   139A      2.971022
     140A      3.065126

    Final Occupation by Irrep:
              A
    DOCC [    22 ]

  @RHF Final Energy:  -197.48287114771827

   => Energetics <=

    Nuclear Repulsion Energy =            180.4383304172447993
    One-Electron Energy =                -621.6689811903717100
    Two-Electron Energy =                 243.7477796254086400
    Total Energy =                       -197.4828711477182708

Computation Completed

Properties will be evaluated at   0.000000,   0.000000,   0.000000 [a0]

Properties computed using the SCF density matrix

  Nuclear Dipole Moment: [e a0]
     X:    -0.1897      Y:    -0.2603      Z:     0.8639

  Electronic Dipole Moment: [e a0]
     X:     0.1816      Y:     0.2261      Z:    -0.8580

  Dipole Moment: [e a0]
     X:    -0.0081      Y:    -0.0342      Z:     0.0059     Total:     0.0356

  Dipole Moment: [D]
     X:    -0.0206      Y:    -0.0869      Z:     0.0150     Total:     0.0906

*** tstop() called on ds3 at Mon Apr 27 22:55:52 2020
Module time:
	user time   =      15.01 seconds =       0.25 minutes
	system time =       5.92 seconds =       0.10 minutes
	total time  =         23 seconds =       0.38 minutes
Total time:
	user time   =      15.01 seconds =       0.25 minutes
	system time =       5.92 seconds =       0.10 minutes
	total time  =         23 seconds =       0.38 minutes
                                     G D M A

                                 by Anthony Stone

                           version 2.2.06, 22 June 2011

               Distributed Multipoles from Gaussian wavefunctions

Starting at 22:55:52 on 27 Apr 2020

Using SCF density matrix from file ./SSI/SSI-159PRO-164VAL-1-dimer.test.3304.fchk

                         Distributed Multipole Analysis

Standard DMA

Positions and radii in angstrom
Multipole moments in atomic units, ea_0^k for rank k

C          x =  0.400399  y =  0.558263  z = -1.197678 angstrom
           Maximum rank =  0   Radius =  0.650 angstrom
                   Q00  =  -0.090396

C          x =  1.267399  y =  0.891263  z = -2.383678 angstrom
           Maximum rank =  0   Radius =  0.650 angstrom
                   Q00  =  -0.217672

C          x = -0.132601  y =  1.888263  z = -0.738678 angstrom
           Maximum rank =  0   Radius =  0.650 angstrom
                   Q00  =  -0.215587

H          x =  1.018399  y =  0.142263  z = -0.408678 angstrom
           Maximum rank =  0   Radius =  0.325 angstrom
                   Q00  =   0.049047

H          x = -0.404601  y = -0.127737  z = -1.463678 angstrom
           Maximum rank =  0   Radius =  0.325 angstrom
                   Q00  =   0.052730

H          x =  2.086399  y =  0.176263  z = -2.471678 angstrom
           Maximum rank =  0   Radius =  0.325 angstrom
                   Q00  =   0.079571

H          x =  0.657399  y =  0.909263  z = -3.286678 angstrom
           Maximum rank =  0   Radius =  0.325 angstrom
                   Q00  =   0.077209

H          x = -0.395601  y =  1.864263  z =  0.314322 angstrom
           Maximum rank =  0   Radius =  0.325 angstrom
                   Q00  =   0.080047

H          x = -0.989601  y =  2.168263  z = -1.338678 angstrom
           Maximum rank =  0   Radius =  0.325 angstrom
                   Q00  =   0.076355

H          x =  1.629869  y =  1.905133  z = -2.158538 angstrom
           Maximum rank =  0   Radius =  0.325 angstrom
                   Q00  =   0.060101

H          x =  0.678659  y =  2.602553  z = -0.942758 angstrom
           Maximum rank =  0   Radius =  0.325 angstrom
                   Q00  =   0.049175

C          x = -0.833601  y = -1.290737  z =  1.457322 angstrom
           Maximum rank =  0   Radius =  0.650 angstrom
                   Q00  =  -0.248010

C          x = -0.684601  y = -2.023737  z =  2.785322 angstrom
           Maximum rank =  0   Radius =  0.650 angstrom
                   Q00  =  -0.220773

H          x = -0.746601  y = -0.213737  z =  1.605322 angstrom
           Maximum rank =  0   Radius =  0.325 angstrom
                   Q00  =   0.077587

H          x = -0.042601  y = -1.609737  z =  0.777322 angstrom
           Maximum rank =  0   Radius =  0.325 angstrom
                   Q00  =   0.077677

H          x = -1.798601  y = -1.525737  z =  1.005322 angstrom
           Maximum rank =  0   Radius =  0.325 angstrom
                   Q00  =   0.077780

H          x =  0.219399  y = -1.639737  z =  3.248322 angstrom
           Maximum rank =  0   Radius =  0.325 angstrom
                   Q00  =   0.076346

H          x = -1.549741  y = -1.826497  z =  3.435423 angstrom
           Maximum rank =  0   Radius =  0.325 angstrom
                   Q00  =   0.079940

H          x = -0.565141  y = -3.102450  z =  2.606136 angstrom
           Maximum rank =  0   Radius =  0.325 angstrom
                   Q00  =   0.078874

Total multipoles referred to origin at
           x =   0.000000,  y =    0.000000,  z =    0.000000 angstrom
                   Q00  =  -0.000000

Finished at 22:55:52 on 27 Apr 2020

  DMA results are available in the Python driver through the
	  variable('DMA DISTRIBUTED MULTIPOLES')
  and
	  variable('DMA TOTAL MULTIPOLES')
  commands.

    Psi4 stopped on: Monday, 27 April 2020 10:55PM
    Psi4 wall time for execution: 0:00:23.04

*** Psi4 exiting successfully. Buy a developer a beer!
