                               Psi4 1.3.2 release

  ==> Input File <==

--------------------------------------------------------------------------
import numpy as np
set {scf_type pk
basis cc-pvdz
d_convergence 10
gdma_switch   0
gdma_limit    0
gdma_origin   [ 0.0,  0.0,  0.0 ]
}
molecule test {
    units Angstrom
    0 1
    --
    0 1
    C                3.072772553470663     0.683539709726191    -0.212031340792728
    C               -0.698227446529337    -0.920460290273809     1.141968659207273
    C                0.083772553470663    -1.657460290273809     0.264968659207272
    C               -0.290227446529337     0.339539709726191     1.545968659207272
    C                1.305772553470663    -1.120460290273809    -0.190031340792728
    C                0.929772553470663     0.857539709726191     1.099968659207272
    C                1.734772553470663     0.141539709726191     0.218968659207272
    O               -1.900227446529337    -1.408460290273809     1.593968659207272
    H               -0.238227446529337    -2.635460290273810    -0.062031340792728
    H               -2.175227446529338    -2.122460290273809     1.015968659207272
    H               -0.915227446529337     0.912539709726191     2.213968659207272
    H                1.927772553470663    -1.695460290273809    -0.863031340792728
    H                1.217772553470663     1.845539709726191     1.410968659207272
    H                3.056772553470663     1.774539709726191    -0.179031340792728
    H                3.273772553470663     0.378539709726191    -1.236031340792728
    H                3.884642553470663     0.301359709726191     0.424218659207272
    C               -1.313227446529337     1.193539709726191    -1.926031340792728
    C               -2.237227446529337     1.731539709726191    -3.047031340792728
    H               -0.425227446529337     1.819539709726191    -1.842031340792728
    H               -1.845227446529337     1.202539709726191    -0.976031340792728
    H               -1.013227446529337     0.170539709726191    -2.150031340792728
    H               -3.114227446529338     1.085539709726191    -3.088031340792728
    H               -1.706797446529337     1.695549709726191    -4.010021340792727
    H               -2.583667446529337     2.750509709726191    -2.819701340792728

}
e, wfn = energy('scf', return_wfn=True)
gdma(wfn)
dmavals = variable('DMA DISTRIBUTED MULTIPOLES')
charges = np.array(dmavals)
print(charges)
np.save('SSI-025TYR-084LEU-1-dimer.npy', np.array(charges))--------------------------------------------------------------------------

*** tstart() called on ds3
*** at Sun Apr 26 18:45:36 2020

   => Loading Basis Set <=

    Name: CC-PVDZ
    Role: ORBITAL
    Keyword: BASIS
    atoms 1-7, 17-18  entry C          line   138 file /theoryfs2/ds/metcalf/miniconda2/envs/tf2gpu/share/psi4/basis/cc-pvdz.gbs
    atoms 8           entry O          line   198 file /theoryfs2/ds/metcalf/miniconda2/envs/tf2gpu/share/psi4/basis/cc-pvdz.gbs
    atoms 9-16, 19-24 entry H          line    22 file /theoryfs2/ds/metcalf/miniconda2/envs/tf2gpu/share/psi4/basis/cc-pvdz.gbs

         ---------------------------------------------------------
                                   SCF
               by Justin Turney, Rob Parrish, Andy Simmonett
                          and Daniel G. A. Smith
                              RHF Reference
                        1 Threads,    500 MiB Core
         ---------------------------------------------------------

  ==> Geometry <==

    Molecular point group: c1
    Full point group: C1

    Geometry (in Angstrom), charge = 0, multiplicity = 1:

       Center              X                  Y                   Z               Mass
    ------------   -----------------  -----------------  -----------------  -----------------
         C            3.072772553471     0.683539709726    -0.212031340793    12.000000000000
         C           -0.698227446529    -0.920460290274     1.141968659207    12.000000000000
         C            0.083772553471    -1.657460290274     0.264968659207    12.000000000000
         C           -0.290227446529     0.339539709726     1.545968659207    12.000000000000
         C            1.305772553471    -1.120460290274    -0.190031340793    12.000000000000
         C            0.929772553471     0.857539709726     1.099968659207    12.000000000000
         C            1.734772553471     0.141539709726     0.218968659207    12.000000000000
         O           -1.900227446529    -1.408460290274     1.593968659207    15.994914619570
         H           -0.238227446529    -2.635460290274    -0.062031340793     1.007825032230
         H           -2.175227446529    -2.122460290274     1.015968659207     1.007825032230
         H           -0.915227446529     0.912539709726     2.213968659207     1.007825032230
         H            1.927772553471    -1.695460290274    -0.863031340793     1.007825032230
         H            1.217772553471     1.845539709726     1.410968659207     1.007825032230
         H            3.056772553471     1.774539709726    -0.179031340793     1.007825032230
         H            3.273772553471     0.378539709726    -1.236031340793     1.007825032230
         H            3.884642553471     0.301359709726     0.424218659207     1.007825032230
         C           -1.313227446529     1.193539709726    -1.926031340793    12.000000000000
         C           -2.237227446529     1.731539709726    -3.047031340793    12.000000000000
         H           -0.425227446529     1.819539709726    -1.842031340793     1.007825032230
         H           -1.845227446529     1.202539709726    -0.976031340793     1.007825032230
         H           -1.013227446529     0.170539709726    -2.150031340793     1.007825032230
         H           -3.114227446529     1.085539709726    -3.088031340793     1.007825032230
         H           -1.706797446529     1.695549709726    -4.010021340793     1.007825032230
         H           -2.583667446529     2.750509709726    -2.819701340793     1.007825032230

  Running in c1 symmetry.

  Rotational constants: A =      0.03881  B =      0.02993  C =      0.02075 [cm^-1]
  Rotational constants: A =   1163.41064  B =    897.30561  C =    622.07833 [MHz]
  Nuclear repulsion =  503.274609340797156

  Charge       = 0
  Multiplicity = 1
  Electrons    = 76
  Nalpha       = 38
  Nbeta        = 38

  ==> Algorithm <==

  SCF Algorithm Type is PK.
  DIIS enabled.
  MOM disabled.
  Fractional occupation disabled.
  Guess Type is SAD.
  Energy threshold   = 1.00e-06
  Density threshold  = 1.00e-10
  Integral threshold = 0.00e+00

  ==> Primary Basis <==

  Basis Set: CC-PVDZ
    Blend: CC-PVDZ
    Number of shells: 102
    Number of basis function: 210
    Number of Cartesian functions: 220
    Spherical Harmonics?: true
    Max angular momentum: 2

  ==> Pre-Iterations <==

   -------------------------------------------------------
    Irrep   Nso     Nmo     Nalpha   Nbeta   Ndocc  Nsocc
   -------------------------------------------------------
     A        210     210       0       0       0       0
   -------------------------------------------------------
    Total     210     210      38      38      38       0
   -------------------------------------------------------

  ==> Integral Setup <==

  Using integral reordering PK algorithm.
  Sizing the integral batches needed.
  Building batch lookup table.
   Calculation information:
      Number of atoms:                  24
      Number of AO shells:             102
      Number of primitives:            290
      Number of atomic orbitals:       220
      Number of basis functions:       210

      Integral cutoff                 1.00e-12
      Number of threads:                 1

	Batch   1 pq = [       0,    9405] index = [             0,44231715] size =     44231715
	Batch   2 pq = [    9405,   13301] index = [      44231715,88464951] size =     44233236
	Batch   3 pq = [   13301,   16290] index = [      88464951,132690195] size =     44225244
	Batch   4 pq = [   16290,   18810] index = [     132690195,176917455] size =     44227260
	Batch   5 pq = [   18810,   21030] index = [     176917455,221140965] size =     44223510
	Batch   6 pq = [   21030,   22155] index = [     221140965,245433090] size =     24292125
  Task number: 23
  Buffer size: 11059200
  Buffer per thread: 2
  We computed 12706081 shell quartets total.
  Whereas there are 13799631 unique shell quartets.

  ==> DiskJK: Disk-Based J/K Matrices <==

    J tasked:                  Yes
    K tasked:                  Yes
    wK tasked:                  No
    Memory [MiB]:              375
    Schwarz Cutoff:          1E-12

    OpenMP threads:              1

  Minimum eigenvalue in the overlap matrix is 3.2812520143E-04.
  Using Symmetric Orthogonalization.

  SCF Guess: Superposition of Atomic Densities via on-the-fly atomic UHF.

  ==> Iterations <==

                        Total Energy        Delta E     RMS |[F,P]|

   @RHF iter SAD:  -422.62731713034964   -4.22627e+02   0.00000e+00
   @RHF iter   1:  -423.60384754418266   -9.76530e-01   2.96356e-03 DIIS
   @RHF iter   2:  -423.81825083177932   -2.14403e-01   1.24853e-03 DIIS
   @RHF iter   3:  -423.85244136537773   -3.41905e-02   2.85286e-04 DIIS
   @RHF iter   4:  -423.85527990442120   -2.83854e-03   1.20784e-04 DIIS
   @RHF iter   5:  -423.85565341558339   -3.73511e-04   2.03770e-05 DIIS
   @RHF iter   6:  -423.85567054987598   -1.71343e-05   6.35084e-06 DIIS
   @RHF iter   7:  -423.85567212640183   -1.57653e-06   2.06799e-06 DIIS
   @RHF iter   8:  -423.85567234073829   -2.14336e-07   7.70138e-07 DIIS
   @RHF iter   9:  -423.85567237597257   -3.52343e-08   2.97903e-07 DIIS
   @RHF iter  10:  -423.85567238253634   -6.56377e-09   1.22571e-07 DIIS
   @RHF iter  11:  -423.85567238441024   -1.87390e-09   5.79871e-08 DIIS
   @RHF iter  12:  -423.85567238481337   -4.03134e-10   2.76419e-08 DIIS
   @RHF iter  13:  -423.85567238489716   -8.37872e-11   8.25374e-09 DIIS
   @RHF iter  14:  -423.85567238490137   -4.20641e-12   2.23424e-09 DIIS
   @RHF iter  15:  -423.85567238490506   -3.69482e-12   7.98185e-10 DIIS
   @RHF iter  16:  -423.85567238490319    1.87583e-12   3.16905e-10 DIIS
   @RHF iter  17:  -423.85567238490268    5.11591e-13   1.54120e-10 DIIS
   @RHF iter  18:  -423.85567238490421   -1.53477e-12   7.61195e-11 DIIS
  Energy and wave function converged.

  ==> Post-Iterations <==

    Orbital Energies [Eh]
    ---------------------

    Doubly Occupied:

       1A    -20.582148     2A    -11.296520     3A    -11.241300
       4A    -11.237451     5A    -11.236178     6A    -11.234391
       7A    -11.229645     8A    -11.229296     9A    -11.214180
      10A    -11.207083    11A     -1.396996    12A     -1.150450
      13A     -1.039521    14A     -1.015077    15A     -1.005163
      16A     -0.927371    17A     -0.846230    18A     -0.829261
      19A     -0.798829    20A     -0.727675    21A     -0.667262
      22A     -0.642039    23A     -0.611384    24A     -0.589737
      25A     -0.587285    26A     -0.585056    27A     -0.583963
      28A     -0.573730    29A     -0.564455    30A     -0.527373
      31A     -0.498276    32A     -0.489821    33A     -0.486166
      34A     -0.481375    35A     -0.478160    36A     -0.463003
      37A     -0.335622    38A     -0.305646

    Virtual:

      39A      0.126192    40A      0.154337    41A      0.175927
      42A      0.182842    43A      0.198157    44A      0.215003
      45A      0.218924    46A      0.250521    47A      0.258365
      48A      0.262101    49A      0.266744    50A      0.269415
      51A      0.280599    52A      0.289641    53A      0.298865
      54A      0.306680    55A      0.369121    56A      0.372577
      57A      0.390870    58A      0.426791    59A      0.454585
      60A      0.483074    61A      0.493410    62A      0.504524
      63A      0.569298    64A      0.600264    65A      0.604737
      66A      0.613182    67A      0.633190    68A      0.643535
      69A      0.656278    70A      0.666250    71A      0.679770
      72A      0.684027    73A      0.703569    74A      0.729790
      75A      0.737993    76A      0.767071    77A      0.772663
      78A      0.779102    79A      0.792670    80A      0.793641
      81A      0.822802    82A      0.838650    83A      0.841945
      84A      0.857853    85A      0.871596    86A      0.877511
      87A      0.888604    88A      0.895473    89A      0.899185
      90A      0.901087    91A      0.919478    92A      0.922857
      93A      0.928635    94A      0.936675    95A      0.938630
      96A      0.954299    97A      0.958730    98A      0.968648
      99A      0.999346   100A      1.018197   101A      1.030567
     102A      1.064798   103A      1.122123   104A      1.125224
     105A      1.134503   106A      1.145379   107A      1.155130
     108A      1.171991   109A      1.200663   110A      1.237335
     111A      1.242924   112A      1.258195   113A      1.272045
     114A      1.282483   115A      1.296881   116A      1.309528
     117A      1.311769   118A      1.348596   119A      1.368934
     120A      1.381340   121A      1.470347   122A      1.477105
     123A      1.479491   124A      1.502770   125A      1.524556
     126A      1.564288   127A      1.596328   128A      1.614671
     129A      1.617691   130A      1.673736   131A      1.683409
     132A      1.697468   133A      1.702860   134A      1.730522
     135A      1.744021   136A      1.782178   137A      1.801469
     138A      1.810896   139A      1.862155   140A      1.871545
     141A      1.882808   142A      1.890922   143A      1.892569
     144A      1.903352   145A      1.910383   146A      1.917308
     147A      1.928523   148A      1.944150   149A      1.948453
     150A      1.950890   151A      1.954709   152A      1.958619
     153A      1.971023   154A      1.980079   155A      1.990435
     156A      2.029994   157A      2.035864   158A      2.050482
     159A      2.067525   160A      2.074953   161A      2.087761
     162A      2.100647   163A      2.125396   164A      2.140628
     165A      2.150399   166A      2.157150   167A      2.210423
     168A      2.222245   169A      2.262369   170A      2.276885
     171A      2.291573   172A      2.304133   173A      2.327395
     174A      2.334157   175A      2.360544   176A      2.417251
     177A      2.450618   178A      2.459444   179A      2.473729
     180A      2.479984   181A      2.501055   182A      2.536373
     183A      2.551309   184A      2.565304   185A      2.580845
     186A      2.602995   187A      2.632140   188A      2.753169
     189A      2.764785   190A      2.773066   191A      2.785157
     192A      2.800840   193A      2.810070   194A      2.838137
     195A      2.849266   196A      2.860036   197A      2.902741
     198A      2.950779   199A      2.964271   200A      2.973805
     201A      3.005066   202A      3.082428   203A      3.109009
     204A      3.277985   205A      3.281463   206A      3.344697
     207A      3.568174   208A      3.685129   209A      3.943969
     210A      4.179342

    Final Occupation by Irrep:
              A
    DOCC [    38 ]

  @RHF Final Energy:  -423.85567238490421

   => Energetics <=

    Nuclear Repulsion Energy =            503.2746093407971557
    One-Electron Energy =               -1572.4303239167088577
    Two-Electron Energy =                 645.3000421910073783
    Total Energy =                       -423.8556723849042100

Computation Completed

Properties will be evaluated at   0.000000,   0.000000,   0.000000 [a0]

Properties computed using the SCF density matrix

  Nuclear Dipole Moment: [e a0]
     X:    -0.6244      Y:     7.0087      Z:   -11.3928

  Electronic Dipole Moment: [e a0]
     X:     0.8897      Y:    -7.2958      Z:    10.9735

  Dipole Moment: [e a0]
     X:     0.2653      Y:    -0.2871      Z:    -0.4193     Total:     0.5732

  Dipole Moment: [D]
     X:     0.6743      Y:    -0.7298      Z:    -1.0656     Total:     1.4570

*** tstop() called on ds3 at Sun Apr 26 18:47:43 2020
Module time:
	user time   =      94.22 seconds =       1.57 minutes
	system time =      37.34 seconds =       0.62 minutes
	total time  =        127 seconds =       2.12 minutes
Total time:
	user time   =      94.22 seconds =       1.57 minutes
	system time =      37.34 seconds =       0.62 minutes
	total time  =        127 seconds =       2.12 minutes
                                     G D M A

                                 by Anthony Stone

                           version 2.2.06, 22 June 2011

               Distributed Multipoles from Gaussian wavefunctions

Starting at 18:47:43 on 26 Apr 2020

Using SCF density matrix from file ./SSI/SSI-025TYR-084LEU-1-dimer.test.14206.fchk

                         Distributed Multipole Analysis

Standard DMA

Positions and radii in angstrom
Multipole moments in atomic units, ea_0^k for rank k

C          x =  3.072773  y =  0.683540  z = -0.212031 angstrom
           Maximum rank =  0   Radius =  0.650 angstrom
                   Q00  =  -0.198857

C          x = -0.698227  y = -0.920460  z =  1.141969 angstrom
           Maximum rank =  0   Radius =  0.650 angstrom
                   Q00  =   0.312886

C          x =  0.083773  y = -1.657460  z =  0.264969 angstrom
           Maximum rank =  0   Radius =  0.650 angstrom
                   Q00  =  -0.191006

C          x = -0.290227  y =  0.339540  z =  1.545969 angstrom
           Maximum rank =  0   Radius =  0.650 angstrom
                   Q00  =  -0.109834

C          x =  1.305773  y = -1.120460  z = -0.190031 angstrom
           Maximum rank =  0   Radius =  0.650 angstrom
                   Q00  =  -0.031287

C          x =  0.929773  y =  0.857540  z =  1.099969 angstrom
           Maximum rank =  0   Radius =  0.650 angstrom
                   Q00  =   0.035138

C          x =  1.734773  y =  0.141540  z =  0.218969 angstrom
           Maximum rank =  0   Radius =  0.650 angstrom
                   Q00  =  -0.128298

O          x = -1.900227  y = -1.408460  z =  1.593969 angstrom
           Maximum rank =  0   Radius =  0.650 angstrom
                   Q00  =  -0.667526

H          x = -0.238227  y = -2.635460  z = -0.062031 angstrom
           Maximum rank =  0   Radius =  0.325 angstrom
                   Q00  =   0.073754

H          x = -2.175227  y = -2.122460  z =  1.015969 angstrom
           Maximum rank =  0   Radius =  0.325 angstrom
                   Q00  =   0.400170

H          x = -0.915227  y =  0.912540  z =  2.213969 angstrom
           Maximum rank =  0   Radius =  0.325 angstrom
                   Q00  =   0.080547

H          x =  1.927773  y = -1.695460  z = -0.863031 angstrom
           Maximum rank =  0   Radius =  0.325 angstrom
                   Q00  =   0.068231

H          x =  1.217773  y =  1.845540  z =  1.410969 angstrom
           Maximum rank =  0   Radius =  0.325 angstrom
                   Q00  =   0.063244

H          x =  3.056773  y =  1.774540  z = -0.179031 angstrom
           Maximum rank =  0   Radius =  0.325 angstrom
                   Q00  =   0.097388

H          x =  3.273773  y =  0.378540  z = -1.236031 angstrom
           Maximum rank =  0   Radius =  0.325 angstrom
                   Q00  =   0.096747

H          x =  3.884643  y =  0.301360  z =  0.424219 angstrom
           Maximum rank =  0   Radius =  0.325 angstrom
                   Q00  =   0.101148

C          x = -1.313227  y =  1.193540  z = -1.926031 angstrom
           Maximum rank =  0   Radius =  0.650 angstrom
                   Q00  =  -0.220485

C          x = -2.237227  y =  1.731540  z = -3.047031 angstrom
           Maximum rank =  0   Radius =  0.650 angstrom
                   Q00  =  -0.254757

H          x = -0.425227  y =  1.819540  z = -1.842031 angstrom
           Maximum rank =  0   Radius =  0.325 angstrom
                   Q00  =   0.077779

H          x = -1.845227  y =  1.202540  z = -0.976031 angstrom
           Maximum rank =  0   Radius =  0.325 angstrom
                   Q00  =   0.082851

H          x = -1.013227  y =  0.170540  z = -2.150031 angstrom
           Maximum rank =  0   Radius =  0.325 angstrom
                   Q00  =   0.080254

H          x = -3.114227  y =  1.085540  z = -3.088031 angstrom
           Maximum rank =  0   Radius =  0.325 angstrom
                   Q00  =   0.075059

H          x = -1.706797  y =  1.695550  z = -4.010021 angstrom
           Maximum rank =  0   Radius =  0.325 angstrom
                   Q00  =   0.077379

H          x = -2.583667  y =  2.750510  z = -2.819701 angstrom
           Maximum rank =  0   Radius =  0.325 angstrom
                   Q00  =   0.079476

Total multipoles referred to origin at
           x =   0.000000,  y =    0.000000,  z =    0.000000 angstrom
                   Q00  =  -0.000000

Finished at 18:47:43 on 26 Apr 2020

  DMA results are available in the Python driver through the
	  variable('DMA DISTRIBUTED MULTIPOLES')
  and
	  variable('DMA TOTAL MULTIPOLES')
  commands.

    Psi4 stopped on: Sunday, 26 April 2020 06:47PM
    Psi4 wall time for execution: 0:02:07.30

*** Psi4 exiting successfully. Buy a developer a beer!
