                               Psi4 1.3.2 release

  ==> Input File <==

--------------------------------------------------------------------------
import numpy as np
set {scf_type pk
basis cc-pvdz
d_convergence 10
gdma_switch   0
gdma_limit    0
gdma_origin   [ 0.0,  0.0,  0.0 ]
}
molecule test {
    units Angstrom
    0 1
    --
    0 1
    C               -2.594102519656610    -1.408593088625321    -0.678056788494216
    C               -1.191102519656610     0.753406911374679    -0.511056788494216
    C               -2.358102519656610     0.067406911374679    -0.618056788494216
    C               -2.838102519656610     2.209406911374679    -0.488056788494216
    N               -1.512102519656610     2.088406911374679    -0.441056788494216
    N               -3.379102519656610     0.994406911374679    -0.547056788494216
    H               -0.214102519656610     0.338406911374679    -0.512056788494216
    H               -0.854102519656610     2.861406911374679    -0.338056788494216
    H               -2.091102519656610    -1.801593088625321    -1.562056788494216
    H               -3.663102519656610    -1.605593088625321    -0.780056788494216
    H               -3.386102519656610     3.144406911374678    -0.432056788494216
    H               -2.196252519656610    -1.917633088625321     0.212223211505784
    C                2.717897480343390     1.399406911374679     0.608943211505784
    C                2.455897480343390    -0.085593088625321     0.646943211505784
    C                1.690897480343390    -1.990593088625321    -0.148056788494216
    C                2.807897480343390    -1.068593088625321     1.522943211505784
    N                1.788897480343390    -0.682593088625321    -0.404056788494216
    N                2.296897480343390    -2.258593088625322     1.010943211505784
    H                1.233897480343390    -2.725593088625321    -0.800056788494216
    H                2.233897480343390     1.796406911374679    -0.282056788494216
    H                3.778897480343391     1.597406911374679     0.499943211505784
    H                2.404897480343390    -3.195593088625321     1.400943211505784
    H                3.385897480343390    -0.945593088625321     2.422943211505785
    H                2.328167480343390     1.959146911374679     1.471963211505784

}
e, wfn = energy('scf', return_wfn=True)
gdma(wfn)
dmavals = variable('DMA DISTRIBUTED MULTIPOLES')
charges = np.array(dmavals)
print(charges)
np.save('SSI-048HIE-099HIE-2-dimer.npy', np.array(charges))--------------------------------------------------------------------------

*** tstart() called on ds3
*** at Mon Apr 27 19:57:25 2020

   => Loading Basis Set <=

    Name: CC-PVDZ
    Role: ORBITAL
    Keyword: BASIS
    atoms 1-4, 13-16  entry C          line   138 file /theoryfs2/ds/metcalf/miniconda2/envs/tf2gpu/share/psi4/basis/cc-pvdz.gbs
    atoms 5-6, 17-18  entry N          line   168 file /theoryfs2/ds/metcalf/miniconda2/envs/tf2gpu/share/psi4/basis/cc-pvdz.gbs
    atoms 7-12, 19-24 entry H          line    22 file /theoryfs2/ds/metcalf/miniconda2/envs/tf2gpu/share/psi4/basis/cc-pvdz.gbs

         ---------------------------------------------------------
                                   SCF
               by Justin Turney, Rob Parrish, Andy Simmonett
                          and Daniel G. A. Smith
                              RHF Reference
                        1 Threads,    500 MiB Core
         ---------------------------------------------------------

  ==> Geometry <==

    Molecular point group: c1
    Full point group: C1

    Geometry (in Angstrom), charge = 0, multiplicity = 1:

       Center              X                  Y                   Z               Mass
    ------------   -----------------  -----------------  -----------------  -----------------
         C           -2.594102519657    -1.408593088625    -0.678056788494    12.000000000000
         C           -1.191102519657     0.753406911375    -0.511056788494    12.000000000000
         C           -2.358102519657     0.067406911375    -0.618056788494    12.000000000000
         C           -2.838102519657     2.209406911375    -0.488056788494    12.000000000000
         N           -1.512102519657     2.088406911375    -0.441056788494    14.003074004430
         N           -3.379102519657     0.994406911375    -0.547056788494    14.003074004430
         H           -0.214102519657     0.338406911375    -0.512056788494     1.007825032230
         H           -0.854102519657     2.861406911375    -0.338056788494     1.007825032230
         H           -2.091102519657    -1.801593088625    -1.562056788494     1.007825032230
         H           -3.663102519657    -1.605593088625    -0.780056788494     1.007825032230
         H           -3.386102519657     3.144406911375    -0.432056788494     1.007825032230
         H           -2.196252519657    -1.917633088625     0.212223211506     1.007825032230
         C            2.717897480343     1.399406911375     0.608943211506    12.000000000000
         C            2.455897480343    -0.085593088625     0.646943211506    12.000000000000
         C            1.690897480343    -1.990593088625    -0.148056788494    12.000000000000
         C            2.807897480343    -1.068593088625     1.522943211506    12.000000000000
         N            1.788897480343    -0.682593088625    -0.404056788494    14.003074004430
         N            2.296897480343    -2.258593088625     1.010943211506    14.003074004430
         H            1.233897480343    -2.725593088625    -0.800056788494     1.007825032230
         H            2.233897480343     1.796406911375    -0.282056788494     1.007825032230
         H            3.778897480343     1.597406911375     0.499943211506     1.007825032230
         H            2.404897480343    -3.195593088625     1.400943211506     1.007825032230
         H            3.385897480343    -0.945593088625     2.422943211506     1.007825032230
         H            2.328167480343     1.959146911375     1.471963211506     1.007825032230

  Running in c1 symmetry.

  Rotational constants: A =      0.05291  B =      0.01491  C =      0.01219 [cm^-1]
  Rotational constants: A =   1586.28503  B =    447.00450  C =    365.57819 [MHz]
  Nuclear repulsion =  646.663635049140453

  Charge       = 0
  Multiplicity = 1
  Electrons    = 88
  Nalpha       = 44
  Nbeta        = 44

  ==> Algorithm <==

  SCF Algorithm Type is PK.
  DIIS enabled.
  MOM disabled.
  Fractional occupation disabled.
  Guess Type is SAD.
  Energy threshold   = 1.00e-06
  Density threshold  = 1.00e-10
  Integral threshold = 0.00e+00

  ==> Primary Basis <==

  Basis Set: CC-PVDZ
    Blend: CC-PVDZ
    Number of shells: 108
    Number of basis function: 228
    Number of Cartesian functions: 240
    Spherical Harmonics?: true
    Max angular momentum: 2

  ==> Pre-Iterations <==

   -------------------------------------------------------
    Irrep   Nso     Nmo     Nalpha   Nbeta   Ndocc  Nsocc
   -------------------------------------------------------
     A        228     228       0       0       0       0
   -------------------------------------------------------
    Total     228     228      44      44      44       0
   -------------------------------------------------------

  ==> Integral Setup <==

  Using integral reordering PK algorithm.
  Sizing the integral batches needed.
  Building batch lookup table.
   Calculation information:
      Number of atoms:                  24
      Number of AO shells:             108
      Number of primitives:            324
      Number of atomic orbitals:       240
      Number of basis functions:       228

      Integral cutoff                 1.00e-12
      Number of threads:                 1

	Batch   1 pq = [       0,    9405] index = [             0,44231715] size =     44231715
	Batch   2 pq = [    9405,   13301] index = [      44231715,88464951] size =     44233236
	Batch   3 pq = [   13301,   16290] index = [      88464951,132690195] size =     44225244
	Batch   4 pq = [   16290,   18810] index = [     132690195,176917455] size =     44227260
	Batch   5 pq = [   18810,   21030] index = [     176917455,221140965] size =     44223510
	Batch   6 pq = [   21030,   23037] index = [     221140965,265363203] size =     44222238
	Batch   7 pq = [   23037,   24883] index = [     265363203,309594286] size =     44231083
	Batch   8 pq = [   24883,   26106] index = [     309594286,340774671] size =     31180385
  Task number: 31
  Buffer size: 11059200
  Buffer per thread: 2
  We computed 15266504 shell quartets total.
  Whereas there are 17325441 unique shell quartets.

  ==> DiskJK: Disk-Based J/K Matrices <==

    J tasked:                  Yes
    K tasked:                  Yes
    wK tasked:                  No
    Memory [MiB]:              375
    Schwarz Cutoff:          1E-12

    OpenMP threads:              1

  Minimum eigenvalue in the overlap matrix is 1.1241963061E-03.
  Using Symmetric Orthogonalization.

  SCF Guess: Superposition of Atomic Densities via on-the-fly atomic UHF.

  ==> Iterations <==

                        Total Energy        Delta E     RMS |[F,P]|

   @RHF iter SAD:  -526.99232719031431   -5.26992e+02   0.00000e+00
   @RHF iter   1:  -527.47416285772147   -4.81836e-01   2.82941e-03 DIIS
   @RHF iter   2:  -527.68248143995368   -2.08319e-01   1.51656e-03 DIIS
   @RHF iter   3:  -527.73705616405960   -5.45747e-02   3.87567e-04 DIIS
   @RHF iter   4:  -527.74186612296751   -4.80996e-03   1.38161e-04 DIIS
   @RHF iter   5:  -527.74246399929575   -5.97876e-04   2.58700e-05 DIIS
   @RHF iter   6:  -527.74249914788425   -3.51486e-05   1.21166e-05 DIIS
   @RHF iter   7:  -527.74250710556316   -7.95768e-06   4.62087e-06 DIIS
   @RHF iter   8:  -527.74250905166116   -1.94610e-06   1.76191e-06 DIIS
   @RHF iter   9:  -527.74250938147986   -3.29819e-07   8.31718e-07 DIIS
   @RHF iter  10:  -527.74250942303922   -4.15594e-08   2.46719e-07 DIIS
   @RHF iter  11:  -527.74250942776325   -4.72403e-09   9.20999e-08 DIIS
   @RHF iter  12:  -527.74250942836443   -6.01176e-10   4.48945e-08 DIIS
   @RHF iter  13:  -527.74250942849403   -1.29603e-10   1.30459e-08 DIIS
   @RHF iter  14:  -527.74250942850892   -1.48930e-11   4.45561e-09 DIIS
   @RHF iter  15:  -527.74250942851143   -2.50111e-12   1.88564e-09 DIIS
   @RHF iter  16:  -527.74250942851359   -2.16005e-12   6.07366e-10 DIIS
   @RHF iter  17:  -527.74250942850995    3.63798e-12   2.76960e-10 DIIS
   @RHF iter  18:  -527.74250942851017   -2.27374e-13   5.89580e-11 DIIS
  Energy and wave function converged.

  ==> Post-Iterations <==

    Orbital Energies [Eh]
    ---------------------

    Doubly Occupied:

       1A    -15.633720     2A    -15.604480     3A    -15.542464
       4A    -15.514022     5A    -11.305736     6A    -11.274987
       7A    -11.262824     8A    -11.255367     9A    -11.234388
      10A    -11.221943    11A    -11.220413    12A    -11.211820
      13A     -1.345660    14A     -1.321994    15A     -1.163819
      16A     -1.135651    17A     -1.036880    18A     -1.013954
      19A     -0.951905    20A     -0.925437    21A     -0.827610
      22A     -0.799794    23A     -0.770334    24A     -0.749774
      25A     -0.743364    26A     -0.723070    27A     -0.620309
      28A     -0.611861    29A     -0.607741    30A     -0.593980
      31A     -0.586260    32A     -0.575853    33A     -0.562888
      34A     -0.550210    35A     -0.539842    36A     -0.527297
      37A     -0.525554    38A     -0.507221    39A     -0.426516
      40A     -0.397562    41A     -0.387912    42A     -0.362287
      43A     -0.319005    44A     -0.287844

    Virtual:

      45A      0.164246    46A      0.166728    47A      0.169947
      48A      0.197279    49A      0.199570    50A      0.207173
      51A      0.219761    52A      0.228821    53A      0.239812
      54A      0.244628    55A      0.253249    56A      0.272748
      57A      0.285047    58A      0.289716    59A      0.311617
      60A      0.337625    61A      0.364195    62A      0.373594
      63A      0.400519    64A      0.405754    65A      0.426791
      66A      0.432988    67A      0.470239    68A      0.480752
      69A      0.489455    70A      0.511733    71A      0.583531
      72A      0.617620    73A      0.629742    74A      0.647451
      75A      0.654244    76A      0.658215    77A      0.664787
      78A      0.681671    79A      0.698759    80A      0.708807
      81A      0.720746    82A      0.731319    83A      0.733043
      84A      0.742952    85A      0.753694    86A      0.772196
      87A      0.781995    88A      0.789669    89A      0.805227
      90A      0.833850    91A      0.844252    92A      0.848913
      93A      0.865277    94A      0.870618    95A      0.884228
      96A      0.888396    97A      0.900981    98A      0.912106
      99A      0.920395   100A      0.938028   101A      0.949496
     102A      0.954200   103A      0.961072   104A      0.969039
     105A      0.986933   106A      1.012866   107A      1.033143
     108A      1.044703   109A      1.055985   110A      1.086609
     111A      1.098853   112A      1.104648   113A      1.109266
     114A      1.120880   115A      1.135146   116A      1.144949
     117A      1.161253   118A      1.180952   119A      1.188448
     120A      1.216467   121A      1.253630   122A      1.278507
     123A      1.288922   124A      1.294178   125A      1.307888
     126A      1.315734   127A      1.322489   128A      1.336354
     129A      1.347701   130A      1.409265   131A      1.422197
     132A      1.439905   133A      1.452621   134A      1.461072
     135A      1.487796   136A      1.509735   137A      1.521980
     138A      1.558014   139A      1.583429   140A      1.591997
     141A      1.612703   142A      1.645920   143A      1.655835
     144A      1.661818   145A      1.691175   146A      1.695565
     147A      1.709116   148A      1.726780   149A      1.770752
     150A      1.790286   151A      1.799728   152A      1.816368
     153A      1.835215   154A      1.843687   155A      1.866317
     156A      1.879472   157A      1.898342   158A      1.903043
     159A      1.922647   160A      1.923045   161A      1.929911
     162A      1.940335   163A      1.944909   164A      1.948539
     165A      1.958688   166A      1.972845   167A      1.981166
     168A      1.995424   169A      2.004724   170A      2.025462
     171A      2.065895   172A      2.069936   173A      2.093916
     174A      2.116464   175A      2.139263   176A      2.167857
     177A      2.189706   178A      2.217127   179A      2.243575
     180A      2.252888   181A      2.274494   182A      2.275069
     183A      2.286376   184A      2.308325   185A      2.342889
     186A      2.355920   187A      2.383649   188A      2.385243
     189A      2.395919   190A      2.425965   191A      2.438628
     192A      2.458826   193A      2.487575   194A      2.494806
     195A      2.564036   196A      2.583629   197A      2.615185
     198A      2.641138   199A      2.657182   200A      2.690907
     201A      2.744100   202A      2.747258   203A      2.754971
     204A      2.771320   205A      2.785643   206A      2.791292
     207A      2.797826   208A      2.801114   209A      2.824730
     210A      2.834667   211A      2.872654   212A      2.884585
     213A      2.889412   214A      2.913784   215A      2.921843
     216A      2.939565   217A      2.977215   218A      2.996062
     219A      3.050021   220A      3.091078   221A      3.123879
     222A      3.168107   223A      3.210848   224A      3.250336
     225A      3.439831   226A      3.502652   227A      3.763132
     228A      3.822885

    Final Occupation by Irrep:
              A
    DOCC [    44 ]

  @RHF Final Energy:  -527.74250942851017

   => Energetics <=

    Nuclear Repulsion Energy =            646.6636350491404528
    One-Electron Energy =               -1999.2491911577892552
    Two-Electron Energy =                 824.8430466801385137
    Total Energy =                       -527.7425094285101750

Computation Completed

Properties will be evaluated at   0.000000,   0.000000,   0.000000 [a0]

Properties computed using the SCF density matrix

  Nuclear Dipole Moment: [e a0]
     X:     2.7781      Y:    -0.4639      Z:     1.2213

  Electronic Dipole Moment: [e a0]
     X:    -0.9142      Y:     0.0134      Z:    -0.2601

  Dipole Moment: [e a0]
     X:     1.8638      Y:    -0.4505      Z:     0.9612     Total:     2.1450

  Dipole Moment: [D]
     X:     4.7374      Y:    -1.1451      Z:     2.4432     Total:     5.4519

*** tstop() called on ds3 at Mon Apr 27 20:00:06 2020
Module time:
	user time   =     115.43 seconds =       1.92 minutes
	system time =      51.65 seconds =       0.86 minutes
	total time  =        161 seconds =       2.68 minutes
Total time:
	user time   =     115.43 seconds =       1.92 minutes
	system time =      51.65 seconds =       0.86 minutes
	total time  =        161 seconds =       2.68 minutes
                                     G D M A

                                 by Anthony Stone

                           version 2.2.06, 22 June 2011

               Distributed Multipoles from Gaussian wavefunctions

Starting at 20:0:7 on 27 Apr 2020

Using SCF density matrix from file ./SSI/SSI-048HIE-099HIE-2-dimer.test.11148.fchk

                         Distributed Multipole Analysis

Standard DMA

Positions and radii in angstrom
Multipole moments in atomic units, ea_0^k for rank k

C          x = -2.594103  y = -1.408593  z = -0.678057 angstrom
           Maximum rank =  0   Radius =  0.650 angstrom
                   Q00  =  -0.199668

C          x = -1.191103  y =  0.753407  z = -0.511057 angstrom
           Maximum rank =  0   Radius =  0.650 angstrom
                   Q00  =   0.023368

C          x = -2.358103  y =  0.067407  z = -0.618057 angstrom
           Maximum rank =  0   Radius =  0.650 angstrom
                   Q00  =   0.209121

C          x = -2.838103  y =  2.209407  z = -0.488057 angstrom
           Maximum rank =  0   Radius =  0.650 angstrom
                   Q00  =   0.447297

N          x = -1.512103  y =  2.088407  z = -0.441057 angstrom
           Maximum rank =  0   Radius =  0.650 angstrom
                   Q00  =  -0.469617

N          x = -3.379103  y =  0.994407  z = -0.547057 angstrom
           Maximum rank =  0   Radius =  0.650 angstrom
                   Q00  =  -0.770968

H          x = -0.214103  y =  0.338407  z = -0.512057 angstrom
           Maximum rank =  0   Radius =  0.325 angstrom
                   Q00  =   0.108032

H          x = -0.854103  y =  2.861407  z = -0.338057 angstrom
           Maximum rank =  0   Radius =  0.325 angstrom
                   Q00  =   0.216277

H          x = -2.091103  y = -1.801593  z = -1.562057 angstrom
           Maximum rank =  0   Radius =  0.325 angstrom
                   Q00  =   0.093059

H          x = -3.663103  y = -1.605593  z = -0.780057 angstrom
           Maximum rank =  0   Radius =  0.325 angstrom
                   Q00  =   0.119245

H          x = -3.386103  y =  3.144407  z = -0.432057 angstrom
           Maximum rank =  0   Radius =  0.325 angstrom
                   Q00  =   0.116936

H          x = -2.196253  y = -1.917633  z =  0.212223 angstrom
           Maximum rank =  0   Radius =  0.325 angstrom
                   Q00  =   0.091872

C          x =  2.717897  y =  1.399407  z =  0.608943 angstrom
           Maximum rank =  0   Radius =  0.650 angstrom
                   Q00  =  -0.213723

C          x =  2.455897  y = -0.085593  z =  0.646943 angstrom
           Maximum rank =  0   Radius =  0.650 angstrom
                   Q00  =   0.217046

C          x =  1.690897  y = -1.990593  z = -0.148057 angstrom
           Maximum rank =  0   Radius =  0.650 angstrom
                   Q00  =   0.457719

C          x =  2.807897  y = -1.068593  z =  1.522943 angstrom
           Maximum rank =  0   Radius =  0.650 angstrom
                   Q00  =   0.015337

N          x =  1.788897  y = -0.682593  z = -0.404057 angstrom
           Maximum rank =  0   Radius =  0.650 angstrom
                   Q00  =  -0.777198

N          x =  2.296897  y = -2.258593  z =  1.010943 angstrom
           Maximum rank =  0   Radius =  0.650 angstrom
                   Q00  =  -0.474407

H          x =  1.233897  y = -2.725593  z = -0.800057 angstrom
           Maximum rank =  0   Radius =  0.325 angstrom
                   Q00  =   0.127751

H          x =  2.233897  y =  1.796407  z = -0.282057 angstrom
           Maximum rank =  0   Radius =  0.325 angstrom
                   Q00  =   0.121156

H          x =  3.778897  y =  1.597407  z =  0.499943 angstrom
           Maximum rank =  0   Radius =  0.325 angstrom
                   Q00  =   0.109812

H          x =  2.404897  y = -3.195593  z =  1.400943 angstrom
           Maximum rank =  0   Radius =  0.325 angstrom
                   Q00  =   0.228516

H          x =  3.385897  y = -0.945593  z =  2.422943 angstrom
           Maximum rank =  0   Radius =  0.325 angstrom
                   Q00  =   0.104681

H          x =  2.328167  y =  1.959147  z =  1.471963 angstrom
           Maximum rank =  0   Radius =  0.325 angstrom
                   Q00  =   0.098356

Total multipoles referred to origin at
           x =   0.000000,  y =    0.000000,  z =    0.000000 angstrom
                   Q00  =  -0.000000

Finished at 20:0:7 on 27 Apr 2020

  DMA results are available in the Python driver through the
	  variable('DMA DISTRIBUTED MULTIPOLES')
  and
	  variable('DMA TOTAL MULTIPOLES')
  commands.

    Psi4 stopped on: Monday, 27 April 2020 08:00PM
    Psi4 wall time for execution: 0:02:41.34

*** Psi4 exiting successfully. Buy a developer a beer!
