                               Psi4 1.3.2 release

  ==> Input File <==

--------------------------------------------------------------------------
import numpy as np
set {scf_type pk
basis cc-pvdz
d_convergence 10
gdma_switch   0
gdma_limit    0
gdma_origin   [ 0.0,  0.0,  0.0 ]
}
molecule test {
    units Angstrom
    -1 1
    --
    -1 1
    C                1.968176714724211    -0.290442963932405     0.161792374438489
    C                3.363176714724210    -0.115442963932405    -0.461207625561511
    C                1.900176714724211    -0.013442963932405     1.647792374438489
    O                2.936176714724211     0.275557036067595     2.275792374438489
    O                0.767176714724211    -0.076442963932405     2.199792374438489
    H                1.287176714724211     0.385557036067595    -0.350207625561511
    H                1.622176714724211    -1.310442963932405    -0.022207625561511
    H                3.683176714724210     0.915557036067595    -0.305207625561511
    H                3.304588714724210    -0.345289963932405    -1.535329625561511
    H                4.093112714724210    -0.794638963932405     0.003428374438489
    C               -3.199823285275790     0.694557036067595     0.927792374438489
    C               -1.181823285275790    -1.427442963932405    -1.506207625561511
    C               -0.623823285275789    -0.461442963932405    -2.319207625561511
    C               -2.032823285275789    -1.066442963932405    -0.468207625561511
    C               -2.326823285275790     0.279557036067595    -0.230207625561511
    C               -0.891823285275790     0.874557036067595    -2.097207625561511
    C               -1.748823285275789     1.248557036067595    -1.056207625561511
    H               -0.919823285275789    -2.459442963932405    -1.660207625561511
    H                0.039176714724210    -0.744442963932405    -3.124207625561511
    H               -2.449823285275790    -1.831442963932405     0.171792374438489
    H               -0.445823285275790     1.631557036067595    -2.726207625561512
    H               -2.698823285275790     1.505557036067595     1.456792374438489
    H               -3.295823285275790    -0.138442963932405     1.623792374438489
    H               -1.946823285275789     2.293557036067595    -0.880207625561511
    H               -4.201402285275790     1.035580936067595     0.626889374438489

}
e, wfn = energy('scf', return_wfn=True)
gdma(wfn)
dmavals = variable('DMA DISTRIBUTED MULTIPOLES')
charges = np.array(dmavals)
print(charges)
np.save('SSI-026ASP-042PHE-1-dimer.npy', np.array(charges))--------------------------------------------------------------------------

*** tstart() called on ds3
*** at Tue Apr 28 14:05:09 2020

   => Loading Basis Set <=

    Name: CC-PVDZ
    Role: ORBITAL
    Keyword: BASIS
    atoms 1-3, 11-17  entry C          line   138 file /theoryfs2/ds/metcalf/miniconda2/envs/tf2gpu/share/psi4/basis/cc-pvdz.gbs
    atoms 4-5         entry O          line   198 file /theoryfs2/ds/metcalf/miniconda2/envs/tf2gpu/share/psi4/basis/cc-pvdz.gbs
    atoms 6-10, 18-25 entry H          line    22 file /theoryfs2/ds/metcalf/miniconda2/envs/tf2gpu/share/psi4/basis/cc-pvdz.gbs

         ---------------------------------------------------------
                                   SCF
               by Justin Turney, Rob Parrish, Andy Simmonett
                          and Daniel G. A. Smith
                              RHF Reference
                        1 Threads,    500 MiB Core
         ---------------------------------------------------------

  ==> Geometry <==

    Molecular point group: c1
    Full point group: C1

    Geometry (in Angstrom), charge = -1, multiplicity = 1:

       Center              X                  Y                   Z               Mass
    ------------   -----------------  -----------------  -----------------  -----------------
         C            1.968176714724    -0.290442963932     0.161792374438    12.000000000000
         C            3.363176714724    -0.115442963932    -0.461207625562    12.000000000000
         C            1.900176714724    -0.013442963932     1.647792374438    12.000000000000
         O            2.936176714724     0.275557036068     2.275792374438    15.994914619570
         O            0.767176714724    -0.076442963932     2.199792374438    15.994914619570
         H            1.287176714724     0.385557036068    -0.350207625562     1.007825032230
         H            1.622176714724    -1.310442963932    -0.022207625562     1.007825032230
         H            3.683176714724     0.915557036068    -0.305207625562     1.007825032230
         H            3.304588714724    -0.345289963932    -1.535329625562     1.007825032230
         H            4.093112714724    -0.794638963932     0.003428374438     1.007825032230
         C           -3.199823285276     0.694557036068     0.927792374438    12.000000000000
         C           -1.181823285276    -1.427442963932    -1.506207625562    12.000000000000
         C           -0.623823285276    -0.461442963932    -2.319207625562    12.000000000000
         C           -2.032823285276    -1.066442963932    -0.468207625562    12.000000000000
         C           -2.326823285276     0.279557036068    -0.230207625562    12.000000000000
         C           -0.891823285276     0.874557036068    -2.097207625562    12.000000000000
         C           -1.748823285276     1.248557036068    -1.056207625562    12.000000000000
         H           -0.919823285276    -2.459442963932    -1.660207625562     1.007825032230
         H            0.039176714724    -0.744442963932    -3.124207625562     1.007825032230
         H           -2.449823285276    -1.831442963932     0.171792374438     1.007825032230
         H           -0.445823285276     1.631557036068    -2.726207625562     1.007825032230
         H           -2.698823285276     1.505557036068     1.456792374438     1.007825032230
         H           -3.295823285276    -0.138442963932     1.623792374438     1.007825032230
         H           -1.946823285276     2.293557036068    -0.880207625562     1.007825032230
         H           -4.201402285276     1.035580936068     0.626889374438     1.007825032230

  Running in c1 symmetry.

  Rotational constants: A =      0.04152  B =      0.01756  C =      0.01438 [cm^-1]
  Rotational constants: A =   1244.64477  B =    526.29027  C =    431.03402 [MHz]
  Nuclear repulsion =  652.278382050748860

  Charge       = -1
  Multiplicity = 1
  Electrons    = 90
  Nalpha       = 45
  Nbeta        = 45

  ==> Algorithm <==

  SCF Algorithm Type is PK.
  DIIS enabled.
  MOM disabled.
  Fractional occupation disabled.
  Guess Type is SAD.
  Energy threshold   = 1.00e-06
  Density threshold  = 1.00e-10
  Integral threshold = 0.00e+00

  ==> Primary Basis <==

  Basis Set: CC-PVDZ
    Blend: CC-PVDZ
    Number of shells: 111
    Number of basis function: 233
    Number of Cartesian functions: 245
    Spherical Harmonics?: true
    Max angular momentum: 2

  ==> Pre-Iterations <==

   -------------------------------------------------------
    Irrep   Nso     Nmo     Nalpha   Nbeta   Ndocc  Nsocc
   -------------------------------------------------------
     A        233     233       0       0       0       0
   -------------------------------------------------------
    Total     233     233      45      45      45       0
   -------------------------------------------------------

  ==> Integral Setup <==

  Using integral reordering PK algorithm.
  Sizing the integral batches needed.
  Building batch lookup table.
   Calculation information:
      Number of atoms:                  25
      Number of AO shells:             111
      Number of primitives:            329
      Number of atomic orbitals:       245
      Number of basis functions:       233

      Integral cutoff                 1.00e-12
      Number of threads:                 1

	Batch   1 pq = [       0,    9405] index = [             0,44231715] size =     44231715
	Batch   2 pq = [    9405,   13301] index = [      44231715,88464951] size =     44233236
	Batch   3 pq = [   13301,   16290] index = [      88464951,132690195] size =     44225244
	Batch   4 pq = [   16290,   18810] index = [     132690195,176917455] size =     44227260
	Batch   5 pq = [   18810,   21030] index = [     176917455,221140965] size =     44223510
	Batch   6 pq = [   21030,   23037] index = [     221140965,265363203] size =     44222238
	Batch   7 pq = [   23037,   24883] index = [     265363203,309594286] size =     44231083
	Batch   8 pq = [   24883,   26601] index = [     309594286,353819901] size =     44225615
	Batch   9 pq = [   26601,   27261] index = [     353819901,371594691] size =     17774790
  Task number: 34
  Buffer size: 11059200
  Buffer per thread: 2
  We computed 19293295 shell quartets total.
  Whereas there are 19322436 unique shell quartets.

  ==> DiskJK: Disk-Based J/K Matrices <==

    J tasked:                  Yes
    K tasked:                  Yes
    wK tasked:                  No
    Memory [MiB]:              375
    Schwarz Cutoff:          1E-12

    OpenMP threads:              1

  Minimum eigenvalue in the overlap matrix is 3.0759442829E-04.
  Using Symmetric Orthogonalization.

  SCF Guess: Superposition of Atomic Densities via on-the-fly atomic UHF.

  ==> Iterations <==

                        Total Energy        Delta E     RMS |[F,P]|

   @RHF iter SAD:  -534.37948848139706   -5.34379e+02   0.00000e+00
   @RHF iter   1:  -535.67037226692162   -1.29088e+00   3.47846e-03 DIIS
   @RHF iter   2:  -535.95631296655972   -2.85941e-01   1.84512e-03 DIIS
   @RHF iter   3:  -536.02815746152135   -7.18445e-02   3.21059e-04 DIIS
   @RHF iter   4:  -536.03195748948815   -3.80003e-03   1.22139e-04 DIIS
   @RHF iter   5:  -536.03246413109889   -5.06642e-04   1.86850e-05 DIIS
   @RHF iter   6:  -536.03248049986178   -1.63688e-05   5.85027e-06 DIIS
   @RHF iter   7:  -536.03248190786633   -1.40800e-06   2.07592e-06 DIIS
   @RHF iter   8:  -536.03248207175409   -1.63888e-07   5.98972e-07 DIIS
   @RHF iter   9:  -536.03248209212313   -2.03690e-08   2.54965e-07 DIIS
   @RHF iter  10:  -536.03248209627861   -4.15548e-09   8.22604e-08 DIIS
   @RHF iter  11:  -536.03248209704327   -7.64658e-10   4.49212e-08 DIIS
   @RHF iter  12:  -536.03248209720562   -1.62345e-10   1.80959e-08 DIIS
   @RHF iter  13:  -536.03248209725666   -5.10454e-11   7.11696e-09 DIIS
   @RHF iter  14:  -536.03248209725882   -2.16005e-12   2.79885e-09 DIIS
   @RHF iter  15:  -536.03248209725643    2.38742e-12   1.16171e-09 DIIS
   @RHF iter  16:  -536.03248209726326   -6.82121e-12   5.24112e-10 DIIS
   @RHF iter  17:  -536.03248209725803    5.22959e-12   2.16090e-10 DIIS
   @RHF iter  18:  -536.03248209726007   -2.04636e-12   6.04145e-11 DIIS
  Energy and wave function converged.

  ==> Post-Iterations <==

    Orbital Energies [Eh]
    ---------------------

    Doubly Occupied:

       1A    -20.254443     2A    -20.243295     3A    -11.140451
       4A    -11.135519     5A    -11.132713     6A    -11.131231
       7A    -11.129834     8A    -11.129577     9A    -11.129037
      10A    -11.103959    11A    -11.066640    12A    -11.043094
      13A     -1.138873    14A     -1.051891    15A     -1.023134
      16A     -0.944511    17A     -0.910774    18A     -0.861089
      19A     -0.831443    20A     -0.726191    21A     -0.695152
      22A     -0.694918    23A     -0.592758    24A     -0.531982
      25A     -0.531138    26A     -0.498958    27A     -0.483157
      28A     -0.475501    29A     -0.462566    30A     -0.450744
      31A     -0.435733    32A     -0.422972    33A     -0.389146
      34A     -0.385054    35A     -0.381914    36A     -0.377749
      37A     -0.354546    38A     -0.348032    39A     -0.314410
      40A     -0.289632    41A     -0.229623    42A     -0.220657
      43A     -0.173945    44A     -0.159773    45A     -0.150249

    Virtual:

      46A      0.236092    47A      0.243800    48A      0.275038
      49A      0.294947    50A      0.308773    51A      0.327574
      52A      0.343929    53A      0.351423    54A      0.354656
      55A      0.376613    56A      0.389301    57A      0.403005
      58A      0.409576    59A      0.412787    60A      0.428594
      61A      0.468767    62A      0.472582    63A      0.505142
      64A      0.550865    65A      0.552281    66A      0.560606
      67A      0.574677    68A      0.596368    69A      0.613678
      70A      0.663426    71A      0.693608    72A      0.699733
      73A      0.714841    74A      0.733531    75A      0.750927
      76A      0.763286    77A      0.778703    78A      0.794709
      79A      0.797392    80A      0.834155    81A      0.839828
      82A      0.846974    83A      0.857151    84A      0.864790
      85A      0.880653    86A      0.891322    87A      0.906965
      88A      0.918779    89A      0.934657    90A      0.941640
      91A      0.954749    92A      0.961486    93A      0.979732
      94A      0.983940    95A      0.993447    96A      0.998043
      97A      1.018528    98A      1.025607    99A      1.029438
     100A      1.035642   101A      1.040370   102A      1.043922
     103A      1.053155   104A      1.062339   105A      1.069643
     106A      1.076160   107A      1.094228   108A      1.098812
     109A      1.106559   110A      1.148092   111A      1.154017
     112A      1.180909   113A      1.226562   114A      1.248760
     115A      1.253624   116A      1.260380   117A      1.280470
     118A      1.298458   119A      1.312591   120A      1.327649
     121A      1.339127   122A      1.351570   123A      1.357474
     124A      1.381334   125A      1.402683   126A      1.405750
     127A      1.409949   128A      1.415936   129A      1.436705
     130A      1.479715   131A      1.507835   132A      1.517621
     133A      1.542458   134A      1.600663   135A      1.618371
     136A      1.621465   137A      1.634039   138A      1.649599
     139A      1.655342   140A      1.670389   141A      1.698781
     142A      1.744568   143A      1.782726   144A      1.791408
     145A      1.829648   146A      1.832895   147A      1.840110
     148A      1.852544   149A      1.874398   150A      1.887811
     151A      1.896094   152A      1.922193   153A      1.937509
     154A      1.964325   155A      1.988290   156A      1.999299
     157A      2.006560   158A      2.015573   159A      2.020883
     160A      2.045233   161A      2.050048   162A      2.053265
     163A      2.062464   164A      2.065360   165A      2.076201
     166A      2.078722   167A      2.100798   168A      2.121786
     169A      2.138662   170A      2.146859   171A      2.165994
     172A      2.176663   173A      2.185032   174A      2.189483
     175A      2.207667   176A      2.214504   177A      2.235099
     178A      2.240023   179A      2.259139   180A      2.269226
     181A      2.283809   182A      2.287911   183A      2.292508
     184A      2.343243   185A      2.347901   186A      2.375004
     187A      2.392639   188A      2.395305   189A      2.402127
     190A      2.433328   191A      2.445082   192A      2.466986
     193A      2.517076   194A      2.532810   195A      2.555585
     196A      2.577214   197A      2.610726   198A      2.637237
     199A      2.648360   200A      2.676656   201A      2.718918
     202A      2.727490   203A      2.789017   204A      2.812250
     205A      2.837655   206A      2.854188   207A      2.871856
     208A      2.895792   209A      2.911440   210A      2.921309
     211A      2.951703   212A      2.971467   213A      2.991496
     214A      3.010152   215A      3.082212   216A      3.094230
     217A      3.119025   218A      3.120450   219A      3.164712
     220A      3.253763   221A      3.259460   222A      3.301732
     223A      3.302143   224A      3.313503   225A      3.372391
     226A      3.404762   227A      3.649209   228A      3.793897
     229A      3.834175   230A      4.059436   231A      4.078541
     232A      4.090795   233A      4.216890

    Final Occupation by Irrep:
              A
    DOCC [    45 ]

  @RHF Final Energy:  -536.03248209726007

   => Energetics <=

    Nuclear Repulsion Energy =            652.2783820507488599
    One-Electron Energy =               -2038.2657102864538956
    Two-Electron Energy =                 849.9548461384449638
    Total Energy =                       -536.0324820972600719

Computation Completed

Properties will be evaluated at   0.000000,   0.000000,   0.000000 [a0]

Properties computed using the SCF density matrix

  Nuclear Dipole Moment: [e a0]
     X:    -1.7905      Y:     0.1352      Z:    -6.2793

  Electronic Dipole Moment: [e a0]
     X:    -1.6621      Y:    -0.3295      Z:     2.4130

  Dipole Moment: [e a0]
     X:    -3.4526      Y:    -0.1943      Z:    -3.8663     Total:     5.1872

  Dipole Moment: [D]
     X:    -8.7758      Y:    -0.4939      Z:    -9.8271     Total:    13.1845

*** tstop() called on ds3 at Tue Apr 28 14:10:11 2020
Module time:
	user time   =     153.42 seconds =       2.56 minutes
	system time =      60.46 seconds =       1.01 minutes
	total time  =        302 seconds =       5.03 minutes
Total time:
	user time   =     153.42 seconds =       2.56 minutes
	system time =      60.46 seconds =       1.01 minutes
	total time  =        302 seconds =       5.03 minutes
                                     G D M A

                                 by Anthony Stone

                           version 2.2.06, 22 June 2011

               Distributed Multipoles from Gaussian wavefunctions

Starting at 14:10:11 on 28 Apr 2020

Using SCF density matrix from file ./SSI/SSI-026ASP-042PHE-1-dimer.test.21898.fchk

                         Distributed Multipole Analysis

Standard DMA

Positions and radii in angstrom
Multipole moments in atomic units, ea_0^k for rank k

C          x =  1.968177  y = -0.290443  z =  0.161792 angstrom
           Maximum rank =  0   Radius =  0.650 angstrom
                   Q00  =  -0.169894

C          x =  3.363177  y = -0.115443  z = -0.461208 angstrom
           Maximum rank =  0   Radius =  0.650 angstrom
                   Q00  =  -0.213823

C          x =  1.900177  y = -0.013443  z =  1.647792 angstrom
           Maximum rank =  0   Radius =  0.650 angstrom
                   Q00  =   1.041031

O          x =  2.936177  y =  0.275557  z =  2.275792 angstrom
           Maximum rank =  0   Radius =  0.650 angstrom
                   Q00  =  -0.961222

O          x =  0.767177  y = -0.076443  z =  2.199792 angstrom
           Maximum rank =  0   Radius =  0.650 angstrom
                   Q00  =  -0.964467

H          x =  1.287177  y =  0.385557  z = -0.350208 angstrom
           Maximum rank =  0   Radius =  0.325 angstrom
                   Q00  =   0.051934

H          x =  1.622177  y = -1.310443  z = -0.022208 angstrom
           Maximum rank =  0   Radius =  0.325 angstrom
                   Q00  =   0.043340

H          x =  3.683177  y =  0.915557  z = -0.305208 angstrom
           Maximum rank =  0   Radius =  0.325 angstrom
                   Q00  =   0.079043

H          x =  3.304589  y = -0.345290  z = -1.535330 angstrom
           Maximum rank =  0   Radius =  0.325 angstrom
                   Q00  =   0.010270

H          x =  4.093113  y = -0.794639  z =  0.003428 angstrom
           Maximum rank =  0   Radius =  0.325 angstrom
                   Q00  =   0.077795

C          x = -3.199823  y =  0.694557  z =  0.927792 angstrom
           Maximum rank =  0   Radius =  0.650 angstrom
                   Q00  =  -0.205175

C          x = -1.181823  y = -1.427443  z = -1.506208 angstrom
           Maximum rank =  0   Radius =  0.650 angstrom
                   Q00  =  -0.012770

C          x = -0.623823  y = -0.461443  z = -2.319208 angstrom
           Maximum rank =  0   Radius =  0.650 angstrom
                   Q00  =  -0.073349

C          x = -2.032823  y = -1.066443  z = -0.468208 angstrom
           Maximum rank =  0   Radius =  0.650 angstrom
                   Q00  =  -0.029258

C          x = -2.326823  y =  0.279557  z = -0.230208 angstrom
           Maximum rank =  0   Radius =  0.650 angstrom
                   Q00  =  -0.075256

C          x = -0.891823  y =  0.874557  z = -2.097208 angstrom
           Maximum rank =  0   Radius =  0.650 angstrom
                   Q00  =  -0.063946

C          x = -1.748823  y =  1.248557  z = -1.056208 angstrom
           Maximum rank =  0   Radius =  0.650 angstrom
                   Q00  =  -0.069835

H          x = -0.919823  y = -2.459443  z = -1.660208 angstrom
           Maximum rank =  0   Radius =  0.325 angstrom
                   Q00  =   0.050291

H          x =  0.039177  y = -0.744443  z = -3.124208 angstrom
           Maximum rank =  0   Radius =  0.325 angstrom
                   Q00  =   0.043727

H          x = -2.449823  y = -1.831443  z =  0.171792 angstrom
           Maximum rank =  0   Radius =  0.325 angstrom
                   Q00  =   0.053369

H          x = -0.445823  y =  1.631557  z = -2.726208 angstrom
           Maximum rank =  0   Radius =  0.325 angstrom
                   Q00  =   0.047716

H          x = -2.698823  y =  1.505557  z =  1.456792 angstrom
           Maximum rank =  0   Radius =  0.325 angstrom
                   Q00  =   0.117423

H          x = -3.295823  y = -0.138443  z =  1.623792 angstrom
           Maximum rank =  0   Radius =  0.325 angstrom
                   Q00  =   0.107190

H          x = -1.946823  y =  2.293557  z = -0.880208 angstrom
           Maximum rank =  0   Radius =  0.325 angstrom
                   Q00  =   0.045049

H          x = -4.201402  y =  1.035581  z =  0.626889 angstrom
           Maximum rank =  0   Radius =  0.325 angstrom
                   Q00  =   0.070817

Total multipoles referred to origin at
           x =   0.000000,  y =    0.000000,  z =    0.000000 angstrom
                   Q00  =  -1.000000

Finished at 14:10:11 on 28 Apr 2020

  DMA results are available in the Python driver through the
	  variable('DMA DISTRIBUTED MULTIPOLES')
  and
	  variable('DMA TOTAL MULTIPOLES')
  commands.

    Psi4 stopped on: Tuesday, 28 April 2020 02:10PM
    Psi4 wall time for execution: 0:05:02.24

*** Psi4 exiting successfully. Buy a developer a beer!
