                               Psi4 1.3.2 release

  ==> Input File <==

--------------------------------------------------------------------------
import numpy as np
set {scf_type pk
basis cc-pvdz
d_convergence 10
gdma_switch   0
gdma_limit    0
gdma_origin   [ 0.0,  0.0,  0.0 ]
}
molecule test {
    units Angstrom
    0 1
    --
    0 1
    C               -2.452254228907559    -1.359139366990799    -1.564901983708808
    C               -2.265254228907559    -2.780139366990799    -1.064901983708808
    H               -3.479254228907559    -1.048139366990799    -1.372901983708808
    H               -1.792254228907559    -0.683139366990799    -1.032901983708808
    H               -2.280254228907560    -1.293139366990799    -2.637901983708808
    H               -2.964254228907560    -3.436139366990799    -1.582901983708808
    H               -1.235306228907559    -3.127755366990799    -1.233334683708808
    H               -2.496236228907559    -2.825032366990799     0.009636016291192
    C                2.260745771092441    -0.863139366990799     1.067098016291192
    C                0.547745771092441     0.321860633009201    -0.497901983708808
    C                1.291745771092440     0.206860633009201     0.639098016291192
    C                0.176745771092441     2.099860633009201     0.741098016291192
    N               -0.135254228907559     1.515860633009201    -0.410901983708808
    N                1.035745771092440     1.330860633009201     1.398098016291192
    H                0.520745771092441    -0.390139366990799    -1.309901983708808
    H               -0.786254228907559     1.893860633009201    -1.090901983708808
    H                1.868745771092441    -1.827139366990799     0.745098016291192
    H                2.319745771092440    -0.876139366990799     2.156098016291192
    H               -0.211254228907559     3.050860633009200     1.085098016291192
    H                3.269345771092441    -0.726439366990799     0.649917016291192

}
e, wfn = energy('scf', return_wfn=True)
gdma(wfn)
dmavals = variable('DMA DISTRIBUTED MULTIPOLES')
charges = np.array(dmavals)
print(charges)
np.save('SSI-121LEU-125HIE-1-dimer.npy', np.array(charges))--------------------------------------------------------------------------

*** tstart() called on ds3
*** at Tue Apr 28 20:58:38 2020

   => Loading Basis Set <=

    Name: CC-PVDZ
    Role: ORBITAL
    Keyword: BASIS
    atoms 1-2, 9-12  entry C          line   138 file /theoryfs2/ds/metcalf/miniconda2/envs/tf2gpu/share/psi4/basis/cc-pvdz.gbs
    atoms 3-8, 15-20 entry H          line    22 file /theoryfs2/ds/metcalf/miniconda2/envs/tf2gpu/share/psi4/basis/cc-pvdz.gbs
    atoms 13-14      entry N          line   168 file /theoryfs2/ds/metcalf/miniconda2/envs/tf2gpu/share/psi4/basis/cc-pvdz.gbs

         ---------------------------------------------------------
                                   SCF
               by Justin Turney, Rob Parrish, Andy Simmonett
                          and Daniel G. A. Smith
                              RHF Reference
                        1 Threads,    500 MiB Core
         ---------------------------------------------------------

  ==> Geometry <==

    Molecular point group: c1
    Full point group: C1

    Geometry (in Angstrom), charge = 0, multiplicity = 1:

       Center              X                  Y                   Z               Mass
    ------------   -----------------  -----------------  -----------------  -----------------
         C           -2.452254228908    -1.359139366991    -1.564901983709    12.000000000000
         C           -2.265254228908    -2.780139366991    -1.064901983709    12.000000000000
         H           -3.479254228908    -1.048139366991    -1.372901983709     1.007825032230
         H           -1.792254228908    -0.683139366991    -1.032901983709     1.007825032230
         H           -2.280254228908    -1.293139366991    -2.637901983709     1.007825032230
         H           -2.964254228908    -3.436139366991    -1.582901983709     1.007825032230
         H           -1.235306228908    -3.127755366991    -1.233334683709     1.007825032230
         H           -2.496236228908    -2.825032366991     0.009636016291     1.007825032230
         C            2.260745771092    -0.863139366991     1.067098016291    12.000000000000
         C            0.547745771092     0.321860633009    -0.497901983709    12.000000000000
         C            1.291745771092     0.206860633009     0.639098016291    12.000000000000
         C            0.176745771092     2.099860633009     0.741098016291    12.000000000000
         N           -0.135254228908     1.515860633009    -0.410901983709    14.003074004430
         N            1.035745771092     1.330860633009     1.398098016291    14.003074004430
         H            0.520745771092    -0.390139366991    -1.309901983709     1.007825032230
         H           -0.786254228908     1.893860633009    -1.090901983709     1.007825032230
         H            1.868745771092    -1.827139366991     0.745098016291     1.007825032230
         H            2.319745771092    -0.876139366991     2.156098016291     1.007825032230
         H           -0.211254228908     3.050860633009     1.085098016291     1.007825032230
         H            3.269345771092    -0.726439366991     0.649917016291     1.007825032230

  Running in c1 symmetry.

  Rotational constants: A =      0.08922  B =      0.03117  C =      0.02490 [cm^-1]
  Rotational constants: A =   2674.60498  B =    934.53046  C =    746.34530 [MHz]
  Nuclear repulsion =  354.130155557652756

  Charge       = 0
  Multiplicity = 1
  Electrons    = 62
  Nalpha       = 31
  Nbeta        = 31

  ==> Algorithm <==

  SCF Algorithm Type is PK.
  DIIS enabled.
  MOM disabled.
  Fractional occupation disabled.
  Guess Type is SAD.
  Energy threshold   = 1.00e-06
  Density threshold  = 1.00e-10
  Integral threshold = 0.00e+00

  ==> Primary Basis <==

  Basis Set: CC-PVDZ
    Blend: CC-PVDZ
    Number of shells: 84
    Number of basis function: 172
    Number of Cartesian functions: 180
    Spherical Harmonics?: true
    Max angular momentum: 2

  ==> Pre-Iterations <==

   -------------------------------------------------------
    Irrep   Nso     Nmo     Nalpha   Nbeta   Ndocc  Nsocc
   -------------------------------------------------------
     A        172     172       0       0       0       0
   -------------------------------------------------------
    Total     172     172      31      31      31       0
   -------------------------------------------------------

  ==> Integral Setup <==

  Using integral reordering PK algorithm.
  Sizing the integral batches needed.
  Building batch lookup table.
   Calculation information:
      Number of atoms:                  20
      Number of AO shells:              84
      Number of primitives:            236
      Number of atomic orbitals:       180
      Number of basis functions:       172

      Integral cutoff                 1.00e-12
      Number of threads:                 1

	Batch   1 pq = [       0,    9405] index = [             0,44231715] size =     44231715
	Batch   2 pq = [    9405,   13301] index = [      44231715,88464951] size =     44233236
	Batch   3 pq = [   13301,   14878] index = [      88464951,110684881] size =     22219930
  Task number: 11
  Buffer size: 11059200
  Buffer per thread: 2
  We computed 5401767 shell quartets total.
  Whereas there are 6374235 unique shell quartets.

  ==> DiskJK: Disk-Based J/K Matrices <==

    J tasked:                  Yes
    K tasked:                  Yes
    wK tasked:                  No
    Memory [MiB]:              375
    Schwarz Cutoff:          1E-12

    OpenMP threads:              1

  Minimum eigenvalue in the overlap matrix is 1.1933923189E-03.
  Using Symmetric Orthogonalization.

  SCF Guess: Superposition of Atomic Densities via on-the-fly atomic UHF.

  ==> Iterations <==

                        Total Energy        Delta E     RMS |[F,P]|

   @RHF iter SAD:  -342.21773494117701   -3.42218e+02   0.00000e+00
   @RHF iter   1:  -342.88722183475699   -6.69487e-01   3.36453e-03 DIIS
   @RHF iter   2:  -343.05920317774985   -1.71981e-01   1.70650e-03 DIIS
   @RHF iter   3:  -343.09997203935200   -4.07689e-02   4.34104e-04 DIIS
   @RHF iter   4:  -343.10345101025132   -3.47897e-03   1.82870e-04 DIIS
   @RHF iter   5:  -343.10401958768739   -5.68577e-04   2.68063e-05 DIIS
   @RHF iter   6:  -343.10404121757199   -2.16299e-05   1.16329e-05 DIIS
   @RHF iter   7:  -343.10404488178568   -3.66421e-06   4.25766e-06 DIIS
   @RHF iter   8:  -343.10404572540847   -8.43623e-07   1.67779e-06 DIIS
   @RHF iter   9:  -343.10404590594584   -1.80537e-07   6.04941e-07 DIIS
   @RHF iter  10:  -343.10404592302962   -1.70838e-08   1.87208e-07 DIIS
   @RHF iter  11:  -343.10404592492114   -1.89152e-09   8.38013e-08 DIIS
   @RHF iter  12:  -343.10404592519581   -2.74667e-10   3.30240e-08 DIIS
   @RHF iter  13:  -343.10404592524378   -4.79758e-11   8.96360e-09 DIIS
   @RHF iter  14:  -343.10404592524696   -3.18323e-12   3.30128e-09 DIIS
   @RHF iter  15:  -343.10404592524810   -1.13687e-12   1.36721e-09 DIIS
   @RHF iter  16:  -343.10404592524969   -1.59162e-12   4.22685e-10 DIIS
   @RHF iter  17:  -343.10404592524844    1.25056e-12   1.23194e-10 DIIS
   @RHF iter  18:  -343.10404592524765    7.95808e-13   4.78988e-11 DIIS
  Energy and wave function converged.

  ==> Post-Iterations <==

    Orbital Energies [Eh]
    ---------------------

    Doubly Occupied:

       1A    -15.621851     2A    -15.528256     3A    -11.291868
       4A    -11.250368     5A    -11.242509     6A    -11.224041
       7A    -11.221376     8A    -11.218566     9A     -1.340983
      10A     -1.153486    11A     -1.029475    12A     -1.024301
      13A     -0.940476    14A     -0.840589    15A     -0.817251
      16A     -0.761883    17A     -0.741399    18A     -0.610731
      19A     -0.609456    20A     -0.602397    21A     -0.599806
      22A     -0.592062    23A     -0.553158    24A     -0.539521
      25A     -0.519763    26A     -0.506795    27A     -0.489310
      28A     -0.487399    29A     -0.410094    30A     -0.378524
      31A     -0.308338

    Virtual:

      32A      0.163540    33A      0.174655    34A      0.188830
      35A      0.209320    36A      0.224245    37A      0.228567
      38A      0.232101    39A      0.242707    40A      0.260124
      41A      0.270748    42A      0.279513    43A      0.299099
      44A      0.304669    45A      0.320001    46A      0.381350
      47A      0.388515    48A      0.399553    49A      0.417678
      50A      0.475636    51A      0.485419    52A      0.595144
      53A      0.598822    54A      0.604397    55A      0.608177
      56A      0.627527    57A      0.662262    58A      0.672425
      59A      0.676540    60A      0.697604    61A      0.707792
      62A      0.711807    63A      0.741714    64A      0.766134
      65A      0.806260    66A      0.816294    67A      0.839359
      68A      0.851913    69A      0.872468    70A      0.886618
      71A      0.889500    72A      0.891727    73A      0.898452
      74A      0.910377    75A      0.922842    76A      0.933100
      77A      0.934730    78A      0.951148    79A      0.963313
      80A      0.978980    81A      0.987804    82A      1.032878
      83A      1.074588    84A      1.097755    85A      1.106999
      86A      1.119662    87A      1.128428    88A      1.148052
      89A      1.152202    90A      1.173770    91A      1.239509
      92A      1.275114    93A      1.297220    94A      1.319559
      95A      1.332671    96A      1.357327    97A      1.419719
      98A      1.447076    99A      1.469625   100A      1.480913
     101A      1.483928   102A      1.529444   103A      1.564748
     104A      1.582603   105A      1.618623   106A      1.635698
     107A      1.681453   108A      1.692210   109A      1.702442
     110A      1.720345   111A      1.775624   112A      1.804936
     113A      1.831342   114A      1.857934   115A      1.869204
     116A      1.877124   117A      1.896938   118A      1.901199
     119A      1.917073   120A      1.934206   121A      1.943925
     122A      1.948094   123A      1.953632   124A      1.957600
     125A      1.959357   126A      1.965002   127A      1.980173
     128A      1.994061   129A      2.034863   130A      2.060150
     131A      2.090340   132A      2.103347   133A      2.116631
     134A      2.149287   135A      2.204969   136A      2.234875
     137A      2.247457   138A      2.286276   139A      2.308362
     140A      2.314698   141A      2.346425   142A      2.369565
     143A      2.428321   144A      2.447411   145A      2.463313
     146A      2.473312   147A      2.489884   148A      2.564470
     149A      2.567395   150A      2.574651   151A      2.611083
     152A      2.685679   153A      2.724840   154A      2.752006
     155A      2.759082   156A      2.783712   157A      2.791155
     158A      2.799848   159A      2.839833   160A      2.852473
     161A      2.858395   162A      2.870382   163A      2.893288
     164A      2.925358   165A      2.955251   166A      2.962323
     167A      2.982115   168A      3.066672   169A      3.157700
     170A      3.231594   171A      3.467831   172A      3.798012

    Final Occupation by Irrep:
              A
    DOCC [    31 ]

  @RHF Final Energy:  -343.10404592524765

   => Energetics <=

    Nuclear Repulsion Energy =            354.1301555576527562
    One-Electron Energy =               -1165.5563437598366363
    Two-Electron Energy =                 468.3221422769362334
    Total Energy =                       -343.1040459252476467

Computation Completed

Properties will be evaluated at   0.000000,   0.000000,   0.000000 [a0]

Properties computed using the SCF density matrix

  Nuclear Dipole Moment: [e a0]
     X:    -6.8147      Y:   -10.5909      Z:    -5.2667

  Electronic Dipole Moment: [e a0]
     X:     6.0825      Y:    10.7521      Z:     4.1910

  Dipole Moment: [e a0]
     X:    -0.7322      Y:     0.1613      Z:    -1.0756     Total:     1.3112

  Dipole Moment: [D]
     X:    -1.8612      Y:     0.4099      Z:    -2.7340     Total:     3.3326

*** tstop() called on ds3 at Tue Apr 28 20:59:32 2020
Module time:
	user time   =      38.28 seconds =       0.64 minutes
	system time =      17.06 seconds =       0.28 minutes
	total time  =         54 seconds =       0.90 minutes
Total time:
	user time   =      38.28 seconds =       0.64 minutes
	system time =      17.06 seconds =       0.28 minutes
	total time  =         54 seconds =       0.90 minutes
                                     G D M A

                                 by Anthony Stone

                           version 2.2.06, 22 June 2011

               Distributed Multipoles from Gaussian wavefunctions

Starting at 20:59:32 on 28 Apr 2020

Using SCF density matrix from file ./SSI/SSI-121LEU-125HIE-1-dimer.test.6870.fchk

                         Distributed Multipole Analysis

Standard DMA

Positions and radii in angstrom
Multipole moments in atomic units, ea_0^k for rank k

C          x = -2.452254  y = -1.359139  z = -1.564902 angstrom
           Maximum rank =  0   Radius =  0.650 angstrom
                   Q00  =  -0.256468

C          x = -2.265254  y = -2.780139  z = -1.064902 angstrom
           Maximum rank =  0   Radius =  0.650 angstrom
                   Q00  =  -0.219652

H          x = -3.479254  y = -1.048139  z = -1.372902 angstrom
           Maximum rank =  0   Radius =  0.325 angstrom
                   Q00  =   0.076551

H          x = -1.792254  y = -0.683139  z = -1.032902 angstrom
           Maximum rank =  0   Radius =  0.325 angstrom
                   Q00  =   0.087466

H          x = -2.280254  y = -1.293139  z = -2.637902 angstrom
           Maximum rank =  0   Radius =  0.325 angstrom
                   Q00  =   0.072967

H          x = -2.964254  y = -3.436139  z = -1.582902 angstrom
           Maximum rank =  0   Radius =  0.325 angstrom
                   Q00  =   0.078285

H          x = -1.235306  y = -3.127755  z = -1.233335 angstrom
           Maximum rank =  0   Radius =  0.325 angstrom
                   Q00  =   0.076277

H          x = -2.496236  y = -2.825032  z =  0.009636 angstrom
           Maximum rank =  0   Radius =  0.325 angstrom
                   Q00  =   0.081514

C          x =  2.260746  y = -0.863139  z =  1.067098 angstrom
           Maximum rank =  0   Radius =  0.650 angstrom
                   Q00  =  -0.199204

C          x =  0.547746  y =  0.321861  z = -0.497902 angstrom
           Maximum rank =  0   Radius =  0.650 angstrom
                   Q00  =  -0.006853

C          x =  1.291746  y =  0.206861  z =  0.639098 angstrom
           Maximum rank =  0   Radius =  0.650 angstrom
                   Q00  =   0.225890

C          x =  0.176746  y =  2.099861  z =  0.741098 angstrom
           Maximum rank =  0   Radius =  0.650 angstrom
                   Q00  =   0.462323

N          x = -0.135254  y =  1.515861  z = -0.410902 angstrom
           Maximum rank =  0   Radius =  0.650 angstrom
                   Q00  =  -0.477423

N          x =  1.035746  y =  1.330861  z =  1.398098 angstrom
           Maximum rank =  0   Radius =  0.650 angstrom
                   Q00  =  -0.767895

H          x =  0.520746  y = -0.390139  z = -1.309902 angstrom
           Maximum rank =  0   Radius =  0.325 angstrom
                   Q00  =   0.100843

H          x = -0.786254  y =  1.893861  z = -1.090902 angstrom
           Maximum rank =  0   Radius =  0.325 angstrom
                   Q00  =   0.223399

H          x =  1.868746  y = -1.827139  z =  0.745098 angstrom
           Maximum rank =  0   Radius =  0.325 angstrom
                   Q00  =   0.094281

H          x =  2.319746  y = -0.876139  z =  2.156098 angstrom
           Maximum rank =  0   Radius =  0.325 angstrom
                   Q00  =   0.120955

H          x = -0.211254  y =  3.050861  z =  1.085098 angstrom
           Maximum rank =  0   Radius =  0.325 angstrom
                   Q00  =   0.123026

H          x =  3.269346  y = -0.726439  z =  0.649917 angstrom
           Maximum rank =  0   Radius =  0.325 angstrom
                   Q00  =   0.103718

Total multipoles referred to origin at
           x =   0.000000,  y =    0.000000,  z =    0.000000 angstrom
                   Q00  =  -0.000000

Finished at 20:59:32 on 28 Apr 2020

  DMA results are available in the Python driver through the
	  variable('DMA DISTRIBUTED MULTIPOLES')
  and
	  variable('DMA TOTAL MULTIPOLES')
  commands.

    Psi4 stopped on: Tuesday, 28 April 2020 08:59PM
    Psi4 wall time for execution: 0:00:54.29

*** Psi4 exiting successfully. Buy a developer a beer!
