                               Psi4 1.3.2 release

  ==> Input File <==

--------------------------------------------------------------------------
import numpy as np
set {scf_type pk
basis cc-pvdz
d_convergence 10
gdma_switch   0
gdma_limit    0
gdma_origin   [ 0.0,  0.0,  0.0 ]
}
molecule test {
    units Angstrom
    0 1
    --
    0 1
    C               -2.156484867161780     2.150626637438195    -1.435250537633753
    C               -2.993484867161780     2.726626637438195    -0.288250537633753
    C               -2.964484867161780     1.300626637438195    -2.400250537633752
    O               -2.991484867161780     0.080626637438195    -2.295250537633753
    N               -3.611484867161780     1.944626637438195    -3.359250537633753
    H               -1.739484867161780     2.992626637438195    -1.988250537633753
    H               -1.318484867161780     1.581626637438195    -1.049250537633753
    H               -3.775484867161780     3.366626637438195    -0.705250537633753
    H               -4.165484867161781     1.401626637438195    -4.006250537633753
    H               -3.599484867161780     2.953626637438195    -3.417250537633753
    H               -2.342256867161780     3.344016637438195     0.347939462366247
    H               -3.463200867161780     1.924796637438195     0.300339462366247
    C               -0.351484867161780    -1.028373362561805    -0.193250537633753
    C               -1.172484867161780    -2.249373362561805     0.216749462366247
    C                0.942515132838220    -0.900373362561805     0.568749462366247
    C                2.029515132838220    -1.721373362561805     0.264749462366247
    C                1.063515132838220     0.017626637438195     1.610749462366247
    C                3.217515132838220    -1.621373362561805     0.976749462366247
    C                2.247515132838220     0.111626637438195     2.341749462366247
    C                3.325515132838220    -0.708373362561805     2.013749462366246
    O                4.505515132838219    -0.614373362561805     2.689749462366247
    H               -0.152484867161780    -1.062373362561805    -1.265250537633753
    H               -0.944484867161780    -0.149373362561805     0.022749462366247
    H               -0.716484867161780    -3.138373362561805    -0.222250537633753
    H                1.947515132838220    -2.435373362561805    -0.544250537633753
    H                0.236515132838220     0.670626637438195     1.852749462366247
    H                4.061515132838220    -2.242373362561805     0.722749462366247
    H                2.341515132838220     0.832626637438195     3.141749462366247
    H                5.182515132838220    -1.179373362561805     2.301749462366247
    H               -2.200806867161780    -2.146543362561805    -0.160050537633753
    H               -1.155953867161780    -2.376593362561805     1.309239462366247

}
e, wfn = energy('scf', return_wfn=True)
gdma(wfn)
dmavals = variable('DMA DISTRIBUTED MULTIPOLES')
charges = np.array(dmavals)
print(charges)
np.save('SSI-055ASN-058TYR-1-dimer.npy', np.array(charges))--------------------------------------------------------------------------

*** tstart() called on ds3
*** at Mon Apr 27 17:35:05 2020

   => Loading Basis Set <=

    Name: CC-PVDZ
    Role: ORBITAL
    Keyword: BASIS
    atoms 1-3, 13-20  entry C          line   138 file /theoryfs2/ds/metcalf/miniconda2/envs/tf2gpu/share/psi4/basis/cc-pvdz.gbs
    atoms 4, 21       entry O          line   198 file /theoryfs2/ds/metcalf/miniconda2/envs/tf2gpu/share/psi4/basis/cc-pvdz.gbs
    atoms 5           entry N          line   168 file /theoryfs2/ds/metcalf/miniconda2/envs/tf2gpu/share/psi4/basis/cc-pvdz.gbs
    atoms 6-12, 22-31 entry H          line    22 file /theoryfs2/ds/metcalf/miniconda2/envs/tf2gpu/share/psi4/basis/cc-pvdz.gbs

         ---------------------------------------------------------
                                   SCF
               by Justin Turney, Rob Parrish, Andy Simmonett
                          and Daniel G. A. Smith
                              RHF Reference
                        1 Threads,    500 MiB Core
         ---------------------------------------------------------

  ==> Geometry <==

    Molecular point group: c1
    Full point group: C1

    Geometry (in Angstrom), charge = 0, multiplicity = 1:

       Center              X                  Y                   Z               Mass
    ------------   -----------------  -----------------  -----------------  -----------------
         C           -2.156484867162     2.150626637438    -1.435250537634    12.000000000000
         C           -2.993484867162     2.726626637438    -0.288250537634    12.000000000000
         C           -2.964484867162     1.300626637438    -2.400250537634    12.000000000000
         O           -2.991484867162     0.080626637438    -2.295250537634    15.994914619570
         N           -3.611484867162     1.944626637438    -3.359250537634    14.003074004430
         H           -1.739484867162     2.992626637438    -1.988250537634     1.007825032230
         H           -1.318484867162     1.581626637438    -1.049250537634     1.007825032230
         H           -3.775484867162     3.366626637438    -0.705250537634     1.007825032230
         H           -4.165484867162     1.401626637438    -4.006250537634     1.007825032230
         H           -3.599484867162     2.953626637438    -3.417250537634     1.007825032230
         H           -2.342256867162     3.344016637438     0.347939462366     1.007825032230
         H           -3.463200867162     1.924796637438     0.300339462366     1.007825032230
         C           -0.351484867162    -1.028373362562    -0.193250537634    12.000000000000
         C           -1.172484867162    -2.249373362562     0.216749462366    12.000000000000
         C            0.942515132838    -0.900373362562     0.568749462366    12.000000000000
         C            2.029515132838    -1.721373362562     0.264749462366    12.000000000000
         C            1.063515132838     0.017626637438     1.610749462366    12.000000000000
         C            3.217515132838    -1.621373362562     0.976749462366    12.000000000000
         C            2.247515132838     0.111626637438     2.341749462366    12.000000000000
         C            3.325515132838    -0.708373362562     2.013749462366    12.000000000000
         O            4.505515132838    -0.614373362562     2.689749462366    15.994914619570
         H           -0.152484867162    -1.062373362562    -1.265250537634     1.007825032230
         H           -0.944484867162    -0.149373362562     0.022749462366     1.007825032230
         H           -0.716484867162    -3.138373362562    -0.222250537634     1.007825032230
         H            1.947515132838    -2.435373362562    -0.544250537634     1.007825032230
         H            0.236515132838     0.670626637438     1.852749462366     1.007825032230
         H            4.061515132838    -2.242373362562     0.722749462366     1.007825032230
         H            2.341515132838     0.832626637438     3.141749462366     1.007825032230
         H            5.182515132838    -1.179373362562     2.301749462366     1.007825032230
         H           -2.200806867162    -2.146543362562    -0.160050537634     1.007825032230
         H           -1.155953867162    -2.376593362562     1.309239462366     1.007825032230

  Running in c1 symmetry.

  Rotational constants: A =      0.04445  B =      0.00730  C =      0.00675 [cm^-1]
  Rotational constants: A =   1332.57916  B =    218.81425  C =    202.34843 [MHz]
  Nuclear repulsion =  828.125186966238289

  Charge       = 0
  Multiplicity = 1
  Electrons    = 106
  Nalpha       = 53
  Nbeta        = 53

  ==> Algorithm <==

  SCF Algorithm Type is PK.
  DIIS enabled.
  MOM disabled.
  Fractional occupation disabled.
  Guess Type is SAD.
  Energy threshold   = 1.00e-06
  Density threshold  = 1.00e-10
  Integral threshold = 0.00e+00

  ==> Primary Basis <==

  Basis Set: CC-PVDZ
    Blend: CC-PVDZ
    Number of shells: 135
    Number of basis function: 281
    Number of Cartesian functions: 295
    Spherical Harmonics?: true
    Max angular momentum: 2

  ==> Pre-Iterations <==

   -------------------------------------------------------
    Irrep   Nso     Nmo     Nalpha   Nbeta   Ndocc  Nsocc
   -------------------------------------------------------
     A        281     281       0       0       0       0
   -------------------------------------------------------
    Total     281     281      53      53      53       0
   -------------------------------------------------------

  ==> Integral Setup <==

  Using integral reordering PK algorithm.
  Sizing the integral batches needed.
  Building batch lookup table.
   Calculation information:
      Number of atoms:                  31
      Number of AO shells:             135
      Number of primitives:            393
      Number of atomic orbitals:       295
      Number of basis functions:       281

      Integral cutoff                 1.00e-12
      Number of threads:                 1

	Batch   1 pq = [       0,    9405] index = [             0,44231715] size =     44231715
	Batch   2 pq = [    9405,   13301] index = [      44231715,88464951] size =     44233236
	Batch   3 pq = [   13301,   16290] index = [      88464951,132690195] size =     44225244
	Batch   4 pq = [   16290,   18810] index = [     132690195,176917455] size =     44227260
	Batch   5 pq = [   18810,   21030] index = [     176917455,221140965] size =     44223510
	Batch   6 pq = [   21030,   23037] index = [     221140965,265363203] size =     44222238
	Batch   7 pq = [   23037,   24883] index = [     265363203,309594286] size =     44231083
	Batch   8 pq = [   24883,   26601] index = [     309594286,353819901] size =     44225615
	Batch   9 pq = [   26601,   28214] index = [     353819901,398029005] size =     44209104
	Batch  10 pq = [   28214,   29740] index = [     398029005,442248670] size =     44219665
	Batch  11 pq = [   29740,   31191] index = [     442248670,486454836] size =     44206166
	Batch  12 pq = [   31191,   32578] index = [     486454836,530679331] size =     44224495
	Batch  13 pq = [   32578,   33908] index = [     530679331,574893186] size =     44213855
	Batch  14 pq = [   33908,   35188] index = [     574893186,619115266] size =     44222080
	Batch  15 pq = [   35188,   36423] index = [     619115266,663335676] size =     44220410
	Batch  16 pq = [   36423,   37617] index = [     663335676,707538153] size =     44202477
	Batch  17 pq = [   37617,   38775] index = [     707538153,751769700] size =     44231547
	Batch  18 pq = [   38775,   39621] index = [     751769700,784931631] size =     33161931
  Task number: 71
  Buffer size: 11059200
  Buffer per thread: 2
  We computed 34342934 shell quartets total.
  Whereas there are 42140790 unique shell quartets.

  ==> DiskJK: Disk-Based J/K Matrices <==

    J tasked:                  Yes
    K tasked:                  Yes
    wK tasked:                  No
    Memory [MiB]:              375
    Schwarz Cutoff:          1E-12

    OpenMP threads:              1

  Minimum eigenvalue in the overlap matrix is 3.2046606597E-04.
  Using Symmetric Orthogonalization.

  SCF Guess: Superposition of Atomic Densities via on-the-fly atomic UHF.

  ==> Iterations <==

                        Total Energy        Delta E     RMS |[F,P]|

   @RHF iter SAD:  -629.31404358151497   -6.29314e+02   0.00000e+00
   @RHF iter   1:  -630.31214716917668   -9.98104e-01   2.84157e-03 DIIS
   @RHF iter   2:  -630.61443744828364   -3.02290e-01   1.45465e-03 DIIS
   @RHF iter   3:  -630.68257700240792   -6.81396e-02   3.45697e-04 DIIS
   @RHF iter   4:  -630.68809370692941   -5.51670e-03   1.43406e-04 DIIS
   @RHF iter   5:  -630.68901012400329   -9.16417e-04   2.05161e-05 DIIS
   @RHF iter   6:  -630.68905204554835   -4.19215e-05   8.73350e-06 DIIS
   @RHF iter   7:  -630.68905789593134   -5.85038e-06   3.45925e-06 DIIS
   @RHF iter   8:  -630.68905915911603   -1.26318e-06   1.40488e-06 DIIS
   @RHF iter   9:  -630.68905935247312   -1.93357e-07   4.73951e-07 DIIS
   @RHF iter  10:  -630.68905937423392   -2.17608e-08   1.80415e-07 DIIS
   @RHF iter  11:  -630.68905937695195   -2.71802e-09   5.36444e-08 DIIS
   @RHF iter  12:  -630.68905937720911   -2.57160e-10   2.05590e-08 DIIS
   @RHF iter  13:  -630.68905937724537   -3.62661e-11   7.22390e-09 DIIS
   @RHF iter  14:  -630.68905937725469   -9.32232e-12   3.23195e-09 DIIS
   @RHF iter  15:  -630.68905937725913   -4.43379e-12   1.61360e-09 DIIS
   @RHF iter  16:  -630.68905937725015    8.98126e-12   7.16313e-10 DIIS
   @RHF iter  17:  -630.68905937725197   -1.81899e-12   2.66713e-10 DIIS
   @RHF iter  18:  -630.68905937725651   -4.54747e-12   7.37070e-11 DIIS
  Energy and wave function converged.

  ==> Post-Iterations <==

    Orbital Energies [Eh]
    ---------------------

    Doubly Occupied:

       1A    -20.577184     2A    -20.507350     3A    -15.591350
       4A    -11.346153     5A    -11.292568     6A    -11.241293
       7A    -11.240134     8A    -11.232108     9A    -11.231382
      10A    -11.226250    11A    -11.225492    12A    -11.221988
      13A    -11.211527    14A    -11.204912    15A     -1.394386
      16A     -1.372734    17A     -1.219959    18A     -1.145745
      19A     -1.054510    20A     -1.047919    21A     -1.012491
      22A     -0.965341    23A     -0.892791    24A     -0.848251
      25A     -0.838490    26A     -0.794780    27A     -0.782145
      28A     -0.729543    29A     -0.725986    30A     -0.666875
      31A     -0.665585    32A     -0.637671    33A     -0.613247
      34A     -0.604702    35A     -0.601297    36A     -0.585717
      37A     -0.581257    38A     -0.578048    39A     -0.575875
      40A     -0.559266    41A     -0.536479    42A     -0.533525
      43A     -0.512458    44A     -0.504355    45A     -0.501890
      46A     -0.487809    47A     -0.462871    48A     -0.461984
      49A     -0.456042    50A     -0.408395    51A     -0.406172
      52A     -0.333556    53A     -0.294238

    Virtual:

      54A      0.135537    55A      0.150992    56A      0.164716
      57A      0.181973    58A      0.184272    59A      0.198888
      60A      0.213998    61A      0.218377    62A      0.223377
      63A      0.232028    64A      0.243467    65A      0.255514
      66A      0.257256    67A      0.263776    68A      0.278902
      69A      0.281811    70A      0.299574    71A      0.311323
      72A      0.318409    73A      0.334660    74A      0.362804
      75A      0.372053    76A      0.390695    77A      0.422880
      78A      0.429558    79A      0.432981    80A      0.464787
      81A      0.488885    82A      0.501726    83A      0.505217
      84A      0.529024    85A      0.554151    86A      0.602890
      87A      0.615887    88A      0.621184    89A      0.629945
      90A      0.651385    91A      0.656866    92A      0.666615
      93A      0.672768    94A      0.678485    95A      0.693588
      96A      0.699285    97A      0.716089    98A      0.719322
      99A      0.730157   100A      0.736964   101A      0.740409
     102A      0.748060   103A      0.769117   104A      0.776856
     105A      0.790960   106A      0.805300   107A      0.817116
     108A      0.824182   109A      0.830353   110A      0.847759
     111A      0.850780   112A      0.862286   113A      0.873806
     114A      0.880716   115A      0.882469   116A      0.886982
     117A      0.894489   118A      0.898838   119A      0.905934
     120A      0.908030   121A      0.912422   122A      0.917005
     123A      0.932175   124A      0.938893   125A      0.947398
     126A      0.949133   127A      0.961743   128A      0.962496
     129A      0.991816   130A      0.997082   131A      1.021240
     132A      1.022543   133A      1.029121   134A      1.057991
     135A      1.065384   136A      1.083128   137A      1.095810
     138A      1.128289   139A      1.132972   140A      1.144953
     141A      1.157383   142A      1.165787   143A      1.181281
     144A      1.198654   145A      1.243073   146A      1.250994
     147A      1.274054   148A      1.289093   149A      1.305495
     150A      1.309093   151A      1.317398   152A      1.327204
     153A      1.332200   154A      1.341032   155A      1.357366
     156A      1.366470   157A      1.372676   158A      1.407324
     159A      1.413771   160A      1.428961   161A      1.444530
     162A      1.453417   163A      1.470363   164A      1.487671
     165A      1.498044   166A      1.501534   167A      1.518356
     168A      1.546561   169A      1.622593   170A      1.625218
     171A      1.635603   172A      1.656860   173A      1.664537
     174A      1.688450   175A      1.722395   176A      1.732617
     177A      1.743810   178A      1.751659   179A      1.772383
     180A      1.802762   181A      1.807140   182A      1.833324
     183A      1.849559   184A      1.857108   185A      1.871515
     186A      1.873092   187A      1.877367   188A      1.893797
     189A      1.896918   190A      1.902776   191A      1.907349
     192A      1.912805   193A      1.914571   194A      1.922245
     195A      1.923735   196A      1.940816   197A      1.944976
     198A      1.960826   199A      1.970299   200A      1.975341
     201A      1.986763   202A      1.993476   203A      1.998599
     204A      2.013087   205A      2.022660   206A      2.027212
     207A      2.031484   208A      2.034502   209A      2.052404
     210A      2.061605   211A      2.073845   212A      2.081506
     213A      2.098257   214A      2.111201   215A      2.117640
     216A      2.131711   217A      2.154632   218A      2.157354
     219A      2.186846   220A      2.204270   221A      2.208202
     222A      2.255794   223A      2.264119   224A      2.278726
     225A      2.295731   226A      2.316472   227A      2.321650
     228A      2.333381   229A      2.349870   230A      2.372554
     231A      2.393046   232A      2.422668   233A      2.453320
     234A      2.463191   235A      2.470028   236A      2.478924
     237A      2.490139   238A      2.531069   239A      2.535825
     240A      2.549478   241A      2.555506   242A      2.561295
     243A      2.577693   244A      2.580640   245A      2.592189
     246A      2.622357   247A      2.658141   248A      2.663014
     249A      2.742231   250A      2.762911   251A      2.763245
     252A      2.788334   253A      2.804239   254A      2.822480
     255A      2.825897   256A      2.843821   257A      2.874654
     258A      2.886908   259A      2.892573   260A      2.946753
     261A      2.957008   262A      2.972383   263A      3.008501
     264A      3.016477   265A      3.054392   266A      3.091989
     267A      3.101630   268A      3.141927   269A      3.185917
     270A      3.259080   271A      3.296276   272A      3.298023
     273A      3.351018   274A      3.521432   275A      3.535568
     276A      3.583146   277A      3.677071   278A      3.880330
     279A      3.912610   280A      3.991795   281A      4.192378

    Final Occupation by Irrep:
              A
    DOCC [    53 ]

  @RHF Final Energy:  -630.68905937725651

   => Energetics <=

    Nuclear Repulsion Energy =            828.1251869662382887
    One-Electron Energy =               -2502.1403401725888216
    Two-Electron Energy =                1043.3260938290939066
    Total Energy =                       -630.6890593772566262

Computation Completed

Properties will be evaluated at   0.000000,   0.000000,   0.000000 [a0]

Properties computed using the SCF density matrix

  Nuclear Dipole Moment: [e a0]
     X:   -11.0486      Y:     4.0584      Z:    -3.1371

  Electronic Dipole Moment: [e a0]
     X:    10.7588      Y:    -2.7779      Z:     2.2148

  Dipole Moment: [e a0]
     X:    -0.2898      Y:     1.2805      Z:    -0.9223     Total:     1.6045

  Dipole Moment: [D]
     X:    -0.7366      Y:     3.2546      Z:    -2.3444     Total:     4.0781

*** tstop() called on ds3 at Mon Apr 27 17:42:23 2020
Module time:
	user time   =     288.87 seconds =       4.81 minutes
	system time =     127.68 seconds =       2.13 minutes
	total time  =        438 seconds =       7.30 minutes
Total time:
	user time   =     288.87 seconds =       4.81 minutes
	system time =     127.68 seconds =       2.13 minutes
	total time  =        438 seconds =       7.30 minutes
                                     G D M A

                                 by Anthony Stone

                           version 2.2.06, 22 June 2011

               Distributed Multipoles from Gaussian wavefunctions

Starting at 17:42:23 on 27 Apr 2020

Using SCF density matrix from file ./SSI/SSI-055ASN-058TYR-1-dimer.test.31562.fchk

                         Distributed Multipole Analysis

Standard DMA

Positions and radii in angstrom
Multipole moments in atomic units, ea_0^k for rank k

C          x = -2.156485  y =  2.150627  z = -1.435251 angstrom
           Maximum rank =  0   Radius =  0.650 angstrom
                   Q00  =  -0.117969

C          x = -2.993485  y =  2.726627  z = -0.288251 angstrom
           Maximum rank =  0   Radius =  0.650 angstrom
                   Q00  =  -0.219049

C          x = -2.964485  y =  1.300627  z = -2.400251 angstrom
           Maximum rank =  0   Radius =  0.650 angstrom
                   Q00  =   0.819431

O          x = -2.991485  y =  0.080627  z = -2.295251 angstrom
           Maximum rank =  0   Radius =  0.650 angstrom
                   Q00  =  -0.789111

N          x = -3.611485  y =  1.944627  z = -3.359251 angstrom
           Maximum rank =  0   Radius =  0.650 angstrom
                   Q00  =  -0.542057

H          x = -1.739485  y =  2.992627  z = -1.988251 angstrom
           Maximum rank =  0   Radius =  0.325 angstrom
                   Q00  =   0.047249

H          x = -1.318485  y =  1.581627  z = -1.049251 angstrom
           Maximum rank =  0   Radius =  0.325 angstrom
                   Q00  =   0.110096

H          x = -3.775485  y =  3.366627  z = -0.705251 angstrom
           Maximum rank =  0   Radius =  0.325 angstrom
                   Q00  =   0.074452

H          x = -4.165485  y =  1.401627  z = -4.006251 angstrom
           Maximum rank =  0   Radius =  0.325 angstrom
                   Q00  =   0.218929

H          x = -3.599485  y =  2.953627  z = -3.417251 angstrom
           Maximum rank =  0   Radius =  0.325 angstrom
                   Q00  =   0.208343

H          x = -2.342257  y =  3.344017  z =  0.347939 angstrom
           Maximum rank =  0   Radius =  0.325 angstrom
                   Q00  =   0.093563

H          x = -3.463201  y =  1.924797  z =  0.300339 angstrom
           Maximum rank =  0   Radius =  0.325 angstrom
                   Q00  =   0.097569

C          x = -0.351485  y = -1.028373  z = -0.193251 angstrom
           Maximum rank =  0   Radius =  0.650 angstrom
                   Q00  =   0.028715

C          x = -1.172485  y = -2.249373  z =  0.216749 angstrom
           Maximum rank =  0   Radius =  0.650 angstrom
                   Q00  =  -0.247929

C          x =  0.942515  y = -0.900373  z =  0.568749 angstrom
           Maximum rank =  0   Radius =  0.650 angstrom
                   Q00  =  -0.162479

C          x =  2.029515  y = -1.721373  z =  0.264749 angstrom
           Maximum rank =  0   Radius =  0.650 angstrom
                   Q00  =   0.021415

C          x =  1.063515  y =  0.017627  z =  1.610749 angstrom
           Maximum rank =  0   Radius =  0.650 angstrom
                   Q00  =  -0.051156

C          x =  3.217515  y = -1.621373  z =  0.976749 angstrom
           Maximum rank =  0   Radius =  0.650 angstrom
                   Q00  =  -0.177249

C          x =  2.247515  y =  0.111627  z =  2.341749 angstrom
           Maximum rank =  0   Radius =  0.650 angstrom
                   Q00  =  -0.122631

C          x =  3.325515  y = -0.708373  z =  2.013749 angstrom
           Maximum rank =  0   Radius =  0.650 angstrom
                   Q00  =   0.317667

O          x =  4.505515  y = -0.614373  z =  2.689749 angstrom
           Maximum rank =  0   Radius =  0.650 angstrom
                   Q00  =  -0.645093

H          x = -0.152485  y = -1.062373  z = -1.265251 angstrom
           Maximum rank =  0   Radius =  0.325 angstrom
                   Q00  =   0.067134

H          x = -0.944485  y = -0.149373  z =  0.022749 angstrom
           Maximum rank =  0   Radius =  0.325 angstrom
                   Q00  =   0.045244

H          x = -0.716485  y = -3.138373  z = -0.222251 angstrom
           Maximum rank =  0   Radius =  0.325 angstrom
                   Q00  =   0.072659

H          x =  1.947515  y = -2.435373  z = -0.544251 angstrom
           Maximum rank =  0   Radius =  0.325 angstrom
                   Q00  =   0.068262

H          x =  0.236515  y =  0.670627  z =  1.852749 angstrom
           Maximum rank =  0   Radius =  0.325 angstrom
                   Q00  =   0.059474

H          x =  4.061515  y = -2.242373  z =  0.722749 angstrom
           Maximum rank =  0   Radius =  0.325 angstrom
                   Q00  =   0.067303

H          x =  2.341515  y =  0.832627  z =  3.141749 angstrom
           Maximum rank =  0   Radius =  0.325 angstrom
                   Q00  =   0.078486

H          x =  5.182515  y = -1.179373  z =  2.301749 angstrom
           Maximum rank =  0   Radius =  0.325 angstrom
                   Q00  =   0.405297

H          x = -2.200807  y = -2.146543  z = -0.160051 angstrom
           Maximum rank =  0   Radius =  0.325 angstrom
                   Q00  =   0.098481

H          x = -1.155954  y = -2.376593  z =  1.309239 angstrom
           Maximum rank =  0   Radius =  0.325 angstrom
                   Q00  =   0.074952

Total multipoles referred to origin at
           x =   0.000000,  y =    0.000000,  z =    0.000000 angstrom
                   Q00  =  -0.000000

Finished at 17:42:23 on 27 Apr 2020

  DMA results are available in the Python driver through the
	  variable('DMA DISTRIBUTED MULTIPOLES')
  and
	  variable('DMA TOTAL MULTIPOLES')
  commands.

    Psi4 stopped on: Monday, 27 April 2020 05:42PM
    Psi4 wall time for execution: 0:07:17.95

*** Psi4 exiting successfully. Buy a developer a beer!
