                               Psi4 1.3.2 release

  ==> Input File <==

--------------------------------------------------------------------------
import numpy as np
set {scf_type pk
basis cc-pvdz
d_convergence 10
gdma_switch   0
gdma_limit    0
gdma_origin   [ 0.0,  0.0,  0.0 ]
}
molecule test {
    units Angstrom
    0 1
    --
    0 1
    C                3.176177120643278    -0.857347041893706     1.286993069058387
    C                1.910177120643278    -0.142347041893706     0.917993069058387
    O                1.145177120643278     0.384652958106294     1.744993069058387
    N                1.663177120643278    -0.116347041893706    -0.364006930941613
    H                3.949177120643278    -0.598347041893706     0.561993069058387
    H                2.997177120643277    -1.926347041893706     1.193993069058387
    H                0.892177120643278     0.498652958106294    -0.637006930941613
    H                2.085177120643278    -0.817347041893706    -0.959006930941613
    H                3.553237120643277    -0.603317041893706     2.288633069058387
    C               -3.296822879356722    -0.029347041893706    -1.403006930941613
    C               -1.926822879356722     0.240652958106294    -0.821006930941613
    O               -1.814822879356722     0.623652958106294     0.354993069058387
    N               -0.881822879356722    -0.031347041893706    -1.595006930941613
    H               -3.775822879356722    -0.768347041893706    -0.759006930941613
    H               -3.183822879356722    -0.472347041893706    -2.390006930941613
    H               -0.156822879356722    -0.544347041893706    -1.132006930941613
    H               -1.024822879356722    -0.200347041893706    -2.594006930941612
    H               -3.929592879356722     0.868862958106294    -1.456096930941613

}
e, wfn = energy('scf', return_wfn=True)
gdma(wfn)
dmavals = variable('DMA DISTRIBUTED MULTIPOLES')
charges = np.array(dmavals)
print(charges)
np.save('SSI-022GLN-055ASN-1-dimer.npy', np.array(charges))--------------------------------------------------------------------------

*** tstart() called on ds3
*** at Tue Apr 28 03:25:37 2020

   => Loading Basis Set <=

    Name: CC-PVDZ
    Role: ORBITAL
    Keyword: BASIS
    atoms 1-2, 10-11 entry C          line   138 file /theoryfs2/ds/metcalf/miniconda2/envs/tf2gpu/share/psi4/basis/cc-pvdz.gbs
    atoms 3, 12      entry O          line   198 file /theoryfs2/ds/metcalf/miniconda2/envs/tf2gpu/share/psi4/basis/cc-pvdz.gbs
    atoms 4, 13      entry N          line   168 file /theoryfs2/ds/metcalf/miniconda2/envs/tf2gpu/share/psi4/basis/cc-pvdz.gbs
    atoms 5-9, 14-18 entry H          line    22 file /theoryfs2/ds/metcalf/miniconda2/envs/tf2gpu/share/psi4/basis/cc-pvdz.gbs

         ---------------------------------------------------------
                                   SCF
               by Justin Turney, Rob Parrish, Andy Simmonett
                          and Daniel G. A. Smith
                              RHF Reference
                        1 Threads,    500 MiB Core
         ---------------------------------------------------------

  ==> Geometry <==

    Molecular point group: c1
    Full point group: C1

    Geometry (in Angstrom), charge = 0, multiplicity = 1:

       Center              X                  Y                   Z               Mass
    ------------   -----------------  -----------------  -----------------  -----------------
         C            3.176177120643    -0.857347041894     1.286993069058    12.000000000000
         C            1.910177120643    -0.142347041894     0.917993069058    12.000000000000
         O            1.145177120643     0.384652958106     1.744993069058    15.994914619570
         N            1.663177120643    -0.116347041894    -0.364006930942    14.003074004430
         H            3.949177120643    -0.598347041894     0.561993069058     1.007825032230
         H            2.997177120643    -1.926347041894     1.193993069058     1.007825032230
         H            0.892177120643     0.498652958106    -0.637006930942     1.007825032230
         H            2.085177120643    -0.817347041894    -0.959006930942     1.007825032230
         H            3.553237120643    -0.603317041894     2.288633069058     1.007825032230
         C           -3.296822879357    -0.029347041894    -1.403006930942    12.000000000000
         C           -1.926822879357     0.240652958106    -0.821006930942    12.000000000000
         O           -1.814822879357     0.623652958106     0.354993069058    15.994914619570
         N           -0.881822879357    -0.031347041894    -1.595006930942    14.003074004430
         H           -3.775822879357    -0.768347041894    -0.759006930942     1.007825032230
         H           -3.183822879357    -0.472347041894    -2.390006930942     1.007825032230
         H           -0.156822879357    -0.544347041894    -1.132006930942     1.007825032230
         H           -1.024822879357    -0.200347041894    -2.594006930942     1.007825032230
         H           -3.929592879357     0.868862958106    -1.456096930942     1.007825032230

  Running in c1 symmetry.

  Rotational constants: A =      0.16551  B =      0.02561  C =      0.02292 [cm^-1]
  Rotational constants: A =   4961.99122  B =    767.82603  C =    687.25809 [MHz]
  Nuclear repulsion =  370.814629552802899

  Charge       = 0
  Multiplicity = 1
  Electrons    = 64
  Nalpha       = 32
  Nbeta        = 32

  ==> Algorithm <==

  SCF Algorithm Type is PK.
  DIIS enabled.
  MOM disabled.
  Fractional occupation disabled.
  Guess Type is SAD.
  Energy threshold   = 1.00e-06
  Density threshold  = 1.00e-10
  Integral threshold = 0.00e+00

  ==> Primary Basis <==

  Basis Set: CC-PVDZ
    Blend: CC-PVDZ
    Number of shells: 78
    Number of basis function: 162
    Number of Cartesian functions: 170
    Spherical Harmonics?: true
    Max angular momentum: 2

  ==> Pre-Iterations <==

   -------------------------------------------------------
    Irrep   Nso     Nmo     Nalpha   Nbeta   Ndocc  Nsocc
   -------------------------------------------------------
     A        162     162       0       0       0       0
   -------------------------------------------------------
    Total     162     162      32      32      32       0
   -------------------------------------------------------

  ==> Integral Setup <==

  Using integral reordering PK algorithm.
  Sizing the integral batches needed.
  Building batch lookup table.
   Calculation information:
      Number of atoms:                  18
      Number of AO shells:              78
      Number of primitives:            226
      Number of atomic orbitals:       170
      Number of basis functions:       162

      Integral cutoff                 1.00e-12
      Number of threads:                 1

	Batch   1 pq = [       0,    9405] index = [             0,44231715] size =     44231715
	Batch   2 pq = [    9405,   13203] index = [      44231715,87166206] size =     42934491
  Task number: 8
  Buffer size: 11059200
  Buffer per thread: 2
  We computed 3702023 shell quartets total.
  Whereas there are 4747821 unique shell quartets.

  ==> DiskJK: Disk-Based J/K Matrices <==

    J tasked:                  Yes
    K tasked:                  Yes
    wK tasked:                  No
    Memory [MiB]:              375
    Schwarz Cutoff:          1E-12

    OpenMP threads:              1

  Minimum eigenvalue in the overlap matrix is 4.2990428079E-03.
  Using Symmetric Orthogonalization.

  SCF Guess: Superposition of Atomic Densities via on-the-fly atomic UHF.

  ==> Iterations <==

                        Total Energy        Delta E     RMS |[F,P]|

   @RHF iter SAD:  -414.69888987268166   -4.14699e+02   0.00000e+00
   @RHF iter   1:  -415.62701833308392   -9.28128e-01   4.84208e-03 DIIS
   @RHF iter   2:  -415.84506274157775   -2.18044e-01   3.15780e-03 DIIS
   @RHF iter   3:  -415.93923551787566   -9.41728e-02   5.89471e-04 DIIS
   @RHF iter   4:  -415.94460007920202   -5.36456e-03   2.10057e-04 DIIS
   @RHF iter   5:  -415.94550006909043   -8.99990e-04   4.07490e-05 DIIS
   @RHF iter   6:  -415.94556387267630   -6.38036e-05   1.97975e-05 DIIS
   @RHF iter   7:  -415.94557506020698   -1.11875e-05   8.09717e-06 DIIS
   @RHF iter   8:  -415.94557736486553   -2.30466e-06   2.67356e-06 DIIS
   @RHF iter   9:  -415.94557763807853   -2.73213e-07   8.71213e-07 DIIS
   @RHF iter  10:  -415.94557765477089   -1.66924e-08   3.78466e-07 DIIS
   @RHF iter  11:  -415.94557765803722   -3.26634e-09   6.39916e-08 DIIS
   @RHF iter  12:  -415.94557765821168   -1.74452e-10   2.32252e-08 DIIS
   @RHF iter  13:  -415.94557765823976   -2.80806e-11   1.04100e-08 DIIS
   @RHF iter  14:  -415.94557765824379   -4.03588e-12   4.91654e-09 DIIS
   @RHF iter  15:  -415.94557765824646   -2.67164e-12   2.02197e-09 DIIS
   @RHF iter  16:  -415.94557765824743   -9.66338e-13   6.23570e-10 DIIS
   @RHF iter  17:  -415.94557765824879   -1.36424e-12   2.16711e-10 DIIS
   @RHF iter  18:  -415.94557765824970   -9.09495e-13   6.79366e-11 DIIS
  Energy and wave function converged.

  ==> Post-Iterations <==

    Orbital Energies [Eh]
    ---------------------

    Doubly Occupied:

       1A    -20.510033     2A    -20.496263     3A    -15.589096
       4A    -15.584047     5A    -11.350201     6A    -11.338290
       7A    -11.242478     8A    -11.238025     9A     -1.364027
      10A     -1.355319    11A     -1.231053    12A     -1.216150
      13A     -1.005104    14A     -0.998729    15A     -0.815762
      16A     -0.788413    17A     -0.749289    18A     -0.715078
      19A     -0.658157    20A     -0.642595    21A     -0.615593
      22A     -0.613880    23A     -0.573866    24A     -0.566849
      25A     -0.560802    26A     -0.550841    27A     -0.514453
      28A     -0.502627    29A     -0.415595    30A     -0.409780
      31A     -0.396599    32A     -0.394625

    Virtual:

      33A      0.151170    34A      0.171898    35A      0.173307
      36A      0.197704    37A      0.214919    38A      0.225123
      39A      0.254393    40A      0.262797    41A      0.274280
      42A      0.279832    43A      0.292888    44A      0.309159
      45A      0.374365    46A      0.391273    47A      0.451271
      48A      0.493718    49A      0.549418    50A      0.579701
      51A      0.605894    52A      0.633273    53A      0.647173
      54A      0.677547    55A      0.693952    56A      0.695720
      57A      0.709255    58A      0.731757    59A      0.743199
      60A      0.752234    61A      0.774527    62A      0.787838
      63A      0.831526    64A      0.845439    65A      0.849741
      66A      0.858905    67A      0.891051    68A      0.893485
      69A      0.906170    70A      0.909105    71A      0.930184
      72A      0.950997    73A      0.976169    74A      1.009265
      75A      1.029257    76A      1.058899    77A      1.089803
      78A      1.093285    79A      1.107354    80A      1.123813
      81A      1.139473    82A      1.169087    83A      1.244091
      84A      1.324044    85A      1.345633    86A      1.364027
      87A      1.374290    88A      1.398583    89A      1.418090
      90A      1.422853    91A      1.448205    92A      1.454570
      93A      1.490460    94A      1.523848    95A      1.544013
      96A      1.574859    97A      1.609199    98A      1.653294
      99A      1.660965   100A      1.663739   101A      1.691295
     102A      1.722854   103A      1.779623   104A      1.816879
     105A      1.831459   106A      1.857284   107A      1.863593
     108A      1.888010   109A      1.897223   110A      1.909402
     111A      1.915291   112A      1.929430   113A      1.952695
     114A      1.977925   115A      1.990319   116A      2.032820
     117A      2.058830   118A      2.088328   119A      2.099461
     120A      2.120775   121A      2.144968   122A      2.174956
     123A      2.226288   124A      2.249564   125A      2.279950
     126A      2.320136   127A      2.351685   128A      2.407514
     129A      2.436719   130A      2.453173   131A      2.482331
     132A      2.498154   133A      2.510880   134A      2.527710
     135A      2.599815   136A      2.626564   137A      2.700763
     138A      2.703412   139A      2.737516   140A      2.748215
     141A      2.758410   142A      2.788885   143A      2.799240
     144A      2.801919   145A      2.875602   146A      2.927085
     147A      2.981406   148A      3.049706   149A      3.085515
     150A      3.104062   151A      3.141058   152A      3.143012
     153A      3.220894   154A      3.354179   155A      3.430162
     156A      3.489751   157A      3.534091   158A      3.560363
     159A      3.835244   160A      3.854274   161A      3.873588
     162A      3.913867

    Final Occupation by Irrep:
              A
    DOCC [    32 ]

  @RHF Final Energy:  -415.94557765824970

   => Energetics <=

    Nuclear Repulsion Energy =            370.8146295528028986
    One-Electron Energy =               -1303.5131764626735276
    Two-Electron Energy =                 516.7529692516209252
    Total Energy =                       -415.9455776582497037

Computation Completed

Properties will be evaluated at   0.000000,   0.000000,   0.000000 [a0]

Properties computed using the SCF density matrix

  Nuclear Dipole Moment: [e a0]
     X:     1.3127      Y:    -4.2726      Z:    -5.4989

  Electronic Dipole Moment: [e a0]
     X:    -0.6787      Y:     2.8053      Z:     2.8209

  Dipole Moment: [e a0]
     X:     0.6340      Y:    -1.4673      Z:    -2.6780     Total:     3.1187

  Dipole Moment: [D]
     X:     1.6114      Y:    -3.7295      Z:    -6.8068     Total:     7.9271

*** tstop() called on ds3 at Tue Apr 28 03:26:21 2020
Module time:
	user time   =      30.87 seconds =       0.51 minutes
	system time =      13.97 seconds =       0.23 minutes
	total time  =         44 seconds =       0.73 minutes
Total time:
	user time   =      30.87 seconds =       0.51 minutes
	system time =      13.97 seconds =       0.23 minutes
	total time  =         44 seconds =       0.73 minutes
                                     G D M A

                                 by Anthony Stone

                           version 2.2.06, 22 June 2011

               Distributed Multipoles from Gaussian wavefunctions

Starting at 3:26:21 on 28 Apr 2020

Using SCF density matrix from file ./SSI/SSI-022GLN-055ASN-1-dimer.test.30474.fchk

                         Distributed Multipole Analysis

Standard DMA

Positions and radii in angstrom
Multipole moments in atomic units, ea_0^k for rank k

C          x =  3.176177  y = -0.857347  z =  1.286993 angstrom
           Maximum rank =  0   Radius =  0.650 angstrom
                   Q00  =  -0.260428

C          x =  1.910177  y = -0.142347  z =  0.917993 angstrom
           Maximum rank =  0   Radius =  0.650 angstrom
                   Q00  =   0.808884

O          x =  1.145177  y =  0.384653  z =  1.744993 angstrom
           Maximum rank =  0   Radius =  0.650 angstrom
                   Q00  =  -0.775636

N          x =  1.663177  y = -0.116347  z = -0.364007 angstrom
           Maximum rank =  0   Radius =  0.650 angstrom
                   Q00  =  -0.550705

H          x =  3.949177  y = -0.598347  z =  0.561993 angstrom
           Maximum rank =  0   Radius =  0.325 angstrom
                   Q00  =   0.085379

H          x =  2.997177  y = -1.926347  z =  1.193993 angstrom
           Maximum rank =  0   Radius =  0.325 angstrom
                   Q00  =   0.111862

H          x =  0.892177  y =  0.498653  z = -0.637007 angstrom
           Maximum rank =  0   Radius =  0.325 angstrom
                   Q00  =   0.249442

H          x =  2.085177  y = -0.817347  z = -0.959007 angstrom
           Maximum rank =  0   Radius =  0.325 angstrom
                   Q00  =   0.203068

H          x =  3.553237  y = -0.603317  z =  2.288633 angstrom
           Maximum rank =  0   Radius =  0.325 angstrom
                   Q00  =   0.134280

C          x = -3.296823  y = -0.029347  z = -1.403007 angstrom
           Maximum rank =  0   Radius =  0.650 angstrom
                   Q00  =  -0.254138

C          x = -1.926823  y =  0.240653  z = -0.821007 angstrom
           Maximum rank =  0   Radius =  0.650 angstrom
                   Q00  =   0.761953

O          x = -1.814823  y =  0.623653  z =  0.354993 angstrom
           Maximum rank =  0   Radius =  0.650 angstrom
                   Q00  =  -0.737012

N          x = -0.881823  y = -0.031347  z = -1.595007 angstrom
           Maximum rank =  0   Radius =  0.650 angstrom
                   Q00  =  -0.522205

H          x = -3.775823  y = -0.768347  z = -0.759007 angstrom
           Maximum rank =  0   Radius =  0.325 angstrom
                   Q00  =   0.139305

H          x = -3.183823  y = -0.472347  z = -2.390007 angstrom
           Maximum rank =  0   Radius =  0.325 angstrom
                   Q00  =   0.064605

H          x = -0.156823  y = -0.544347  z = -1.132007 angstrom
           Maximum rank =  0   Radius =  0.325 angstrom
                   Q00  =   0.213307

H          x = -1.024823  y = -0.200347  z = -2.594007 angstrom
           Maximum rank =  0   Radius =  0.325 angstrom
                   Q00  =   0.196296

H          x = -3.929593  y =  0.868863  z = -1.456097 angstrom
           Maximum rank =  0   Radius =  0.325 angstrom
                   Q00  =   0.131743

Total multipoles referred to origin at
           x =   0.000000,  y =    0.000000,  z =    0.000000 angstrom
                   Q00  =  -0.000000

Finished at 3:26:21 on 28 Apr 2020

  DMA results are available in the Python driver through the
	  variable('DMA DISTRIBUTED MULTIPOLES')
  and
	  variable('DMA TOTAL MULTIPOLES')
  commands.

    Psi4 stopped on: Tuesday, 28 April 2020 03:26AM
    Psi4 wall time for execution: 0:00:44.04

*** Psi4 exiting successfully. Buy a developer a beer!
