                               Psi4 1.3.2 release

  ==> Input File <==

--------------------------------------------------------------------------
import numpy as np
set {scf_type pk
basis cc-pvdz
d_convergence 10
gdma_switch   0
gdma_limit    0
gdma_origin   [ 0.0,  0.0,  0.0 ]
}
molecule test {
    units Angstrom
    0 1
    --
    0 1
    C               -1.690547034927551     2.621326301073527     1.641080104394702
    C               -1.896547034927551     3.427326301073527     2.946080104394702
    C               -2.967547034927551     1.845326301073527     1.265080104393702
    H               -1.436547034927551     3.307326301073527     0.830080104394702
    H               -0.869547034927551     1.919326301073527     1.781080104393702
    H               -2.812547034927551     4.008326301073526     2.808080104393702
    H               -3.791547034927551     2.545326301073527     1.115080104394702
    H               -2.801547034927551     1.282326301073527     0.346080104393702
    H               -3.228547034927551     1.151326301073527     2.060080104393701
    H               -2.022867034927551     2.762746301073526     3.813480104394702
    H               -1.056337034927551     4.119686301073527     3.103180104393702
    C               -0.129547034927551    -0.050673698926473    -0.643919895605298
    C                0.485452965072449     1.253326301073527    -1.099919895605298
    C                1.567452965072449    -0.525673698926473    -2.258919895606299
    C                0.529452965072449    -2.643673698926473     0.746080104393702
    C                1.226452965072449    -2.192673698926473    -0.533919895606298
    O                2.091452965072449    -2.910673698926473    -1.050919895605298
    N                0.875452965072449    -1.021673698926473    -1.072919895606298
    H               -0.283547034927551    -0.080673698926473     0.431080104393702
    H               -1.076547034927551    -0.239673698926473    -1.155919895606298
    H                1.367452965072449     1.524326301073527    -0.512919895605298
    H               -0.212547034927551     2.086326301073527    -1.117919895605298
    H                1.437452965072449    -1.231673698926473    -3.083919895605298
    H                0.650452965072449    -1.794673698926473     1.414080104394702
    H                0.768042965072449     0.935146301073527    -2.114269895606299
    H                1.072132965072449     0.437476301073527    -2.451259895605298
    H                2.639782965072449    -0.400903698926473    -2.047879895606298
    H               -0.535387034927551    -2.904793698926473     0.657030104394702
    H                1.072082965072449    -3.504643698926473     1.163540104394702

}
e, wfn = energy('scf', return_wfn=True)
gdma(wfn)
dmavals = variable('DMA DISTRIBUTED MULTIPOLES')
charges = np.array(dmavals)
print(charges)
np.save('SSI-064ILE-072PRO-1-dimer.npy', np.array(charges))--------------------------------------------------------------------------

*** tstart() called on ds3
*** at Mon Apr 27 20:01:35 2020

   => Loading Basis Set <=

    Name: CC-PVDZ
    Role: ORBITAL
    Keyword: BASIS
    atoms 1-3, 12-16  entry C          line   138 file /theoryfs2/ds/metcalf/miniconda2/envs/tf2gpu/share/psi4/basis/cc-pvdz.gbs
    atoms 4-11, 19-29 entry H          line    22 file /theoryfs2/ds/metcalf/miniconda2/envs/tf2gpu/share/psi4/basis/cc-pvdz.gbs
    atoms 17          entry O          line   198 file /theoryfs2/ds/metcalf/miniconda2/envs/tf2gpu/share/psi4/basis/cc-pvdz.gbs
    atoms 18          entry N          line   168 file /theoryfs2/ds/metcalf/miniconda2/envs/tf2gpu/share/psi4/basis/cc-pvdz.gbs

         ---------------------------------------------------------
                                   SCF
               by Justin Turney, Rob Parrish, Andy Simmonett
                          and Daniel G. A. Smith
                              RHF Reference
                        1 Threads,    500 MiB Core
         ---------------------------------------------------------

  ==> Geometry <==

    Molecular point group: c1
    Full point group: C1

    Geometry (in Angstrom), charge = 0, multiplicity = 1:

       Center              X                  Y                   Z               Mass
    ------------   -----------------  -----------------  -----------------  -----------------
         C           -1.690547034928     2.621326301074     1.641080104395    12.000000000000
         C           -1.896547034928     3.427326301074     2.946080104395    12.000000000000
         C           -2.967547034928     1.845326301074     1.265080104394    12.000000000000
         H           -1.436547034928     3.307326301074     0.830080104395     1.007825032230
         H           -0.869547034928     1.919326301074     1.781080104394     1.007825032230
         H           -2.812547034928     4.008326301074     2.808080104394     1.007825032230
         H           -3.791547034928     2.545326301074     1.115080104395     1.007825032230
         H           -2.801547034928     1.282326301074     0.346080104394     1.007825032230
         H           -3.228547034928     1.151326301074     2.060080104394     1.007825032230
         H           -2.022867034928     2.762746301074     3.813480104395     1.007825032230
         H           -1.056337034928     4.119686301074     3.103180104394     1.007825032230
         C           -0.129547034928    -0.050673698926    -0.643919895605    12.000000000000
         C            0.485452965072     1.253326301074    -1.099919895605    12.000000000000
         C            1.567452965072    -0.525673698926    -2.258919895606    12.000000000000
         C            0.529452965072    -2.643673698926     0.746080104394    12.000000000000
         C            1.226452965072    -2.192673698926    -0.533919895606    12.000000000000
         O            2.091452965072    -2.910673698926    -1.050919895605    15.994914619570
         N            0.875452965072    -1.021673698926    -1.072919895606    14.003074004430
         H           -0.283547034928    -0.080673698926     0.431080104394     1.007825032230
         H           -1.076547034928    -0.239673698926    -1.155919895606     1.007825032230
         H            1.367452965072     1.524326301074    -0.512919895605     1.007825032230
         H           -0.212547034928     2.086326301074    -1.117919895605     1.007825032230
         H            1.437452965072    -1.231673698926    -3.083919895605     1.007825032230
         H            0.650452965072    -1.794673698926     1.414080104395     1.007825032230
         H            0.768042965072     0.935146301074    -2.114269895606     1.007825032230
         H            1.072132965072     0.437476301074    -2.451259895605     1.007825032230
         H            2.639782965072    -0.400903698926    -2.047879895606     1.007825032230
         H           -0.535387034928    -2.904793698926     0.657030104395     1.007825032230
         H            1.072082965072    -3.504643698926     1.163540104395     1.007825032230

  Running in c1 symmetry.

  Rotational constants: A =      0.06789  B =      0.01382  C =      0.01241 [cm^-1]
  Rotational constants: A =   2035.38934  B =    414.26959  C =    372.14714 [MHz]
  Nuclear repulsion =  549.113109508587968

  Charge       = 0
  Multiplicity = 1
  Electrons    = 82
  Nalpha       = 41
  Nbeta        = 41

  ==> Algorithm <==

  SCF Algorithm Type is PK.
  DIIS enabled.
  MOM disabled.
  Fractional occupation disabled.
  Guess Type is SAD.
  Energy threshold   = 1.00e-06
  Density threshold  = 1.00e-10
  Integral threshold = 0.00e+00

  ==> Primary Basis <==

  Basis Set: CC-PVDZ
    Blend: CC-PVDZ
    Number of shells: 117
    Number of basis function: 235
    Number of Cartesian functions: 245
    Spherical Harmonics?: true
    Max angular momentum: 2

  ==> Pre-Iterations <==

   -------------------------------------------------------
    Irrep   Nso     Nmo     Nalpha   Nbeta   Ndocc  Nsocc
   -------------------------------------------------------
     A        235     235       0       0       0       0
   -------------------------------------------------------
    Total     235     235      41      41      41       0
   -------------------------------------------------------

  ==> Integral Setup <==

  Using integral reordering PK algorithm.
  Sizing the integral batches needed.
  Building batch lookup table.
   Calculation information:
      Number of atoms:                  29
      Number of AO shells:             117
      Number of primitives:            315
      Number of atomic orbitals:       245
      Number of basis functions:       235

      Integral cutoff                 1.00e-12
      Number of threads:                 1

	Batch   1 pq = [       0,    9405] index = [             0,44231715] size =     44231715
	Batch   2 pq = [    9405,   13301] index = [      44231715,88464951] size =     44233236
	Batch   3 pq = [   13301,   16290] index = [      88464951,132690195] size =     44225244
	Batch   4 pq = [   16290,   18810] index = [     132690195,176917455] size =     44227260
	Batch   5 pq = [   18810,   21030] index = [     176917455,221140965] size =     44223510
	Batch   6 pq = [   21030,   23037] index = [     221140965,265363203] size =     44222238
	Batch   7 pq = [   23037,   24883] index = [     265363203,309594286] size =     44231083
	Batch   8 pq = [   24883,   26601] index = [     309594286,353819901] size =     44225615
	Batch   9 pq = [   26601,   27730] index = [     353819901,384490315] size =     30670414
  Task number: 35
  Buffer size: 11059200
  Buffer per thread: 2
  We computed 20278564 shell quartets total.
  Whereas there are 23829156 unique shell quartets.

  ==> DiskJK: Disk-Based J/K Matrices <==

    J tasked:                  Yes
    K tasked:                  Yes
    wK tasked:                  No
    Memory [MiB]:              375
    Schwarz Cutoff:          1E-12

    OpenMP threads:              1

  Minimum eigenvalue in the overlap matrix is 1.6069169626E-03.
  Using Symmetric Orthogonalization.

  SCF Guess: Superposition of Atomic Densities via on-the-fly atomic UHF.

  ==> Iterations <==

                        Total Energy        Delta E     RMS |[F,P]|

   @RHF iter SAD:  -442.40330848442591   -4.42403e+02   0.00000e+00
   @RHF iter   1:  -442.83279760655728   -4.29489e-01   3.11534e-03 DIIS
   @RHF iter   2:  -443.08563661889372   -2.52839e-01   1.70927e-03 DIIS
   @RHF iter   3:  -443.15034892971283   -6.47123e-02   4.14135e-04 DIIS
   @RHF iter   4:  -443.15600679823774   -5.65787e-03   1.64805e-04 DIIS
   @RHF iter   5:  -443.15691511038727   -9.08312e-04   2.75783e-05 DIIS
   @RHF iter   6:  -443.15696653924067   -5.14289e-05   1.37409e-05 DIIS
   @RHF iter   7:  -443.15697686960095   -1.03304e-05   5.04550e-06 DIIS
   @RHF iter   8:  -443.15697899875818   -2.12916e-06   2.04938e-06 DIIS
   @RHF iter   9:  -443.15697933714432   -3.38386e-07   5.76493e-07 DIIS
   @RHF iter  10:  -443.15697935923293   -2.20886e-08   1.61670e-07 DIIS
   @RHF iter  11:  -443.15697936110683   -1.87390e-09   4.70352e-08 DIIS
   @RHF iter  12:  -443.15697936124570   -1.38868e-10   1.43256e-08 DIIS
   @RHF iter  13:  -443.15697936125446   -8.75389e-12   4.70168e-09 DIIS
   @RHF iter  14:  -443.15697936126196   -7.50333e-12   1.39681e-09 DIIS
   @RHF iter  15:  -443.15697936126094    1.02318e-12   4.64542e-10 DIIS
   @RHF iter  16:  -443.15697936126003    9.09495e-13   2.15927e-10 DIIS
   @RHF iter  17:  -443.15697936125849    1.53477e-12   9.74295e-11 DIIS
  Energy and wave function converged.

  ==> Post-Iterations <==

    Orbital Energies [Eh]
    ---------------------

    Doubly Occupied:

       1A    -20.496221     2A    -15.581578     3A    -11.340212
       4A    -11.280005     5A    -11.244990     6A    -11.237461
       7A    -11.231617     8A    -11.226411     9A    -11.225865
      10A    -11.221030    11A     -1.359394    12A     -1.257078
      13A     -1.071105    14A     -1.058716    15A     -1.004226
      16A     -0.969064    17A     -0.930398    18A     -0.858387
      19A     -0.807181    20A     -0.752225    21A     -0.731426
      22A     -0.672921    23A     -0.650212    24A     -0.634995
      25A     -0.618713    26A     -0.603216    27A     -0.593592
      28A     -0.572736    29A     -0.556026    30A     -0.548989
      31A     -0.541175    32A     -0.539811    33A     -0.533830
      34A     -0.522773    35A     -0.484645    36A     -0.482724
      37A     -0.479375    38A     -0.474180    39A     -0.399590
      40A     -0.392134    41A     -0.362197

    Virtual:

      42A      0.153270    43A      0.182774    44A      0.191195
      45A      0.194398    46A      0.204711    47A      0.218136
      48A      0.223992    49A      0.232238    50A      0.248062
      51A      0.252255    52A      0.254704    53A      0.268415
      54A      0.270110    55A      0.277153    56A      0.288140
      57A      0.298463    58A      0.302535    59A      0.321852
      60A      0.328265    61A      0.344725    62A      0.356536
      63A      0.370166    64A      0.405900    65A      0.411880
      66A      0.418620    67A      0.464753    68A      0.482519
      69A      0.518354    70A      0.533881    71A      0.568629
      72A      0.574094    73A      0.597431    74A      0.598439
      75A      0.615438    76A      0.621491    77A      0.623144
      78A      0.651527    79A      0.684457    80A      0.693962
      81A      0.707477    82A      0.740391    83A      0.765414
      84A      0.771776    85A      0.781930    86A      0.790267
      87A      0.809566    88A      0.821087    89A      0.839669
      90A      0.850760    91A      0.855050    92A      0.859400
      93A      0.869329    94A      0.872341    95A      0.882153
      96A      0.888972    97A      0.892576    98A      0.898068
      99A      0.899771   100A      0.906086   101A      0.914526
     102A      0.918462   103A      0.929718   104A      0.933479
     105A      0.936369   106A      0.948838   107A      0.958051
     108A      0.990791   109A      0.995142   110A      1.012451
     111A      1.052378   112A      1.068611   113A      1.089729
     114A      1.103785   115A      1.116679   116A      1.126467
     117A      1.139904   118A      1.183199   119A      1.205365
     120A      1.208462   121A      1.240505   122A      1.264747
     123A      1.329058   124A      1.342543   125A      1.367332
     126A      1.393843   127A      1.401396   128A      1.428035
     129A      1.453337   130A      1.461800   131A      1.470264
     132A      1.482763   133A      1.527404   134A      1.548935
     135A      1.561426   136A      1.600509   137A      1.611017
     138A      1.627089   139A      1.643765   140A      1.661770
     141A      1.670838   142A      1.676934   143A      1.689567
     144A      1.700335   145A      1.710626   146A      1.727988
     147A      1.756250   148A      1.819150   149A      1.838086
     150A      1.854857   151A      1.862541   152A      1.863966
     153A      1.875308   154A      1.877714   155A      1.895014
     156A      1.903374   157A      1.913636   158A      1.921283
     159A      1.928055   160A      1.934117   161A      1.941192
     162A      1.943096   163A      1.949821   164A      1.961687
     165A      1.968056   166A      1.969280   167A      1.982073
     168A      1.988972   169A      2.007298   170A      2.018106
     171A      2.038139   172A      2.045190   173A      2.058344
     174A      2.070558   175A      2.095876   176A      2.128069
     177A      2.128932   178A      2.139550   179A      2.142558
     180A      2.167319   181A      2.180523   182A      2.190837
     183A      2.221544   184A      2.248261   185A      2.256257
     186A      2.277949   187A      2.288870   188A      2.307784
     189A      2.311732   190A      2.336043   191A      2.349129
     192A      2.363382   193A      2.429844   194A      2.442199
     195A      2.475574   196A      2.487189   197A      2.493671
     198A      2.525226   199A      2.540827   200A      2.553564
     201A      2.563957   202A      2.574596   203A      2.602313
     204A      2.627968   205A      2.648820   206A      2.720603
     207A      2.729377   208A      2.744891   209A      2.755159
     210A      2.762689   211A      2.780355   212A      2.794244
     213A      2.798067   214A      2.812191   215A      2.821272
     216A      2.824691   217A      2.831691   218A      2.884903
     219A      2.893255   220A      2.942209   221A      2.950680
     222A      2.957076   223A      2.973173   224A      3.020930
     225A      3.051504   226A      3.086320   227A      3.117892
     228A      3.178560   229A      3.223856   230A      3.331537
     231A      3.366901   232A      3.510436   233A      3.828987
     234A      3.897583   235A      4.950195

    Final Occupation by Irrep:
              A
    DOCC [    41 ]

  @RHF Final Energy:  -443.15697936125849

   => Energetics <=

    Nuclear Repulsion Energy =            549.1131095085879679
    One-Electron Energy =               -1689.4433257781795419
    Two-Electron Energy =                 697.1732369083330241
    Total Energy =                       -443.1569793612585499

Computation Completed

Properties will be evaluated at   0.000000,   0.000000,   0.000000 [a0]

Properties computed using the SCF density matrix

  Nuclear Dipole Moment: [e a0]
     X:   -10.4173      Y:    14.9160      Z:     6.5967

  Electronic Dipole Moment: [e a0]
     X:     9.3370      Y:   -13.5360      Z:    -6.2465

  Dipole Moment: [e a0]
     X:    -1.0803      Y:     1.3799      Z:     0.3502     Total:     1.7871

  Dipole Moment: [D]
     X:    -2.7458      Y:     3.5075      Z:     0.8900     Total:     4.5425

*** tstop() called on ds3 at Mon Apr 27 20:04:30 2020
Module time:
	user time   =     125.20 seconds =       2.09 minutes
	system time =      57.02 seconds =       0.95 minutes
	total time  =        175 seconds =       2.92 minutes
Total time:
	user time   =     125.20 seconds =       2.09 minutes
	system time =      57.02 seconds =       0.95 minutes
	total time  =        175 seconds =       2.92 minutes
                                     G D M A

                                 by Anthony Stone

                           version 2.2.06, 22 June 2011

               Distributed Multipoles from Gaussian wavefunctions

Starting at 20:4:30 on 27 Apr 2020

Using SCF density matrix from file ./SSI/SSI-064ILE-072PRO-1-dimer.test.12396.fchk

                         Distributed Multipole Analysis

Standard DMA

Positions and radii in angstrom
Multipole moments in atomic units, ea_0^k for rank k

C          x = -1.690547  y =  2.621326  z =  1.641080 angstrom
           Maximum rank =  0   Radius =  0.650 angstrom
                   Q00  =  -0.098326

C          x = -1.896547  y =  3.427326  z =  2.946080 angstrom
           Maximum rank =  0   Radius =  0.650 angstrom
                   Q00  =  -0.235532

C          x = -2.967547  y =  1.845326  z =  1.265080 angstrom
           Maximum rank =  0   Radius =  0.650 angstrom
                   Q00  =  -0.248540

H          x = -1.436547  y =  3.307326  z =  0.830080 angstrom
           Maximum rank =  0   Radius =  0.325 angstrom
                   Q00  =   0.052640

H          x = -0.869547  y =  1.919326  z =  1.781080 angstrom
           Maximum rank =  0   Radius =  0.325 angstrom
                   Q00  =   0.044975

H          x = -2.812547  y =  4.008326  z =  2.808080 angstrom
           Maximum rank =  0   Radius =  0.325 angstrom
                   Q00  =   0.074997

H          x = -3.791547  y =  2.545326  z =  1.115080 angstrom
           Maximum rank =  0   Radius =  0.325 angstrom
                   Q00  =   0.082099

H          x = -2.801547  y =  1.282326  z =  0.346080 angstrom
           Maximum rank =  0   Radius =  0.325 angstrom
                   Q00  =   0.080772

H          x = -3.228547  y =  1.151326  z =  2.060080 angstrom
           Maximum rank =  0   Radius =  0.325 angstrom
                   Q00  =   0.079642

H          x = -2.022867  y =  2.762746  z =  3.813480 angstrom
           Maximum rank =  0   Radius =  0.325 angstrom
                   Q00  =   0.081842

H          x = -1.056337  y =  4.119686  z =  3.103180 angstrom
           Maximum rank =  0   Radius =  0.325 angstrom
                   Q00  =   0.087097

C          x = -0.129547  y = -0.050674  z = -0.643920 angstrom
           Maximum rank =  0   Radius =  0.650 angstrom
                   Q00  =   0.025474

C          x =  0.485453  y =  1.253326  z = -1.099920 angstrom
           Maximum rank =  0   Radius =  0.650 angstrom
                   Q00  =  -0.262671

C          x =  1.567453  y = -0.525674  z = -2.258920 angstrom
           Maximum rank =  0   Radius =  0.650 angstrom
                   Q00  =  -0.103622

C          x =  0.529453  y = -2.643674  z =  0.746080 angstrom
           Maximum rank =  0   Radius =  0.650 angstrom
                   Q00  =  -0.259599

C          x =  1.226453  y = -2.192674  z = -0.533920 angstrom
           Maximum rank =  0   Radius =  0.650 angstrom
                   Q00  =   0.758993

O          x =  2.091453  y = -2.910674  z = -1.050920 angstrom
           Maximum rank =  0   Radius =  0.650 angstrom
                   Q00  =  -0.792637

N          x =  0.875453  y = -1.021674  z = -1.072920 angstrom
           Maximum rank =  0   Radius =  0.650 angstrom
                   Q00  =  -0.452993

H          x = -0.283547  y = -0.080674  z =  0.431080 angstrom
           Maximum rank =  0   Radius =  0.325 angstrom
                   Q00  =   0.093416

H          x = -1.076547  y = -0.239674  z = -1.155920 angstrom
           Maximum rank =  0   Radius =  0.325 angstrom
                   Q00  =   0.058776

H          x =  1.367453  y =  1.524326  z = -0.512920 angstrom
           Maximum rank =  0   Radius =  0.325 angstrom
                   Q00  =   0.093859

H          x = -0.212547  y =  2.086326  z = -1.117920 angstrom
           Maximum rank =  0   Radius =  0.325 angstrom
                   Q00  =   0.092905

H          x =  1.437453  y = -1.231674  z = -3.083920 angstrom
           Maximum rank =  0   Radius =  0.325 angstrom
                   Q00  =   0.103080

H          x =  0.650453  y = -1.794674  z =  1.414080 angstrom
           Maximum rank =  0   Radius =  0.325 angstrom
                   Q00  =   0.093867

H          x =  0.768043  y =  0.935146  z = -2.114270 angstrom
           Maximum rank =  0   Radius =  0.325 angstrom
                   Q00  =   0.088149

H          x =  1.072133  y =  0.437476  z = -2.451260 angstrom
           Maximum rank =  0   Radius =  0.325 angstrom
                   Q00  =   0.107113

H          x =  2.639783  y = -0.400904  z = -2.047880 angstrom
           Maximum rank =  0   Radius =  0.325 angstrom
                   Q00  =   0.107043

H          x = -0.535387  y = -2.904794  z =  0.657030 angstrom
           Maximum rank =  0   Radius =  0.325 angstrom
                   Q00  =   0.117428

H          x =  1.072083  y = -3.504644  z =  1.163540 angstrom
           Maximum rank =  0   Radius =  0.325 angstrom
                   Q00  =   0.129752

Total multipoles referred to origin at
           x =   0.000000,  y =    0.000000,  z =    0.000000 angstrom
                   Q00  =  -0.000000

Finished at 20:4:30 on 27 Apr 2020

  DMA results are available in the Python driver through the
	  variable('DMA DISTRIBUTED MULTIPOLES')
  and
	  variable('DMA TOTAL MULTIPOLES')
  commands.

    Psi4 stopped on: Monday, 27 April 2020 08:04PM
    Psi4 wall time for execution: 0:02:55.49

*** Psi4 exiting successfully. Buy a developer a beer!
