                               Psi4 1.3.2 release

  ==> Input File <==

--------------------------------------------------------------------------
import numpy as np
set {scf_type pk
basis cc-pvdz
d_convergence 10
gdma_switch   0
gdma_limit    0
gdma_origin   [ 0.0,  0.0,  0.0 ]
}
molecule test {
    units Angstrom
    -1 1
    --
    -1 1
    C                2.161140247234146     0.055947768754385     0.532059508860947
    C                2.917140247234145     1.018947768754385     1.434059508860947
    H                1.644140247234145     0.599947768754385    -0.254940491139053
    H                2.862140247234146    -0.637052231245615     0.082059508860947
    H                1.434140247234145    -0.512052231245615     1.113059508860947
    H                3.632140247234146     1.571947768754385     0.827059508860947
    H                2.216150247234145     1.721387768754385     1.908600508860947
    H                3.481930247234146     0.470777768754385     2.202514508860947
    C               -1.920859752765855     0.328947768754385     0.644059508860947
    C               -1.253859752765855    -0.312052231245615    -0.561940491139053
    O               -1.235859752765855    -1.558052231245615    -0.646940491139053
    O               -0.759859752765855     0.439947768754385    -1.434940491139053
    H               -2.596859752765855     1.105947768754385     0.284059508860947
    H               -1.165859752765855     0.820947768754385     1.256059508860947
    H               -2.499779752765855    -0.396492231245615     1.234470508860947

}
e, wfn = energy('scf', return_wfn=True)
gdma(wfn)
dmavals = variable('DMA DISTRIBUTED MULTIPOLES')
charges = np.array(dmavals)
print(charges)
np.save('SSI-120LEU-124ASP-1-dimer.npy', np.array(charges))--------------------------------------------------------------------------

*** tstart() called on ds3
*** at Mon Apr 27 22:36:05 2020

   => Loading Basis Set <=

    Name: CC-PVDZ
    Role: ORBITAL
    Keyword: BASIS
    atoms 1-2, 9-10  entry C          line   138 file /theoryfs2/ds/metcalf/miniconda2/envs/tf2gpu/share/psi4/basis/cc-pvdz.gbs
    atoms 3-8, 13-15 entry H          line    22 file /theoryfs2/ds/metcalf/miniconda2/envs/tf2gpu/share/psi4/basis/cc-pvdz.gbs
    atoms 11-12      entry O          line   198 file /theoryfs2/ds/metcalf/miniconda2/envs/tf2gpu/share/psi4/basis/cc-pvdz.gbs

         ---------------------------------------------------------
                                   SCF
               by Justin Turney, Rob Parrish, Andy Simmonett
                          and Daniel G. A. Smith
                              RHF Reference
                        1 Threads,    500 MiB Core
         ---------------------------------------------------------

  ==> Geometry <==

    Molecular point group: c1
    Full point group: C1

    Geometry (in Angstrom), charge = -1, multiplicity = 1:

       Center              X                  Y                   Z               Mass
    ------------   -----------------  -----------------  -----------------  -----------------
         C            2.161140247234     0.055947768754     0.532059508861    12.000000000000
         C            2.917140247234     1.018947768754     1.434059508861    12.000000000000
         H            1.644140247234     0.599947768754    -0.254940491139     1.007825032230
         H            2.862140247234    -0.637052231246     0.082059508861     1.007825032230
         H            1.434140247234    -0.512052231246     1.113059508861     1.007825032230
         H            3.632140247234     1.571947768754     0.827059508861     1.007825032230
         H            2.216150247234     1.721387768754     1.908600508861     1.007825032230
         H            3.481930247234     0.470777768754     2.202514508861     1.007825032230
         C           -1.920859752766     0.328947768754     0.644059508861    12.000000000000
         C           -1.253859752766    -0.312052231246    -0.561940491139    12.000000000000
         O           -1.235859752766    -1.558052231246    -0.646940491139    15.994914619570
         O           -0.759859752766     0.439947768754    -1.434940491139    15.994914619570
         H           -2.596859752766     1.105947768754     0.284059508861     1.007825032230
         H           -1.165859752766     0.820947768754     1.256059508861     1.007825032230
         H           -2.499779752766    -0.396492231246     1.234470508861     1.007825032230

  Running in c1 symmetry.

  Rotational constants: A =      0.16844  B =      0.04109  C =      0.03944 [cm^-1]
  Rotational constants: A =   5049.58240  B =   1231.87308  C =   1182.30156 [MHz]
  Nuclear repulsion =  223.696779795156488

  Charge       = -1
  Multiplicity = 1
  Electrons    = 50
  Nalpha       = 25
  Nbeta        = 25

  ==> Algorithm <==

  SCF Algorithm Type is PK.
  DIIS enabled.
  MOM disabled.
  Fractional occupation disabled.
  Guess Type is SAD.
  Energy threshold   = 1.00e-06
  Density threshold  = 1.00e-10
  Integral threshold = 0.00e+00

  ==> Primary Basis <==

  Basis Set: CC-PVDZ
    Blend: CC-PVDZ
    Number of shells: 63
    Number of basis function: 129
    Number of Cartesian functions: 135
    Spherical Harmonics?: true
    Max angular momentum: 2

  ==> Pre-Iterations <==

   -------------------------------------------------------
    Irrep   Nso     Nmo     Nalpha   Nbeta   Ndocc  Nsocc
   -------------------------------------------------------
     A        129     129       0       0       0       0
   -------------------------------------------------------
    Total     129     129      25      25      25       0
   -------------------------------------------------------

  ==> Integral Setup <==

  Using integral reordering PK algorithm.
  Sizing the integral batches needed.
  Building batch lookup table.
   Calculation information:
      Number of atoms:                  15
      Number of AO shells:              63
      Number of primitives:            177
      Number of atomic orbitals:       135
      Number of basis functions:       129

      Integral cutoff                 1.00e-12
      Number of threads:                 1

	Batch   1 pq = [       0,    8385] index = [             0,35158305] size =     35158305
  Task number: 4
  Buffer size: 11059200
  Buffer per thread: 2
  We computed 1744635 shell quartets total.
  Whereas there are 2033136 unique shell quartets.

  ==> DiskJK: Disk-Based J/K Matrices <==

    J tasked:                  Yes
    K tasked:                  Yes
    wK tasked:                  No
    Memory [MiB]:              375
    Schwarz Cutoff:          1E-12

    OpenMP threads:              1

  Minimum eigenvalue in the overlap matrix is 5.3666125874E-03.
  Using Symmetric Orthogonalization.

  SCF Guess: Superposition of Atomic Densities via on-the-fly atomic UHF.

  ==> Iterations <==

                        Total Energy        Delta E     RMS |[F,P]|

   @RHF iter SAD:  -304.86640262698188   -3.04866e+02   0.00000e+00
   @RHF iter   1:  -306.21093926644647   -1.34454e+00   5.65289e-03 DIIS
   @RHF iter   2:  -306.41193127052003   -2.00992e-01   3.16652e-03 DIIS
   @RHF iter   3:  -306.47298408116404   -6.10528e-02   4.74314e-04 DIIS
   @RHF iter   4:  -306.47556177402083   -2.57769e-03   1.78236e-04 DIIS
   @RHF iter   5:  -306.47594628565378   -3.84512e-04   2.57806e-05 DIIS
   @RHF iter   6:  -306.47595704661603   -1.07610e-05   6.05285e-06 DIIS
   @RHF iter   7:  -306.47595759939213   -5.52776e-07   2.09093e-06 DIIS
   @RHF iter   8:  -306.47595766762771   -6.82356e-08   9.83938e-07 DIIS
   @RHF iter   9:  -306.47595768013480   -1.25071e-08   3.47945e-07 DIIS
   @RHF iter  10:  -306.47595768358508   -3.45028e-09   1.49289e-07 DIIS
   @RHF iter  11:  -306.47595768415465   -5.69571e-10   2.87483e-08 DIIS
   @RHF iter  12:  -306.47595768417767   -2.30216e-11   7.52360e-09 DIIS
   @RHF iter  13:  -306.47595768418012   -2.44427e-12   2.53385e-09 DIIS
   @RHF iter  14:  -306.47595768417949    6.25278e-13   7.47234e-10 DIIS
   @RHF iter  15:  -306.47595768417932    1.70530e-13   3.27315e-10 DIIS
   @RHF iter  16:  -306.47595768418063   -1.30740e-12   8.22901e-11 DIIS
  Energy and wave function converged.

  ==> Post-Iterations <==

    Orbital Energies [Eh]
    ---------------------

    Doubly Occupied:

       1A    -20.254923     2A    -20.252834     3A    -11.111187
       4A    -11.108844     5A    -11.081067     6A    -11.047676
       7A     -1.143834     8A     -1.030183     9A     -0.900183
      10A     -0.794373    11A     -0.714085    12A     -0.496367
      13A     -0.481930    14A     -0.478167    15A     -0.410817
      16A     -0.404131    17A     -0.398475    18A     -0.378704
      19A     -0.364619    20A     -0.360910    21A     -0.338270
      22A     -0.297711    23A     -0.178678    24A     -0.166964
      25A     -0.155311

    Virtual:

      26A      0.291261    27A      0.340577    28A      0.357382
      29A      0.363439    30A      0.381332    31A      0.408816
      32A      0.413486    33A      0.429540    34A      0.444778
      35A      0.504086    36A      0.519642    37A      0.576374
      38A      0.668827    39A      0.710190    40A      0.724036
      41A      0.732647    42A      0.760351    43A      0.795502
      44A      0.809096    45A      0.853757    46A      0.872634
      47A      0.958400    48A      0.978924    49A      0.998557
      50A      1.000931    51A      1.012644    52A      1.022405
      53A      1.032677    54A      1.037699    55A      1.056117
      56A      1.070666    57A      1.080468    58A      1.099147
      59A      1.118845    60A      1.146955    61A      1.222606
      62A      1.249306    63A      1.280073    64A      1.331734
      65A      1.342241    66A      1.378598    67A      1.407134
      68A      1.553330    69A      1.569203    70A      1.587040
      71A      1.600652    72A      1.606888    73A      1.611833
      74A      1.646423    75A      1.687212    76A      1.731126
      77A      1.747044    78A      1.787478    79A      1.839291
      80A      1.842311    81A      1.871325    82A      1.982314
      83A      1.989564    84A      2.031856    85A      2.044266
      86A      2.069939    87A      2.072635    88A      2.079618
      89A      2.083599    90A      2.096081    91A      2.101883
      92A      2.122647    93A      2.150321    94A      2.215208
      95A      2.222600    96A      2.237182    97A      2.276290
      98A      2.354949    99A      2.405184   100A      2.427978
     101A      2.450680   102A      2.486049   103A      2.574880
     104A      2.588626   105A      2.618178   106A      2.660231
     107A      2.685938   108A      2.697926   109A      2.747753
     110A      2.784236   111A      2.869267   112A      2.922694
     113A      2.940554   114A      2.968564   115A      2.980508
     116A      2.981867   117A      2.993477   118A      3.084708
     119A      3.099645   120A      3.247073   121A      3.282858
     122A      3.300011   123A      3.368326   124A      3.642051
     125A      3.793895   126A      3.834335   127A      4.068082
     128A      4.085840   129A      4.197684

    Final Occupation by Irrep:
              A
    DOCC [    25 ]

  @RHF Final Energy:  -306.47595768418063

   => Energetics <=

    Nuclear Repulsion Energy =            223.6967797951564876
    One-Electron Energy =                -871.6449928545995363
    Two-Electron Energy =                 341.4722553752624776
    Total Energy =                       -306.4759576841806279

Computation Completed

Properties will be evaluated at   0.000000,   0.000000,   0.000000 [a0]

Properties computed using the SCF density matrix

  Nuclear Dipole Moment: [e a0]
     X:     8.4353      Y:     4.4433      Z:     8.1019

  Electronic Dipole Moment: [e a0]
     X:    -6.9919      Y:    -3.3983      Z:    -6.1898

  Dipole Moment: [e a0]
     X:     1.4434      Y:     1.0450      Z:     1.9121     Total:     2.6137

  Dipole Moment: [D]
     X:     3.6687      Y:     2.6560      Z:     4.8600     Total:     6.6433

*** tstop() called on ds3 at Mon Apr 27 22:36:26 2020
Module time:
	user time   =      13.50 seconds =       0.23 minutes
	system time =       6.15 seconds =       0.10 minutes
	total time  =         21 seconds =       0.35 minutes
Total time:
	user time   =      13.50 seconds =       0.23 minutes
	system time =       6.15 seconds =       0.10 minutes
	total time  =         21 seconds =       0.35 minutes
                                     G D M A

                                 by Anthony Stone

                           version 2.2.06, 22 June 2011

               Distributed Multipoles from Gaussian wavefunctions

Starting at 22:36:26 on 27 Apr 2020

Using SCF density matrix from file ./SSI/SSI-120LEU-124ASP-1-dimer.test.31416.fchk

                         Distributed Multipole Analysis

Standard DMA

Positions and radii in angstrom
Multipole moments in atomic units, ea_0^k for rank k

C          x =  2.161140  y =  0.055948  z =  0.532060 angstrom
           Maximum rank =  0   Radius =  0.650 angstrom
                   Q00  =  -0.157392

C          x =  2.917140  y =  1.018948  z =  1.434060 angstrom
           Maximum rank =  0   Radius =  0.650 angstrom
                   Q00  =  -0.253215

H          x =  1.644140  y =  0.599948  z = -0.254940 angstrom
           Maximum rank =  0   Radius =  0.325 angstrom
                   Q00  =   0.099589

H          x =  2.862140  y = -0.637052  z =  0.082060 angstrom
           Maximum rank =  0   Radius =  0.325 angstrom
                   Q00  =   0.051163

H          x =  1.434140  y = -0.512052  z =  1.113060 angstrom
           Maximum rank =  0   Radius =  0.325 angstrom
                   Q00  =   0.074100

H          x =  3.632140  y =  1.571948  z =  0.827060 angstrom
           Maximum rank =  0   Radius =  0.325 angstrom
                   Q00  =   0.057943

H          x =  2.216150  y =  1.721388  z =  1.908601 angstrom
           Maximum rank =  0   Radius =  0.325 angstrom
                   Q00  =   0.071624

H          x =  3.481930  y =  0.470778  z =  2.202515 angstrom
           Maximum rank =  0   Radius =  0.325 angstrom
                   Q00  =   0.047680

C          x = -1.920860  y =  0.328948  z =  0.644060 angstrom
           Maximum rank =  0   Radius =  0.650 angstrom
                   Q00  =  -0.280798

C          x = -1.253860  y = -0.312052  z = -0.561940 angstrom
           Maximum rank =  0   Radius =  0.650 angstrom
                   Q00  =   0.980897

O          x = -1.235860  y = -1.558052  z = -0.646940 angstrom
           Maximum rank =  0   Radius =  0.650 angstrom
                   Q00  =  -0.928888

O          x = -0.759860  y =  0.439948  z = -1.434940 angstrom
           Maximum rank =  0   Radius =  0.650 angstrom
                   Q00  =  -0.942034

H          x = -2.596860  y =  1.105948  z =  0.284060 angstrom
           Maximum rank =  0   Radius =  0.325 angstrom
                   Q00  =   0.059948

H          x = -1.165860  y =  0.820948  z =  1.256060 angstrom
           Maximum rank =  0   Radius =  0.325 angstrom
                   Q00  =   0.070642

H          x = -2.499780  y = -0.396492  z =  1.234471 angstrom
           Maximum rank =  0   Radius =  0.325 angstrom
                   Q00  =   0.048740

Total multipoles referred to origin at
           x =   0.000000,  y =    0.000000,  z =    0.000000 angstrom
                   Q00  =  -1.000000

Finished at 22:36:26 on 27 Apr 2020

  DMA results are available in the Python driver through the
	  variable('DMA DISTRIBUTED MULTIPOLES')
  and
	  variable('DMA TOTAL MULTIPOLES')
  commands.

    Psi4 stopped on: Monday, 27 April 2020 10:36PM
    Psi4 wall time for execution: 0:00:20.95

*** Psi4 exiting successfully. Buy a developer a beer!
