                               Psi4 1.3.2 release

  ==> Input File <==

--------------------------------------------------------------------------
import numpy as np
set {scf_type pk
basis cc-pvdz
d_convergence 10
gdma_switch   0
gdma_limit    0
gdma_origin   [ 0.0,  0.0,  0.0 ]
}
molecule test {
    units Angstrom
    0 1
    --
    0 1
    C                0.628123022087639    -1.158317980201263     2.954249912229129
    N               -0.535876977912361    -1.024317980201263     2.053249912229129
    H               -0.249876977912361    -1.140317980201264     1.077249912229129
    H               -0.938876977912361    -0.098317980201263     2.103249912229129
    H               -1.257876977912361    -1.700317980201263     2.266249912229129
    H                1.485123022087639    -0.652317980201263     2.497249912229129
    H                0.899123022087639    -2.208317980201263     3.101249912229129
    H                0.419254022087639    -0.681924980201263     3.923489912229129
    C               -0.549876977912361     0.424682019798737    -2.688750087770871
    C                0.010123022087639     0.631682019798737    -1.294750087770871
    O                0.211123022087639    -0.398317980201263    -0.600750087770871
    O                0.303123022087639     1.728682019798736    -0.788750087770871
    H               -1.478876977912361    -0.138317980201263    -2.565750087770871
    H                0.134123022087639    -0.257317980201263    -3.199750087770871
    H               -0.780105977912361     1.209489019798736    -3.424330087770871

}
e, wfn = energy('scf', return_wfn=True)
gdma(wfn)
dmavals = variable('DMA DISTRIBUTED MULTIPOLES')
charges = np.array(dmavals)
print(charges)
np.save('SSI-002LYS-035GLU-1-dimer.npy', np.array(charges))--------------------------------------------------------------------------

*** tstart() called on ds3
*** at Mon Apr 27 06:39:49 2020

   => Loading Basis Set <=

    Name: CC-PVDZ
    Role: ORBITAL
    Keyword: BASIS
    atoms 1, 9-10    entry C          line   138 file /theoryfs2/ds/metcalf/miniconda2/envs/tf2gpu/share/psi4/basis/cc-pvdz.gbs
    atoms 2          entry N          line   168 file /theoryfs2/ds/metcalf/miniconda2/envs/tf2gpu/share/psi4/basis/cc-pvdz.gbs
    atoms 3-8, 13-15 entry H          line    22 file /theoryfs2/ds/metcalf/miniconda2/envs/tf2gpu/share/psi4/basis/cc-pvdz.gbs
    atoms 11-12      entry O          line   198 file /theoryfs2/ds/metcalf/miniconda2/envs/tf2gpu/share/psi4/basis/cc-pvdz.gbs

         ---------------------------------------------------------
                                   SCF
               by Justin Turney, Rob Parrish, Andy Simmonett
                          and Daniel G. A. Smith
                              RHF Reference
                        1 Threads,    500 MiB Core
         ---------------------------------------------------------

  ==> Geometry <==

    Molecular point group: c1
    Full point group: C1

    Geometry (in Angstrom), charge = 0, multiplicity = 1:

       Center              X                  Y                   Z               Mass
    ------------   -----------------  -----------------  -----------------  -----------------
         C            0.628123022088    -1.158317980201     2.954249912229    12.000000000000
         N           -0.535876977912    -1.024317980201     2.053249912229    14.003074004430
         H           -0.249876977912    -1.140317980201     1.077249912229     1.007825032230
         H           -0.938876977912    -0.098317980201     2.103249912229     1.007825032230
         H           -1.257876977912    -1.700317980201     2.266249912229     1.007825032230
         H            1.485123022088    -0.652317980201     2.497249912229     1.007825032230
         H            0.899123022088    -2.208317980201     3.101249912229     1.007825032230
         H            0.419254022088    -0.681924980201     3.923489912229     1.007825032230
         C           -0.549876977912     0.424682019799    -2.688750087771    12.000000000000
         C            0.010123022088     0.631682019799    -1.294750087771    12.000000000000
         O            0.211123022088    -0.398317980201    -0.600750087771    15.994914619570
         O            0.303123022088     1.728682019799    -0.788750087771    15.994914619570
         H           -1.478876977912    -0.138317980201    -2.565750087771     1.007825032230
         H            0.134123022088    -0.257317980201    -3.199750087771     1.007825032230
         H           -0.780105977912     1.209489019799    -3.424330087771     1.007825032230

  Running in c1 symmetry.

  Rotational constants: A =      0.25555  B =      0.03916  C =      0.03632 [cm^-1]
  Rotational constants: A =   7661.15432  B =   1173.96929  C =   1088.94162 [MHz]
  Nuclear repulsion =  235.962389977852212

  Charge       = 0
  Multiplicity = 1
  Electrons    = 50
  Nalpha       = 25
  Nbeta        = 25

  ==> Algorithm <==

  SCF Algorithm Type is PK.
  DIIS enabled.
  MOM disabled.
  Fractional occupation disabled.
  Guess Type is SAD.
  Energy threshold   = 1.00e-06
  Density threshold  = 1.00e-10
  Integral threshold = 0.00e+00

  ==> Primary Basis <==

  Basis Set: CC-PVDZ
    Blend: CC-PVDZ
    Number of shells: 63
    Number of basis function: 129
    Number of Cartesian functions: 135
    Spherical Harmonics?: true
    Max angular momentum: 2

  ==> Pre-Iterations <==

   -------------------------------------------------------
    Irrep   Nso     Nmo     Nalpha   Nbeta   Ndocc  Nsocc
   -------------------------------------------------------
     A        129     129       0       0       0       0
   -------------------------------------------------------
    Total     129     129      25      25      25       0
   -------------------------------------------------------

  ==> Integral Setup <==

  Using integral reordering PK algorithm.
  Sizing the integral batches needed.
  Building batch lookup table.
   Calculation information:
      Number of atoms:                  15
      Number of AO shells:              63
      Number of primitives:            177
      Number of atomic orbitals:       135
      Number of basis functions:       129

      Integral cutoff                 1.00e-12
      Number of threads:                 1

	Batch   1 pq = [       0,    8385] index = [             0,35158305] size =     35158305
  Task number: 4
  Buffer size: 11059200
  Buffer per thread: 2
  We computed 1633996 shell quartets total.
  Whereas there are 2033136 unique shell quartets.

  ==> DiskJK: Disk-Based J/K Matrices <==

    J tasked:                  Yes
    K tasked:                  Yes
    wK tasked:                  No
    Memory [MiB]:              375
    Schwarz Cutoff:          1E-12

    OpenMP threads:              1

  Minimum eigenvalue in the overlap matrix is 5.2937753130E-03.
  Using Symmetric Orthogonalization.

  SCF Guess: Superposition of Atomic Densities via on-the-fly atomic UHF.

  ==> Iterations <==

                        Total Energy        Delta E     RMS |[F,P]|

   @RHF iter SAD:  -321.73728815893787   -3.21737e+02   0.00000e+00
   @RHF iter   1:  -322.76177385979901   -1.02449e+00   5.30446e-03 DIIS
   @RHF iter   2:  -322.93470389700764   -1.72930e-01   2.98298e-03 DIIS
   @RHF iter   3:  -322.98685430940191   -5.21504e-02   4.83622e-04 DIIS
   @RHF iter   4:  -322.98942338753227   -2.56908e-03   1.68710e-04 DIIS
   @RHF iter   5:  -322.98973527495951   -3.11887e-04   3.50721e-05 DIIS
   @RHF iter   6:  -322.98975231377517   -1.70388e-05   1.95290e-05 DIIS
   @RHF iter   7:  -322.98975591716169   -3.60339e-06   4.64489e-06 DIIS
   @RHF iter   8:  -322.98975659116849   -6.74007e-07   2.06602e-06 DIIS
   @RHF iter   9:  -322.98975671135565   -1.20187e-07   4.85272e-07 DIIS
   @RHF iter  10:  -322.98975671751180   -6.15614e-09   1.46442e-07 DIIS
   @RHF iter  11:  -322.98975671781932   -3.07523e-10   3.66814e-08 DIIS
   @RHF iter  12:  -322.98975671784473   -2.54090e-11   8.98183e-09 DIIS
   @RHF iter  13:  -322.98975671784683   -2.10321e-12   3.18178e-09 DIIS
   @RHF iter  14:  -322.98975671784689   -5.68434e-14   1.54354e-09 DIIS
   @RHF iter  15:  -322.98975671784785   -9.66338e-13   6.59238e-10 DIIS
   @RHF iter  16:  -322.98975671784711    7.38964e-13   2.61803e-10 DIIS
   @RHF iter  17:  -322.98975671784819   -1.08002e-12   9.89162e-11 DIIS
  Energy and wave function converged.

  ==> Post-Iterations <==

    Orbital Energies [Eh]
    ---------------------

    Doubly Occupied:

       1A    -20.410007     2A    -20.396251     3A    -15.737656
       4A    -11.349702     5A    -11.260145     6A    -11.173195
       7A     -1.363453     8A     -1.299583     9A     -1.173395
      10A     -1.021160    11A     -0.923078    12A     -0.824624
      13A     -0.811524    14A     -0.715105    15A     -0.646359
      16A     -0.627758    17A     -0.618334    18A     -0.552311
      19A     -0.534006    20A     -0.531205    21A     -0.466729
      22A     -0.440053    23A     -0.341941    24A     -0.306573
      25A     -0.306227

    Virtual:

      26A      0.098165    27A      0.154399    28A      0.161237
      29A      0.210724    30A      0.219100    31A      0.244395
      32A      0.266619    33A      0.280464    34A      0.304649
      35A      0.321172    36A      0.355899    37A      0.462375
      38A      0.507733    39A      0.519486    40A      0.558700
      41A      0.566421    42A      0.576960    43A      0.665597
      44A      0.692416    45A      0.696068    46A      0.770252
      47A      0.787681    48A      0.791179    49A      0.798720
      50A      0.827080    51A      0.838690    52A      0.864138
      53A      0.907596    54A      0.909595    55A      0.917448
      56A      0.928720    57A      0.947896    58A      0.956745
      59A      0.974100    60A      1.001570    61A      1.057883
      62A      1.076467    63A      1.103284    64A      1.173084
      65A      1.222847    66A      1.230830    67A      1.343210
      68A      1.381033    69A      1.407385    70A      1.418763
      71A      1.444105    72A      1.464272    73A      1.479604
      74A      1.521188    75A      1.560608    76A      1.570969
      77A      1.594662    78A      1.725329    79A      1.747131
      80A      1.763303    81A      1.769400    82A      1.803190
      83A      1.828063    84A      1.836196    85A      1.859983
      86A      1.865589    87A      1.885827    88A      1.958362
      89A      2.006011    90A      2.021682    91A      2.072355
      92A      2.078500    93A      2.086172    94A      2.099031
      95A      2.110489    96A      2.138160    97A      2.154442
      98A      2.200623    99A      2.278547   100A      2.317765
     101A      2.335888   102A      2.384791   103A      2.417152
     104A      2.490154   105A      2.527497   106A      2.549405
     107A      2.565121   108A      2.629104   109A      2.659287
     110A      2.664833   111A      2.691094   112A      2.782856
     113A      2.848213   114A      2.861972   115A      2.886209
     116A      2.910943   117A      2.926020   118A      3.099004
     119A      3.144071   120A      3.156329   121A      3.218392
     122A      3.253230   123A      3.271512   124A      3.525437
     125A      3.619577   126A      3.651819   127A      3.941720
     128A      3.947434   129A      4.069609

    Final Occupation by Irrep:
              A
    DOCC [    25 ]

  @RHF Final Energy:  -322.98975671784819

   => Energetics <=

    Nuclear Repulsion Energy =            235.9623899778522116
    One-Electron Energy =                -910.2435496943271573
    Two-Electron Energy =                 351.2914029986267224
    Total Energy =                       -322.9897567178481950

Computation Completed

Properties will be evaluated at   0.000000,   0.000000,   0.000000 [a0]

Properties computed using the SCF density matrix

  Nuclear Dipole Moment: [e a0]
     X:    -1.6534      Y:    -5.3039      Z:     5.4049

  Electronic Dipole Moment: [e a0]
     X:     0.4331      Y:     2.6114      Z:    -1.3446

  Dipole Moment: [e a0]
     X:    -1.2203      Y:    -2.6924      Z:     4.0603     Total:     5.0224

  Dipole Moment: [D]
     X:    -3.1018      Y:    -6.8435      Z:    10.3202     Total:    12.7656

*** tstop() called on ds3 at Mon Apr 27 06:40:09 2020
Module time:
	user time   =      12.91 seconds =       0.22 minutes
	system time =       6.18 seconds =       0.10 minutes
	total time  =         20 seconds =       0.33 minutes
Total time:
	user time   =      12.91 seconds =       0.22 minutes
	system time =       6.18 seconds =       0.10 minutes
	total time  =         20 seconds =       0.33 minutes
                                     G D M A

                                 by Anthony Stone

                           version 2.2.06, 22 June 2011

               Distributed Multipoles from Gaussian wavefunctions

Starting at 6:40:9 on 27 Apr 2020

Using SCF density matrix from file ./SSI/SSI-002LYS-035GLU-1-dimer.test.18675.fchk

                         Distributed Multipole Analysis

Standard DMA

Positions and radii in angstrom
Multipole moments in atomic units, ea_0^k for rank k

C          x =  0.628123  y = -1.158318  z =  2.954250 angstrom
           Maximum rank =  0   Radius =  0.650 angstrom
                   Q00  =  -0.129863

N          x = -0.535877  y = -1.024318  z =  2.053250 angstrom
           Maximum rank =  0   Radius =  0.650 angstrom
                   Q00  =  -0.126505

H          x = -0.249877  y = -1.140318  z =  1.077250 angstrom
           Maximum rank =  0   Radius =  0.325 angstrom
                   Q00  =   0.305417

H          x = -0.938877  y = -0.098318  z =  2.103250 angstrom
           Maximum rank =  0   Radius =  0.325 angstrom
                   Q00  =   0.256163

H          x = -1.257877  y = -1.700318  z =  2.266250 angstrom
           Maximum rank =  0   Radius =  0.325 angstrom
                   Q00  =   0.216726

H          x =  1.485123  y = -0.652318  z =  2.497250 angstrom
           Maximum rank =  0   Radius =  0.325 angstrom
                   Q00  =   0.163839

H          x =  0.899123  y = -2.208318  z =  3.101250 angstrom
           Maximum rank =  0   Radius =  0.325 angstrom
                   Q00  =   0.136334

H          x =  0.419254  y = -0.681925  z =  3.923490 angstrom
           Maximum rank =  0   Radius =  0.325 angstrom
                   Q00  =   0.127555

C          x = -0.549877  y =  0.424682  z = -2.688750 angstrom
           Maximum rank =  0   Radius =  0.650 angstrom
                   Q00  =  -0.280852

C          x =  0.010123  y =  0.631682  z = -1.294750 angstrom
           Maximum rank =  0   Radius =  0.650 angstrom
                   Q00  =   0.947428

O          x =  0.211123  y = -0.398318  z = -0.600750 angstrom
           Maximum rank =  0   Radius =  0.650 angstrom
                   Q00  =  -0.993391

O          x =  0.303123  y =  1.728682  z = -0.788750 angstrom
           Maximum rank =  0   Radius =  0.650 angstrom
                   Q00  =  -0.879842

H          x = -1.478877  y = -0.138318  z = -2.565750 angstrom
           Maximum rank =  0   Radius =  0.325 angstrom
                   Q00  =   0.077558

H          x =  0.134123  y = -0.257318  z = -3.199750 angstrom
           Maximum rank =  0   Radius =  0.325 angstrom
                   Q00  =   0.095524

H          x = -0.780106  y =  1.209489  z = -3.424330 angstrom
           Maximum rank =  0   Radius =  0.325 angstrom
                   Q00  =   0.083909

Total multipoles referred to origin at
           x =   0.000000,  y =    0.000000,  z =    0.000000 angstrom
                   Q00  =  -0.000000

Finished at 6:40:9 on 27 Apr 2020

  DMA results are available in the Python driver through the
	  variable('DMA DISTRIBUTED MULTIPOLES')
  and
	  variable('DMA TOTAL MULTIPOLES')
  commands.

    Psi4 stopped on: Monday, 27 April 2020 06:40AM
    Psi4 wall time for execution: 0:00:19.53

*** Psi4 exiting successfully. Buy a developer a beer!
