                               Psi4 1.3.2 release

  ==> Input File <==

--------------------------------------------------------------------------
import numpy as np
set {scf_type pk
basis cc-pvdz
d_convergence 10
gdma_switch   0
gdma_limit    0
gdma_origin   [ 0.0,  0.0,  0.0 ]
}
molecule test {
    units Angstrom
    0 1
    --
    0 1
    C                0.780128392099954    -1.589104231926194    -1.656235247845635
    C               -0.290871607900046    -1.377104231926194    -2.716235247845635
    H                1.158128392099954    -0.636104231926194    -1.291235247845635
    H                0.349128392099954    -2.123104231926194    -0.809235247845635
    H                1.604128392099954    -2.178104231926195    -2.061235247845635
    H               -1.055871607900046    -0.734104231926194    -2.292235247845636
    H                0.153828392099954    -0.910884231926194    -3.607795247845636
    H               -0.752081607900046    -2.337834231926194    -2.988765247845636
    C               -0.297871607900046     0.909895768073806     0.866764752154365
    C                0.704128392099954     0.181895768073806     1.732764752154365
    C               -0.922871607900046     1.922895768073805     1.825764752154365
    H               -1.031871607900046     0.221895768073806     0.449764752154365
    H                0.223128392099954     1.429895768073806     0.061764752154365
    H                0.204128392099954    -0.530104231926194     2.389764752154364
    H                1.464128392099954    -0.322104231926194     1.134764752154365
    H               -1.114871607900046     2.849895768073806     1.292764752154365
    H                1.137978392099954     1.008115768073806     2.315114752154365
    H               -0.124401607900046     2.109935768073806     2.558884752154365
    H               -1.889731607900046     1.575375768073806     2.218714752154364

}
e, wfn = energy('scf', return_wfn=True)
gdma(wfn)
dmavals = variable('DMA DISTRIBUTED MULTIPOLES')
charges = np.array(dmavals)
print(charges)
np.save('SSI-066LEU-073PRO-1-dimer.npy', np.array(charges))--------------------------------------------------------------------------

*** tstart() called on ds3
*** at Tue Apr 28 17:32:06 2020

   => Loading Basis Set <=

    Name: CC-PVDZ
    Role: ORBITAL
    Keyword: BASIS
    atoms 1-2, 9-11  entry C          line   138 file /theoryfs2/ds/metcalf/miniconda2/envs/tf2gpu/share/psi4/basis/cc-pvdz.gbs
    atoms 3-8, 12-19 entry H          line    22 file /theoryfs2/ds/metcalf/miniconda2/envs/tf2gpu/share/psi4/basis/cc-pvdz.gbs

         ---------------------------------------------------------
                                   SCF
               by Justin Turney, Rob Parrish, Andy Simmonett
                          and Daniel G. A. Smith
                              RHF Reference
                        1 Threads,    500 MiB Core
         ---------------------------------------------------------

  ==> Geometry <==

    Molecular point group: c1
    Full point group: C1

    Geometry (in Angstrom), charge = 0, multiplicity = 1:

       Center              X                  Y                   Z               Mass
    ------------   -----------------  -----------------  -----------------  -----------------
         C            0.780128392100    -1.589104231926    -1.656235247846    12.000000000000
         C           -0.290871607900    -1.377104231926    -2.716235247846    12.000000000000
         H            1.158128392100    -0.636104231926    -1.291235247846     1.007825032230
         H            0.349128392100    -2.123104231926    -0.809235247846     1.007825032230
         H            1.604128392100    -2.178104231926    -2.061235247846     1.007825032230
         H           -1.055871607900    -0.734104231926    -2.292235247846     1.007825032230
         H            0.153828392100    -0.910884231926    -3.607795247846     1.007825032230
         H           -0.752081607900    -2.337834231926    -2.988765247846     1.007825032230
         C           -0.297871607900     0.909895768074     0.866764752154    12.000000000000
         C            0.704128392100     0.181895768074     1.732764752154    12.000000000000
         C           -0.922871607900     1.922895768074     1.825764752154    12.000000000000
         H           -1.031871607900     0.221895768074     0.449764752154     1.007825032230
         H            0.223128392100     1.429895768074     0.061764752154     1.007825032230
         H            0.204128392100    -0.530104231926     2.389764752154     1.007825032230
         H            1.464128392100    -0.322104231926     1.134764752154     1.007825032230
         H           -1.114871607900     2.849895768074     1.292764752154     1.007825032230
         H            1.137978392100     1.008115768074     2.315114752154     1.007825032230
         H           -0.124401607900     2.109935768074     2.558884752154     1.007825032230
         H           -1.889731607900     1.575375768074     2.218714752154     1.007825032230

  Running in c1 symmetry.

  Rotational constants: A =      0.25668  B =      0.04288  C =      0.03815 [cm^-1]
  Rotational constants: A =   7695.11064  B =   1285.52365  C =   1143.62187 [MHz]
  Nuclear repulsion =  181.466533908322589

  Charge       = 0
  Multiplicity = 1
  Electrons    = 44
  Nalpha       = 22
  Nbeta        = 22

  ==> Algorithm <==

  SCF Algorithm Type is PK.
  DIIS enabled.
  MOM disabled.
  Fractional occupation disabled.
  Guess Type is SAD.
  Energy threshold   = 1.00e-06
  Density threshold  = 1.00e-10
  Integral threshold = 0.00e+00

  ==> Primary Basis <==

  Basis Set: CC-PVDZ
    Blend: CC-PVDZ
    Number of shells: 72
    Number of basis function: 140
    Number of Cartesian functions: 145
    Spherical Harmonics?: true
    Max angular momentum: 2

  ==> Pre-Iterations <==

   -------------------------------------------------------
    Irrep   Nso     Nmo     Nalpha   Nbeta   Ndocc  Nsocc
   -------------------------------------------------------
     A        140     140       0       0       0       0
   -------------------------------------------------------
    Total     140     140      22      22      22       0
   -------------------------------------------------------

  ==> Integral Setup <==

  Using integral reordering PK algorithm.
  Sizing the integral batches needed.
  Building batch lookup table.
   Calculation information:
      Number of atoms:                  19
      Number of AO shells:              72
      Number of primitives:            180
      Number of atomic orbitals:       145
      Number of basis functions:       140

      Integral cutoff                 1.00e-12
      Number of threads:                 1

	Batch   1 pq = [       0,    9405] index = [             0,44231715] size =     44231715
	Batch   2 pq = [    9405,    9870] index = [      44231715,48713385] size =      4481670
  Task number: 5
  Buffer size: 11059200
  Buffer per thread: 2
  We computed 2952066 shell quartets total.
  Whereas there are 3454506 unique shell quartets.

  ==> DiskJK: Disk-Based J/K Matrices <==

    J tasked:                  Yes
    K tasked:                  Yes
    wK tasked:                  No
    Memory [MiB]:              375
    Schwarz Cutoff:          1E-12

    OpenMP threads:              1

  Minimum eigenvalue in the overlap matrix is 4.8193037805E-03.
  Using Symmetric Orthogonalization.

  SCF Guess: Superposition of Atomic Densities via on-the-fly atomic UHF.

  ==> Iterations <==

                        Total Energy        Delta E     RMS |[F,P]|

   @RHF iter SAD:  -196.51841157627769   -1.96518e+02   0.00000e+00
   @RHF iter   1:  -197.28816705911143   -7.69755e-01   3.86624e-03 DIIS
   @RHF iter   2:  -197.45072620148014   -1.62559e-01   1.69147e-03 DIIS
   @RHF iter   3:  -197.48073079936816   -3.00046e-02   3.30515e-04 DIIS
   @RHF iter   4:  -197.48297008190690   -2.23928e-03   5.08792e-05 DIIS
   @RHF iter   5:  -197.48301193543949   -4.18535e-05   1.56917e-05 DIIS
   @RHF iter   6:  -197.48301571018169   -3.77474e-06   2.54102e-06 DIIS
   @RHF iter   7:  -197.48301583073473   -1.20553e-07   4.56013e-07 DIIS
   @RHF iter   8:  -197.48301583482549   -4.09077e-09   1.04538e-07 DIIS
   @RHF iter   9:  -197.48301583502897   -2.03471e-10   3.20735e-08 DIIS
   @RHF iter  10:  -197.48301583505082   -2.18563e-11   7.44955e-09 DIIS
   @RHF iter  11:  -197.48301583505315   -2.33058e-12   1.49969e-09 DIIS
   @RHF iter  12:  -197.48301583505287    2.84217e-13   3.28298e-10 DIIS
   @RHF iter  13:  -197.48301583505196    9.09495e-13   6.12735e-11 DIIS
  Energy and wave function converged.

  ==> Post-Iterations <==

    Orbital Energies [Eh]
    ---------------------

    Doubly Occupied:

       1A    -11.218175     2A    -11.216086     3A    -11.215253
       4A    -11.213812     5A    -11.212291     6A     -1.066824
       7A     -1.020109     8A     -0.914104     9A     -0.835636
      10A     -0.798775    11A     -0.639849    12A     -0.614128
      13A     -0.600101    14A     -0.596326    15A     -0.538253
      16A     -0.516231    17A     -0.499722    18A     -0.486129
      19A     -0.483691    20A     -0.481857    21A     -0.468176
      22A     -0.458547

    Virtual:

      23A      0.171985    24A      0.196820    25A      0.213489
      26A      0.221372    27A      0.232117    28A      0.249294
      29A      0.257301    30A      0.261447    31A      0.280922
      32A      0.285942    33A      0.290944    34A      0.315241
      35A      0.337762    36A      0.359096    37A      0.386222
      38A      0.404043    39A      0.433006    40A      0.561163
      41A      0.572397    42A      0.594985    43A      0.604392
      44A      0.621642    45A      0.641764    46A      0.650865
      47A      0.676368    48A      0.689624    49A      0.754269
      50A      0.781612    51A      0.818878    52A      0.849360
      53A      0.861876    54A      0.868724    55A      0.876799
      56A      0.889301    57A      0.895004    58A      0.901961
      59A      0.906535    60A      0.911461    61A      0.917557
      62A      0.929521    63A      0.940206    64A      0.943891
      65A      0.950612    66A      0.974252    67A      0.988971
      68A      1.012801    69A      1.085776    70A      1.128219
      71A      1.130320    72A      1.154701    73A      1.197931
      74A      1.247733    75A      1.395700    76A      1.462914
      77A      1.477774    78A      1.479043    79A      1.492103
      80A      1.577704    81A      1.616323    82A      1.622736
      83A      1.638352    84A      1.678904    85A      1.692861
      86A      1.731787    87A      1.752933    88A      1.810484
      89A      1.853347    90A      1.860686    91A      1.873703
      92A      1.888769    93A      1.894208    94A      1.912464
      95A      1.925057    96A      1.940558    97A      1.943955
      98A      1.948599    99A      1.957587   100A      1.966351
     101A      1.972590   102A      1.977892   103A      2.002069
     104A      2.024647   105A      2.040029   106A      2.085851
     107A      2.098803   108A      2.111982   109A      2.133185
     110A      2.161220   111A      2.202822   112A      2.253427
     113A      2.296704   114A      2.303216   115A      2.321896
     116A      2.338817   117A      2.416395   118A      2.453101
     119A      2.464845   120A      2.468737   121A      2.530280
     122A      2.538398   123A      2.566461   124A      2.587495
     125A      2.637657   126A      2.701379   127A      2.762965
     128A      2.767627   129A      2.783702   130A      2.788267
     131A      2.796731   132A      2.834281   133A      2.851620
     134A      2.859360   135A      2.871988   136A      2.923758
     137A      2.943514   138A      2.967873   139A      2.971673
     140A      3.057571

    Final Occupation by Irrep:
              A
    DOCC [    22 ]

  @RHF Final Energy:  -197.48301583505196

   => Energetics <=

    Nuclear Repulsion Energy =            181.4665339083225888
    One-Electron Energy =                -623.7109501699911789
    Two-Electron Energy =                 244.7614004266166035
    Total Energy =                       -197.4830158350519582

Computation Completed

Properties will be evaluated at   0.000000,   0.000000,   0.000000 [a0]

Properties computed using the SCF density matrix

  Nuclear Dipole Moment: [e a0]
     X:     0.3054      Y:    -0.5411      Z:    -0.5896

  Electronic Dipole Moment: [e a0]
     X:    -0.3207      Y:     0.5436      Z:     0.5577

  Dipole Moment: [e a0]
     X:    -0.0153      Y:     0.0025      Z:    -0.0319     Total:     0.0355

  Dipole Moment: [D]
     X:    -0.0389      Y:     0.0063      Z:    -0.0812     Total:     0.0903

*** tstop() called on ds3 at Tue Apr 28 17:32:25 2020
Module time:
	user time   =      14.05 seconds =       0.23 minutes
	system time =       5.84 seconds =       0.10 minutes
	total time  =         19 seconds =       0.32 minutes
Total time:
	user time   =      14.05 seconds =       0.23 minutes
	system time =       5.84 seconds =       0.10 minutes
	total time  =         19 seconds =       0.32 minutes
                                     G D M A

                                 by Anthony Stone

                           version 2.2.06, 22 June 2011

               Distributed Multipoles from Gaussian wavefunctions

Starting at 17:32:25 on 28 Apr 2020

Using SCF density matrix from file ./SSI/SSI-066LEU-073PRO-1-dimer.test.31820.fchk

                         Distributed Multipole Analysis

Standard DMA

Positions and radii in angstrom
Multipole moments in atomic units, ea_0^k for rank k

C          x =  0.780128  y = -1.589104  z = -1.656235 angstrom
           Maximum rank =  0   Radius =  0.650 angstrom
                   Q00  =  -0.238087

C          x = -0.290872  y = -1.377104  z = -2.716235 angstrom
           Maximum rank =  0   Radius =  0.650 angstrom
                   Q00  =  -0.232819

H          x =  1.158128  y = -0.636104  z = -1.291235 angstrom
           Maximum rank =  0   Radius =  0.325 angstrom
                   Q00  =   0.080083

H          x =  0.349128  y = -2.123104  z = -0.809235 angstrom
           Maximum rank =  0   Radius =  0.325 angstrom
                   Q00  =   0.075989

H          x =  1.604128  y = -2.178104  z = -2.061235 angstrom
           Maximum rank =  0   Radius =  0.325 angstrom
                   Q00  =   0.078108

H          x = -1.055872  y = -0.734104  z = -2.292235 angstrom
           Maximum rank =  0   Radius =  0.325 angstrom
                   Q00  =   0.078970

H          x =  0.153828  y = -0.910884  z = -3.607795 angstrom
           Maximum rank =  0   Radius =  0.325 angstrom
                   Q00  =   0.078245

H          x = -0.752082  y = -2.337834  z = -2.988765 angstrom
           Maximum rank =  0   Radius =  0.325 angstrom
                   Q00  =   0.078147

C          x = -0.297872  y =  0.909896  z =  0.866765 angstrom
           Maximum rank =  0   Radius =  0.650 angstrom
                   Q00  =  -0.078265

C          x =  0.704128  y =  0.181896  z =  1.732765 angstrom
           Maximum rank =  0   Radius =  0.650 angstrom
                   Q00  =  -0.223489

C          x = -0.922872  y =  1.922896  z =  1.825765 angstrom
           Maximum rank =  0   Radius =  0.650 angstrom
                   Q00  =  -0.221915

H          x = -1.031872  y =  0.221896  z =  0.449765 angstrom
           Maximum rank =  0   Radius =  0.325 angstrom
                   Q00  =   0.056232

H          x =  0.223128  y =  1.429896  z =  0.061765 angstrom
           Maximum rank =  0   Radius =  0.325 angstrom
                   Q00  =   0.053528

H          x =  0.204128  y = -0.530104  z =  2.389765 angstrom
           Maximum rank =  0   Radius =  0.325 angstrom
                   Q00  =   0.078499

H          x =  1.464128  y = -0.322104  z =  1.134765 angstrom
           Maximum rank =  0   Radius =  0.325 angstrom
                   Q00  =   0.081703

H          x = -1.114872  y =  2.849896  z =  1.292765 angstrom
           Maximum rank =  0   Radius =  0.325 angstrom
                   Q00  =   0.083931

H          x =  1.137978  y =  1.008116  z =  2.315115 angstrom
           Maximum rank =  0   Radius =  0.325 angstrom
                   Q00  =   0.045368

H          x = -0.124402  y =  2.109936  z =  2.558885 angstrom
           Maximum rank =  0   Radius =  0.325 angstrom
                   Q00  =   0.051976

H          x = -1.889732  y =  1.575376  z =  2.218715 angstrom
           Maximum rank =  0   Radius =  0.325 angstrom
                   Q00  =   0.073796

Total multipoles referred to origin at
           x =   0.000000,  y =    0.000000,  z =    0.000000 angstrom
                   Q00  =  -0.000000

Finished at 17:32:25 on 28 Apr 2020

  DMA results are available in the Python driver through the
	  variable('DMA DISTRIBUTED MULTIPOLES')
  and
	  variable('DMA TOTAL MULTIPOLES')
  commands.

    Psi4 stopped on: Tuesday, 28 April 2020 05:32PM
    Psi4 wall time for execution: 0:00:19.58

*** Psi4 exiting successfully. Buy a developer a beer!
