                               Psi4 1.3.2 release

  ==> Input File <==

--------------------------------------------------------------------------
import numpy as np
set {scf_type pk
basis cc-pvdz
d_convergence 10
gdma_switch   0
gdma_limit    0
gdma_origin   [ 0.0,  0.0,  0.0 ]
}
molecule test {
    units Angstrom
    0 1
    --
    0 1
    C                2.136996593221149     2.849994505008992     0.813457627238577
    C                0.560996593221149    -0.024005494991008    -1.132542372761423
    C                0.933996593221149     1.272994505008992    -0.742542372761424
    C                0.953996593221149    -1.127005494991008    -0.401542372761424
    C                1.697996593221150     1.471994505008992     0.404457627238576
    C                1.672996593221149    -0.935005494991008     0.783457627238576
    C                2.039996593221149     0.349994505008992     1.176457627238576
    O                0.525996593221149    -2.350005494991008    -0.836542372761424
    H               -0.037003406778851    -0.170005494991008    -2.010542372761424
    H                0.637996593221149     2.120994505008992    -1.343542372761423
    H               -0.021003406778851    -2.289005494991008    -1.622542372761424
    H                1.949996593221150    -1.793005494991008     1.373457627238577
    H                2.908996593221149     3.170994505008992     0.118457627238576
    H                2.603996593221149     2.767994505008992     1.786457627238576
    H                2.614996593221150     0.479994505008992     2.084457627238577
    H                1.366219593221150     3.634504505008993     0.834427627238576
    C               -2.794003406778851    -0.496005494991008    -0.472542372761424
    C               -2.410003406778850    -0.265005494991008     0.970457627238576
    C               -4.329003406778852    -0.394005494991008    -0.446542372761424
    H               -2.444003406778851    -1.461005494991008    -0.841542372761424
    H               -2.393003406778850     0.313994505008992    -1.084542372761424
    H               -2.520003406778851    -1.191005494991008     1.535457627238577
    H               -1.391003406778850     0.110994505008992     1.064457627238576
    H               -4.683003406778851     0.046994505008992    -1.379542372761423
    H               -3.141679406778850     0.474674505008992     1.327567627238576
    H               -4.548199406778851     0.273444505008992     0.399897627238576
    H               -4.775610406778851    -1.389675494991008    -0.308012372761424

}
e, wfn = energy('scf', return_wfn=True)
gdma(wfn)
dmavals = variable('DMA DISTRIBUTED MULTIPOLES')
charges = np.array(dmavals)
print(charges)
np.save('SSI-079TYR-084PRO-1-dimer.npy', np.array(charges))--------------------------------------------------------------------------

*** tstart() called on ds3
*** at Tue Apr 28 12:41:51 2020

   => Loading Basis Set <=

    Name: CC-PVDZ
    Role: ORBITAL
    Keyword: BASIS
    atoms 1-7, 17-19  entry C          line   138 file /theoryfs2/ds/metcalf/miniconda2/envs/tf2gpu/share/psi4/basis/cc-pvdz.gbs
    atoms 8           entry O          line   198 file /theoryfs2/ds/metcalf/miniconda2/envs/tf2gpu/share/psi4/basis/cc-pvdz.gbs
    atoms 9-16, 20-27 entry H          line    22 file /theoryfs2/ds/metcalf/miniconda2/envs/tf2gpu/share/psi4/basis/cc-pvdz.gbs

         ---------------------------------------------------------
                                   SCF
               by Justin Turney, Rob Parrish, Andy Simmonett
                          and Daniel G. A. Smith
                              RHF Reference
                        1 Threads,    500 MiB Core
         ---------------------------------------------------------

  ==> Geometry <==

    Molecular point group: c1
    Full point group: C1

    Geometry (in Angstrom), charge = 0, multiplicity = 1:

       Center              X                  Y                   Z               Mass
    ------------   -----------------  -----------------  -----------------  -----------------
         C            2.136996593221     2.849994505009     0.813457627239    12.000000000000
         C            0.560996593221    -0.024005494991    -1.132542372761    12.000000000000
         C            0.933996593221     1.272994505009    -0.742542372761    12.000000000000
         C            0.953996593221    -1.127005494991    -0.401542372761    12.000000000000
         C            1.697996593221     1.471994505009     0.404457627239    12.000000000000
         C            1.672996593221    -0.935005494991     0.783457627239    12.000000000000
         C            2.039996593221     0.349994505009     1.176457627239    12.000000000000
         O            0.525996593221    -2.350005494991    -0.836542372761    15.994914619570
         H           -0.037003406779    -0.170005494991    -2.010542372761     1.007825032230
         H            0.637996593221     2.120994505009    -1.343542372761     1.007825032230
         H           -0.021003406779    -2.289005494991    -1.622542372761     1.007825032230
         H            1.949996593221    -1.793005494991     1.373457627239     1.007825032230
         H            2.908996593221     3.170994505009     0.118457627239     1.007825032230
         H            2.603996593221     2.767994505009     1.786457627239     1.007825032230
         H            2.614996593221     0.479994505009     2.084457627239     1.007825032230
         H            1.366219593221     3.634504505009     0.834427627239     1.007825032230
         C           -2.794003406779    -0.496005494991    -0.472542372761    12.000000000000
         C           -2.410003406779    -0.265005494991     0.970457627239    12.000000000000
         C           -4.329003406779    -0.394005494991    -0.446542372761    12.000000000000
         H           -2.444003406779    -1.461005494991    -0.841542372761     1.007825032230
         H           -2.393003406779     0.313994505009    -1.084542372761     1.007825032230
         H           -2.520003406779    -1.191005494991     1.535457627239     1.007825032230
         H           -1.391003406779     0.110994505009     1.064457627239     1.007825032230
         H           -4.683003406779     0.046994505009    -1.379542372761     1.007825032230
         H           -3.141679406779     0.474674505009     1.327567627239     1.007825032230
         H           -4.548199406779     0.273444505009     0.399897627239     1.007825032230
         H           -4.775610406779    -1.389675494991    -0.308012372761     1.007825032230

  Running in c1 symmetry.

  Rotational constants: A =      0.04600  B =      0.01941  C =      0.01603 [cm^-1]
  Rotational constants: A =   1379.01474  B =    581.83912  C =    480.66860 [MHz]
  Nuclear repulsion =  593.693895051622690

  Charge       = 0
  Multiplicity = 1
  Electrons    = 84
  Nalpha       = 42
  Nbeta        = 42

  ==> Algorithm <==

  SCF Algorithm Type is PK.
  DIIS enabled.
  MOM disabled.
  Fractional occupation disabled.
  Guess Type is SAD.
  Energy threshold   = 1.00e-06
  Density threshold  = 1.00e-10
  Integral threshold = 0.00e+00

  ==> Primary Basis <==

  Basis Set: CC-PVDZ
    Blend: CC-PVDZ
    Number of shells: 114
    Number of basis function: 234
    Number of Cartesian functions: 245
    Spherical Harmonics?: true
    Max angular momentum: 2

  ==> Pre-Iterations <==

   -------------------------------------------------------
    Irrep   Nso     Nmo     Nalpha   Nbeta   Ndocc  Nsocc
   -------------------------------------------------------
     A        234     234       0       0       0       0
   -------------------------------------------------------
    Total     234     234      42      42      42       0
   -------------------------------------------------------

  ==> Integral Setup <==

  Using integral reordering PK algorithm.
  Sizing the integral batches needed.
  Building batch lookup table.
   Calculation information:
      Number of atoms:                  27
      Number of AO shells:             114
      Number of primitives:            322
      Number of atomic orbitals:       245
      Number of basis functions:       234

      Integral cutoff                 1.00e-12
      Number of threads:                 1

	Batch   1 pq = [       0,    9405] index = [             0,44231715] size =     44231715
	Batch   2 pq = [    9405,   13301] index = [      44231715,88464951] size =     44233236
	Batch   3 pq = [   13301,   16290] index = [      88464951,132690195] size =     44225244
	Batch   4 pq = [   16290,   18810] index = [     132690195,176917455] size =     44227260
	Batch   5 pq = [   18810,   21030] index = [     176917455,221140965] size =     44223510
	Batch   6 pq = [   21030,   23037] index = [     221140965,265363203] size =     44222238
	Batch   7 pq = [   23037,   24883] index = [     265363203,309594286] size =     44231083
	Batch   8 pq = [   24883,   26601] index = [     309594286,353819901] size =     44225615
	Batch   9 pq = [   26601,   27495] index = [     353819901,378001260] size =     24181359
  Task number: 35
  Buffer size: 11059200
  Buffer per thread: 2
  We computed 20797898 shell quartets total.
  Whereas there are 21487290 unique shell quartets.

  ==> DiskJK: Disk-Based J/K Matrices <==

    J tasked:                  Yes
    K tasked:                  Yes
    wK tasked:                  No
    Memory [MiB]:              375
    Schwarz Cutoff:          1E-12

    OpenMP threads:              1

  Minimum eigenvalue in the overlap matrix is 3.3349542415E-04.
  Using Symmetric Orthogonalization.

  SCF Guess: Superposition of Atomic Densities via on-the-fly atomic UHF.

  ==> Iterations <==

                        Total Energy        Delta E     RMS |[F,P]|

   @RHF iter SAD:  -461.81629190668855   -4.61816e+02   0.00000e+00
   @RHF iter   1:  -462.58358773257800   -7.67296e-01   2.83585e-03 DIIS
   @RHF iter   2:  -462.82708386740330   -2.43496e-01   1.20933e-03 DIIS
   @RHF iter   3:  -462.86744159121736   -4.03577e-02   2.66591e-04 DIIS
   @RHF iter   4:  -462.87066829894889   -3.22671e-03   9.89803e-05 DIIS
   @RHF iter   5:  -462.87097919410246   -3.10895e-04   2.09471e-05 DIIS
   @RHF iter   6:  -462.87099910024642   -1.99061e-05   6.52514e-06 DIIS
   @RHF iter   7:  -462.87100112161119   -2.02136e-06   1.79419e-06 DIIS
   @RHF iter   8:  -462.87100133770406   -2.16093e-07   6.63285e-07 DIIS
   @RHF iter   9:  -462.87100136314456   -2.54405e-08   2.26678e-07 DIIS
   @RHF iter  10:  -462.87100136627015   -3.12559e-09   6.77998e-08 DIIS
   @RHF iter  11:  -462.87100136680925   -5.39103e-10   2.77302e-08 DIIS
   @RHF iter  12:  -462.87100136692800   -1.18746e-10   1.50122e-08 DIIS
   @RHF iter  13:  -462.87100136696313   -3.51292e-11   6.98159e-09 DIIS
   @RHF iter  14:  -462.87100136696932   -6.19593e-12   1.86058e-09 DIIS
   @RHF iter  15:  -462.87100136697291   -3.58114e-12   6.56800e-10 DIIS
   @RHF iter  16:  -462.87100136696813    4.77485e-12   1.93673e-10 DIIS
   @RHF iter  17:  -462.87100136696677    1.36424e-12   8.79970e-11 DIIS
  Energy and wave function converged.

  ==> Post-Iterations <==

    Orbital Energies [Eh]
    ---------------------

    Doubly Occupied:

       1A    -20.582622     2A    -11.299118     3A    -11.241227
       4A    -11.239602     5A    -11.236551     6A    -11.234413
       7A    -11.231024     8A    -11.228071     9A    -11.214717
      10A    -11.213135    11A    -11.203805    12A     -1.398918
      13A     -1.150484    14A     -1.060514    15A     -1.040027
      16A     -1.016279    17A     -0.929052    18A     -0.908083
      19A     -0.845660    20A     -0.803699    21A     -0.796066
      22A     -0.732856    23A     -0.669065    24A     -0.644755
      25A     -0.632207    26A     -0.611216    27A     -0.607994
      28A     -0.585660    29A     -0.584457    30A     -0.569137
      31A     -0.565272    32A     -0.535216    33A     -0.531914
      34A     -0.509426    35A     -0.499194    36A     -0.485877
      37A     -0.482465    38A     -0.467059    39A     -0.464552
      40A     -0.448967    41A     -0.337593    42A     -0.303260

    Virtual:

      43A      0.128363    44A      0.152216    45A      0.170976
      46A      0.183212    47A      0.198971    48A      0.209333
      49A      0.214581    50A      0.237066    51A      0.243769
      52A      0.252714    53A      0.258765    54A      0.268969
      55A      0.279587    56A      0.290052    57A      0.293766
      58A      0.304348    59A      0.329775    60A      0.338922
      61A      0.366907    62A      0.371781    63A      0.379565
      64A      0.428493    65A      0.436790    66A      0.456197
      67A      0.483646    68A      0.494855    69A      0.509444
      70A      0.568409    71A      0.579092    72A      0.611375
      73A      0.619254    74A      0.627667    75A      0.634171
      76A      0.648658    77A      0.656637    78A      0.669838
      79A      0.688943    80A      0.713099    81A      0.727740
      82A      0.734975    83A      0.749135    84A      0.767106
      85A      0.769888    86A      0.776027    87A      0.780176
      88A      0.796819    89A      0.811254    90A      0.823832
      91A      0.839276    92A      0.853317    93A      0.855055
      94A      0.868889    95A      0.874725    96A      0.882884
      97A      0.890249    98A      0.895555    99A      0.896305
     100A      0.903979   101A      0.908016   102A      0.924843
     103A      0.927439   104A      0.931439   105A      0.939794
     106A      0.946435   107A      0.949827   108A      0.960146
     109A      0.976350   110A      0.988303   111A      1.013527
     112A      1.024044   113A      1.066443   114A      1.082312
     115A      1.108294   116A      1.119767   117A      1.133835
     118A      1.141899   119A      1.147316   120A      1.174106
     121A      1.204626   122A      1.221199   123A      1.236995
     124A      1.248995   125A      1.268679   126A      1.289348
     127A      1.299411   128A      1.316547   129A      1.323751
     130A      1.354692   131A      1.359619   132A      1.396057
     133A      1.443784   134A      1.462550   135A      1.482129
     136A      1.499821   137A      1.511698   138A      1.530915
     139A      1.557324   140A      1.609107   141A      1.619544
     142A      1.626782   143A      1.642882   144A      1.651461
     145A      1.680783   146A      1.699578   147A      1.716580
     148A      1.733138   149A      1.746771   150A      1.758160
     151A      1.782670   152A      1.807096   153A      1.816456
     154A      1.828776   155A      1.865357   156A      1.868582
     157A      1.883064   158A      1.892430   159A      1.896046
     160A      1.897582   161A      1.915454   162A      1.917985
     163A      1.933864   164A      1.941123   165A      1.944564
     166A      1.954795   167A      1.959581   168A      1.961727
     169A      1.974609   170A      1.983998   171A      2.000708
     172A      2.012908   173A      2.024182   174A      2.038343
     175A      2.039254   176A      2.060170   177A      2.076493
     178A      2.082623   179A      2.100558   180A      2.109179
     181A      2.117685   182A      2.143149   183A      2.157257
     184A      2.185590   185A      2.208433   186A      2.212683
     187A      2.221166   188A      2.247188   189A      2.265461
     190A      2.275212   191A      2.315904   192A      2.325254
     193A      2.359993   194A      2.367430   195A      2.381421
     196A      2.391634   197A      2.435660   198A      2.465982
     199A      2.472502   200A      2.480275   201A      2.489662
     202A      2.514825   203A      2.533861   204A      2.547932
     205A      2.563937   206A      2.611178   207A      2.639686
     208A      2.662395   209A      2.704040   210A      2.739556
     211A      2.765404   212A      2.768356   213A      2.783165
     214A      2.798710   215A      2.806023   216A      2.813931
     217A      2.835415   218A      2.855195   219A      2.880017
     220A      2.892254   221A      2.922827   222A      2.955461
     223A      2.970523   224A      3.005112   225A      3.061345
     226A      3.080159   227A      3.132323   228A      3.252130
     229A      3.290805   230A      3.350656   231A      3.577745
     232A      3.648562   233A      3.996200   234A      4.185597

    Final Occupation by Irrep:
              A
    DOCC [    42 ]

  @RHF Final Energy:  -462.87100136696677

   => Energetics <=

    Nuclear Repulsion Energy =            593.6938950516226896
    One-Electron Energy =               -1804.8473733397358956
    Two-Electron Energy =                 748.2824769211463263
    Total Energy =                       -462.8710013669667660

Computation Completed

Properties will be evaluated at   0.000000,   0.000000,   0.000000 [a0]

Properties computed using the SCF density matrix

  Nuclear Dipole Moment: [e a0]
     X:   -13.0023      Y:     4.7706      Z:     1.8094

  Electronic Dipole Moment: [e a0]
     X:    12.9134      Y:    -4.3304      Z:    -2.1350

  Dipole Moment: [e a0]
     X:    -0.0889      Y:     0.4403      Z:    -0.3256     Total:     0.5547

  Dipole Moment: [D]
     X:    -0.2260      Y:     1.1190      Z:    -0.8276     Total:     1.4100

*** tstop() called on ds3 at Tue Apr 28 12:47:56 2020
Module time:
	user time   =     150.87 seconds =       2.51 minutes
	system time =      51.08 seconds =       0.85 minutes
	total time  =        365 seconds =       6.08 minutes
Total time:
	user time   =     150.87 seconds =       2.51 minutes
	system time =      51.08 seconds =       0.85 minutes
	total time  =        365 seconds =       6.08 minutes
                                     G D M A

                                 by Anthony Stone

                           version 2.2.06, 22 June 2011

               Distributed Multipoles from Gaussian wavefunctions

Starting at 12:47:56 on 28 Apr 2020

Using SCF density matrix from file ./SSI/SSI-079TYR-084PRO-1-dimer.test.15303.fchk

                         Distributed Multipole Analysis

Standard DMA

Positions and radii in angstrom
Multipole moments in atomic units, ea_0^k for rank k

C          x =  2.136997  y =  2.849995  z =  0.813458 angstrom
           Maximum rank =  0   Radius =  0.650 angstrom
                   Q00  =  -0.208173

C          x =  0.560997  y = -0.024005  z = -1.132542 angstrom
           Maximum rank =  0   Radius =  0.650 angstrom
                   Q00  =  -0.090893

C          x =  0.933997  y =  1.272995  z = -0.742542 angstrom
           Maximum rank =  0   Radius =  0.650 angstrom
                   Q00  =  -0.054657

C          x =  0.953997  y = -1.127005  z = -0.401542 angstrom
           Maximum rank =  0   Radius =  0.650 angstrom
                   Q00  =   0.263939

C          x =  1.697997  y =  1.471995  z =  0.404458 angstrom
           Maximum rank =  0   Radius =  0.650 angstrom
                   Q00  =  -0.126988

C          x =  1.672997  y = -0.935005  z =  0.783458 angstrom
           Maximum rank =  0   Radius =  0.650 angstrom
                   Q00  =  -0.116198

C          x =  2.039997  y =  0.349995  z =  1.176458 angstrom
           Maximum rank =  0   Radius =  0.650 angstrom
                   Q00  =   0.004662

O          x =  0.525997  y = -2.350005  z = -0.836542 angstrom
           Maximum rank =  0   Radius =  0.650 angstrom
                   Q00  =  -0.653308

H          x = -0.037003  y = -0.170005  z = -2.010542 angstrom
           Maximum rank =  0   Radius =  0.325 angstrom
                   Q00  =   0.066842

H          x =  0.637997  y =  2.120995  z = -1.343542 angstrom
           Maximum rank =  0   Radius =  0.325 angstrom
                   Q00  =   0.067571

H          x = -0.021003  y = -2.289005  z = -1.622542 angstrom
           Maximum rank =  0   Radius =  0.325 angstrom
                   Q00  =   0.412149

H          x =  1.949997  y = -1.793005  z =  1.373458 angstrom
           Maximum rank =  0   Radius =  0.325 angstrom
                   Q00  =   0.082036

H          x =  2.908997  y =  3.170995  z =  0.118458 angstrom
           Maximum rank =  0   Radius =  0.325 angstrom
                   Q00  =   0.098654

H          x =  2.603997  y =  2.767995  z =  1.786458 angstrom
           Maximum rank =  0   Radius =  0.325 angstrom
                   Q00  =   0.097170

H          x =  2.614997  y =  0.479995  z =  2.084458 angstrom
           Maximum rank =  0   Radius =  0.325 angstrom
                   Q00  =   0.066517

H          x =  1.366220  y =  3.634505  z =  0.834428 angstrom
           Maximum rank =  0   Radius =  0.325 angstrom
                   Q00  =   0.100151

C          x = -2.794003  y = -0.496005  z = -0.472542 angstrom
           Maximum rank =  0   Radius =  0.650 angstrom
                   Q00  =  -0.094777

C          x = -2.410003  y = -0.265005  z =  0.970458 angstrom
           Maximum rank =  0   Radius =  0.650 angstrom
                   Q00  =  -0.213953

C          x = -4.329003  y = -0.394005  z = -0.446542 angstrom
           Maximum rank =  0   Radius =  0.650 angstrom
                   Q00  =  -0.235939

H          x = -2.444003  y = -1.461005  z = -0.841542 angstrom
           Maximum rank =  0   Radius =  0.325 angstrom
                   Q00  =   0.041022

H          x = -2.393003  y =  0.313995  z = -1.084542 angstrom
           Maximum rank =  0   Radius =  0.325 angstrom
                   Q00  =   0.048640

H          x = -2.520003  y = -1.191005  z =  1.535458 angstrom
           Maximum rank =  0   Radius =  0.325 angstrom
                   Q00  =   0.075528

H          x = -1.391003  y =  0.110995  z =  1.064458 angstrom
           Maximum rank =  0   Radius =  0.325 angstrom
                   Q00  =   0.095834

H          x = -4.683003  y =  0.046995  z = -1.379542 angstrom
           Maximum rank =  0   Radius =  0.325 angstrom
                   Q00  =   0.082526

H          x = -3.141679  y =  0.474675  z =  1.327568 angstrom
           Maximum rank =  0   Radius =  0.325 angstrom
                   Q00  =   0.043567

H          x = -4.548199  y =  0.273445  z =  0.399898 angstrom
           Maximum rank =  0   Radius =  0.325 angstrom
                   Q00  =   0.067582

H          x = -4.775610  y = -1.389675  z = -0.308012 angstrom
           Maximum rank =  0   Radius =  0.325 angstrom
                   Q00  =   0.080495

Total multipoles referred to origin at
           x =   0.000000,  y =    0.000000,  z =    0.000000 angstrom
                   Q00  =  -0.000000

Finished at 12:47:56 on 28 Apr 2020

  DMA results are available in the Python driver through the
	  variable('DMA DISTRIBUTED MULTIPOLES')
  and
	  variable('DMA TOTAL MULTIPOLES')
  commands.

    Psi4 stopped on: Tuesday, 28 April 2020 12:47PM
    Psi4 wall time for execution: 0:06:05.00

*** Psi4 exiting successfully. Buy a developer a beer!
