                               Psi4 1.3.2 release

  ==> Input File <==

--------------------------------------------------------------------------
import numpy as np
set {scf_type pk
basis cc-pvdz
d_convergence 10
gdma_switch   0
gdma_limit    0
gdma_origin   [ 0.0,  0.0,  0.0 ]
}
molecule test {
    units Angstrom
    0 1
    --
    0 1
    C               -1.796989513874064    -0.947678899177158    -1.364475306302593
    C               -3.177989513874064    -0.412678899177158    -1.711475306302594
    C               -1.712989513874064    -1.347678899177158     0.085524693697407
    C               -1.598989513874064    -2.687678899177159     0.436524693697407
    C               -1.747989513874064    -0.383678899177158     1.089524693697406
    C               -1.534989513874064    -3.062678899177159     1.787524693697406
    C               -1.672989513874064    -0.744678899177158     2.435524693697407
    C               -1.582989513874064    -2.089678899177158     2.778524693697407
    O               -1.493989513874064    -2.482678899177159     4.062524693697407
    H               -1.573989513874064    -1.808678899177158    -1.996475306302593
    H               -1.051989513874064    -0.181678899177158    -1.558475306302594
    H               -3.270989513874064     0.558321100822841    -1.240475306302593
    H               -1.575989513874064    -3.449678899177159    -0.332475306302593
    H               -1.820989513874064     0.661321100822842     0.822524693697407
    H               -1.472989513874064    -4.101678899177158     2.054524693697406
    H               -1.696989513874064     0.001321100822842     3.214524693697407
    H               -1.405989513874064    -3.429678899177159     4.138524693697406
    H               -3.961607513874065    -1.068068329177158    -1.303545306302594
    H               -3.259495513874064    -0.237295499177158    -2.794345306302593
    C                4.811010486125936     2.053321100822842    -1.991475306302593
    C                1.035010486125936     1.509321100822841    -2.177475306302594
    C                0.615010486125936     2.163321100822841    -1.027475306302594
    C                2.407010486125936     1.425321100822842    -2.472475306302594
    C                3.342010486125936     2.047321100822842    -1.636475306302594
    C                1.545010486125936     2.761321100822842    -0.195475306302593
    C                2.903010486125936     2.712321100822842    -0.499475306302593
    H                0.312010486125936     1.060321100822842    -2.843475306302593
    H               -0.438989513874064     2.216321100822842    -0.787475306302594
    H                2.731010486125936     0.906321100822842    -3.362475306302593
    H                1.213010486125936     3.278321100822842     0.694524693697407
    H                5.066010486125936     1.111321100822842    -2.480475306302593
    H                5.396010486125936     2.128321100822842    -1.078475306302593
    H                3.613010486125936     3.190321100822842     0.159524693697407
    H                5.094460486125936     2.895789100822842    -2.639475306302594

}
e, wfn = energy('scf', return_wfn=True)
gdma(wfn)
dmavals = variable('DMA DISTRIBUTED MULTIPOLES')
charges = np.array(dmavals)
print(charges)
np.save('SSI-047TYR-052PHE-1-dimer.npy', np.array(charges))--------------------------------------------------------------------------

*** tstart() called on ds3
*** at Mon Apr 27 13:03:54 2020

   => Loading Basis Set <=

    Name: CC-PVDZ
    Role: ORBITAL
    Keyword: BASIS
    atoms 1-8, 20-26   entry C          line   138 file /theoryfs2/ds/metcalf/miniconda2/envs/tf2gpu/share/psi4/basis/cc-pvdz.gbs
    atoms 9            entry O          line   198 file /theoryfs2/ds/metcalf/miniconda2/envs/tf2gpu/share/psi4/basis/cc-pvdz.gbs
    atoms 10-19, 27-34 entry H          line    22 file /theoryfs2/ds/metcalf/miniconda2/envs/tf2gpu/share/psi4/basis/cc-pvdz.gbs

         ---------------------------------------------------------
                                   SCF
               by Justin Turney, Rob Parrish, Andy Simmonett
                          and Daniel G. A. Smith
                              RHF Reference
                        1 Threads,    500 MiB Core
         ---------------------------------------------------------

  ==> Geometry <==

    Molecular point group: c1
    Full point group: C1

    Geometry (in Angstrom), charge = 0, multiplicity = 1:

       Center              X                  Y                   Z               Mass
    ------------   -----------------  -----------------  -----------------  -----------------
         C           -1.796989513874    -0.947678899177    -1.364475306303    12.000000000000
         C           -3.177989513874    -0.412678899177    -1.711475306303    12.000000000000
         C           -1.712989513874    -1.347678899177     0.085524693697    12.000000000000
         C           -1.598989513874    -2.687678899177     0.436524693697    12.000000000000
         C           -1.747989513874    -0.383678899177     1.089524693697    12.000000000000
         C           -1.534989513874    -3.062678899177     1.787524693697    12.000000000000
         C           -1.672989513874    -0.744678899177     2.435524693697    12.000000000000
         C           -1.582989513874    -2.089678899177     2.778524693697    12.000000000000
         O           -1.493989513874    -2.482678899177     4.062524693697    15.994914619570
         H           -1.573989513874    -1.808678899177    -1.996475306303     1.007825032230
         H           -1.051989513874    -0.181678899177    -1.558475306303     1.007825032230
         H           -3.270989513874     0.558321100823    -1.240475306303     1.007825032230
         H           -1.575989513874    -3.449678899177    -0.332475306303     1.007825032230
         H           -1.820989513874     0.661321100823     0.822524693697     1.007825032230
         H           -1.472989513874    -4.101678899177     2.054524693697     1.007825032230
         H           -1.696989513874     0.001321100823     3.214524693697     1.007825032230
         H           -1.405989513874    -3.429678899177     4.138524693697     1.007825032230
         H           -3.961607513874    -1.068068329177    -1.303545306303     1.007825032230
         H           -3.259495513874    -0.237295499177    -2.794345306303     1.007825032230
         C            4.811010486126     2.053321100823    -1.991475306303    12.000000000000
         C            1.035010486126     1.509321100823    -2.177475306303    12.000000000000
         C            0.615010486126     2.163321100823    -1.027475306303    12.000000000000
         C            2.407010486126     1.425321100823    -2.472475306303    12.000000000000
         C            3.342010486126     2.047321100823    -1.636475306303    12.000000000000
         C            1.545010486126     2.761321100823    -0.195475306303    12.000000000000
         C            2.903010486126     2.712321100823    -0.499475306303    12.000000000000
         H            0.312010486126     1.060321100823    -2.843475306303     1.007825032230
         H           -0.438989513874     2.216321100823    -0.787475306303     1.007825032230
         H            2.731010486126     0.906321100823    -3.362475306303     1.007825032230
         H            1.213010486126     3.278321100823     0.694524693697     1.007825032230
         H            5.066010486126     1.111321100823    -2.480475306303     1.007825032230
         H            5.396010486126     2.128321100823    -1.078475306303     1.007825032230
         H            3.613010486126     3.190321100823     0.159524693697     1.007825032230
         H            5.094460486126     2.895789100823    -2.639475306303     1.007825032230

  Running in c1 symmetry.

  Rotational constants: A =      0.02556  B =      0.00697  C =      0.00620 [cm^-1]
  Rotational constants: A =    766.32101  B =    208.87732  C =    185.97856 [MHz]
  Nuclear repulsion =  967.882761326539253

  Charge       = 0
  Multiplicity = 1
  Electrons    = 116
  Nalpha       = 58
  Nbeta        = 58

  ==> Algorithm <==

  SCF Algorithm Type is PK.
  DIIS enabled.
  MOM disabled.
  Fractional occupation disabled.
  Guess Type is SAD.
  Energy threshold   = 1.00e-06
  Density threshold  = 1.00e-10
  Integral threshold = 0.00e+00

  ==> Primary Basis <==

  Basis Set: CC-PVDZ
    Blend: CC-PVDZ
    Number of shells: 150
    Number of basis function: 314
    Number of Cartesian functions: 330
    Spherical Harmonics?: true
    Max angular momentum: 2

  ==> Pre-Iterations <==

   -------------------------------------------------------
    Irrep   Nso     Nmo     Nalpha   Nbeta   Ndocc  Nsocc
   -------------------------------------------------------
     A        314     314       0       0       0       0
   -------------------------------------------------------
    Total     314     314      58      58      58       0
   -------------------------------------------------------

  ==> Integral Setup <==

  Using integral reordering PK algorithm.
  Sizing the integral batches needed.
  Building batch lookup table.
   Calculation information:
      Number of atoms:                  34
      Number of AO shells:             150
      Number of primitives:            442
      Number of atomic orbitals:       330
      Number of basis functions:       314

      Integral cutoff                 1.00e-12
      Number of threads:                 1

	Batch   1 pq = [       0,    9405] index = [             0,44231715] size =     44231715
	Batch   2 pq = [    9405,   13301] index = [      44231715,88464951] size =     44233236
	Batch   3 pq = [   13301,   16290] index = [      88464951,132690195] size =     44225244
	Batch   4 pq = [   16290,   18810] index = [     132690195,176917455] size =     44227260
	Batch   5 pq = [   18810,   21030] index = [     176917455,221140965] size =     44223510
	Batch   6 pq = [   21030,   23037] index = [     221140965,265363203] size =     44222238
	Batch   7 pq = [   23037,   24883] index = [     265363203,309594286] size =     44231083
	Batch   8 pq = [   24883,   26601] index = [     309594286,353819901] size =     44225615
	Batch   9 pq = [   26601,   28214] index = [     353819901,398029005] size =     44209104
	Batch  10 pq = [   28214,   29740] index = [     398029005,442248670] size =     44219665
	Batch  11 pq = [   29740,   31191] index = [     442248670,486454836] size =     44206166
	Batch  12 pq = [   31191,   32578] index = [     486454836,530679331] size =     44224495
	Batch  13 pq = [   32578,   33908] index = [     530679331,574893186] size =     44213855
	Batch  14 pq = [   33908,   35188] index = [     574893186,619115266] size =     44222080
	Batch  15 pq = [   35188,   36423] index = [     619115266,663335676] size =     44220410
	Batch  16 pq = [   36423,   37617] index = [     663335676,707538153] size =     44202477
	Batch  17 pq = [   37617,   38775] index = [     707538153,751769700] size =     44231547
	Batch  18 pq = [   38775,   39899] index = [     751769700,795985050] size =     44215350
	Batch  19 pq = [   39899,   40992] index = [     795985050,840192528] size =     44207478
	Batch  20 pq = [   40992,   42057] index = [     840192528,884416653] size =     44224125
	Batch  21 pq = [   42057,   43095] index = [     884416653,928611060] size =     44194407
	Batch  22 pq = [   43095,   44109] index = [     928611060,972823995] size =     44212935
	Batch  23 pq = [   44109,   45100] index = [     972823995,1017027550] size =     44203555
	Batch  24 pq = [   45100,   46070] index = [    1017027550,1061245485] size =     44217935
	Batch  25 pq = [   46070,   47020] index = [    1061245485,1105463710] size =     44218225
	Batch  26 pq = [   47020,   47951] index = [    1105463710,1149673176] size =     44209466
	Batch  27 pq = [   47951,   48864] index = [    1149673176,1193869680] size =     44196504
	Batch  28 pq = [   48864,   49455] index = [    1193869680,1222923240] size =     29053560
  Task number: 111
  Buffer size: 11059200
  Buffer per thread: 2
  We computed 57157494 shell quartets total.
  Whereas there are 64133475 unique shell quartets.

  ==> DiskJK: Disk-Based J/K Matrices <==

    J tasked:                  Yes
    K tasked:                  Yes
    wK tasked:                  No
    Memory [MiB]:              375
    Schwarz Cutoff:          1E-12

    OpenMP threads:              1

  Minimum eigenvalue in the overlap matrix is 3.0745108879E-04.
  Using Symmetric Orthogonalization.

  SCF Guess: Superposition of Atomic Densities via on-the-fly atomic UHF.

  ==> Iterations <==

                        Total Energy        Delta E     RMS |[F,P]|

   @RHF iter SAD:  -652.28926645193576   -6.52289e+02   0.00000e+00
   @RHF iter   1:  -653.06499965295438   -7.75733e-01   2.28963e-03 DIIS
   @RHF iter   2:  -653.36443307398304   -2.99433e-01   9.59789e-04 DIIS
   @RHF iter   3:  -653.41121620754552   -4.67831e-02   2.30014e-04 DIIS
   @RHF iter   4:  -653.41523380303647   -4.01760e-03   9.13748e-05 DIIS
   @RHF iter   5:  -653.41571410097515   -4.80298e-04   1.63989e-05 DIIS
   @RHF iter   6:  -653.41573686949005   -2.27685e-05   5.18841e-06 DIIS
   @RHF iter   7:  -653.41573907490374   -2.20541e-06   1.55859e-06 DIIS
   @RHF iter   8:  -653.41573935594749   -2.81044e-07   6.10071e-07 DIIS
   @RHF iter   9:  -653.41573940089961   -4.49521e-08   2.32230e-07 DIIS
   @RHF iter  10:  -653.41573940928436   -8.38475e-09   9.21833e-08 DIIS
   @RHF iter  11:  -653.41573941157071   -2.28636e-09   4.31455e-08 DIIS
   @RHF iter  12:  -653.41573941210163   -5.30918e-10   2.15331e-08 DIIS
   @RHF iter  13:  -653.41573941221839   -1.16756e-10   6.68429e-09 DIIS
   @RHF iter  14:  -653.41573941221998   -1.59162e-12   2.22162e-09 DIIS
   @RHF iter  15:  -653.41573941222589   -5.91172e-12   7.12618e-10 DIIS
   @RHF iter  16:  -653.41573941222805   -2.16005e-12   3.39626e-10 DIIS
   @RHF iter  17:  -653.41573941222691    1.13687e-12   1.60156e-10 DIIS
   @RHF iter  18:  -653.41573941222782   -9.09495e-13   7.53182e-11 DIIS
  Energy and wave function converged.

  ==> Post-Iterations <==

    Orbital Energies [Eh]
    ---------------------

    Doubly Occupied:

       1A    -20.580420     2A    -11.295883     3A    -11.241392
       4A    -11.237611     5A    -11.236414     6A    -11.236355
       7A    -11.234869     8A    -11.233124     9A    -11.231278
      10A    -11.229782    11A    -11.229267    12A    -11.228519
      13A    -11.228426    14A    -11.225917    15A    -11.222812
      16A    -11.219107    17A     -1.407588    18A     -1.152602
      19A     -1.149257    20A     -1.058414    21A     -1.044945
      22A     -1.013900    23A     -1.010397    24A     -0.974869
      25A     -0.931542    26A     -0.861797    27A     -0.839219
      28A     -0.826641    29A     -0.794778    30A     -0.792669
      31A     -0.733491    32A     -0.692418    33A     -0.668180
      34A     -0.648224    35A     -0.631901    36A     -0.630825
      37A     -0.613451    38A     -0.601509    39A     -0.586166
      40A     -0.584254    41A     -0.581934    42A     -0.575381
      43A     -0.563253    44A     -0.560177    45A     -0.550820
      46A     -0.536427    47A     -0.517800    48A     -0.494706
      49A     -0.487733    50A     -0.486973    51A     -0.480216
      52A     -0.473543    53A     -0.471405    54A     -0.460425
      55A     -0.334711    56A     -0.330818    57A     -0.323298
      58A     -0.298162

    Virtual:

      59A      0.129570    60A      0.133063    61A      0.142209
      62A      0.156150    63A      0.172408    64A      0.182402
      65A      0.192132    66A      0.201469    67A      0.210886
      68A      0.218761    69A      0.227030    70A      0.241547
      71A      0.250428    72A      0.255208    73A      0.257744
      74A      0.270178    75A      0.282196    76A      0.285945
      77A      0.300973    78A      0.312751    79A      0.324026
      80A      0.340494    81A      0.356768    82A      0.367224
      83A      0.376121    84A      0.396702    85A      0.417638
      86A      0.434624    87A      0.452007    88A      0.472774
      89A      0.475220    90A      0.481335    91A      0.490838
      92A      0.495423    93A      0.504170    94A      0.523622
      95A      0.567126    96A      0.594397    97A      0.598825
      98A      0.624454    99A      0.634473   100A      0.635530
     101A      0.647424   102A      0.655216   103A      0.678660
     104A      0.685280   105A      0.692295   106A      0.695753
     107A      0.711094   108A      0.712661   109A      0.715497
     110A      0.721912   111A      0.735953   112A      0.737940
     113A      0.739205   114A      0.741268   115A      0.746571
     116A      0.751569   117A      0.757602   118A      0.760918
     119A      0.768333   120A      0.779338   121A      0.793891
     122A      0.811623   123A      0.818823   124A      0.831373
     125A      0.843642   126A      0.850015   127A      0.859923
     128A      0.865299   129A      0.872055   130A      0.874919
     131A      0.876383   132A      0.883347   133A      0.888776
     134A      0.889917   135A      0.895757   136A      0.898434
     137A      0.911486   138A      0.914982   139A      0.918937
     140A      0.926425   141A      0.929817   142A      0.937364
     143A      0.942532   144A      0.955244   145A      0.962403
     146A      0.973703   147A      0.977223   148A      0.994829
     149A      1.009792   150A      1.020049   151A      1.030980
     152A      1.041079   153A      1.072303   154A      1.119756
     155A      1.121310   156A      1.134873   157A      1.144686
     158A      1.145923   159A      1.149023   160A      1.153998
     161A      1.180049   162A      1.180382   163A      1.204780
     164A      1.213830   165A      1.230315   166A      1.240009
     167A      1.245993   168A      1.248499   169A      1.255329
     170A      1.268312   171A      1.285001   172A      1.286338
     173A      1.296491   174A      1.300359   175A      1.308568
     176A      1.315899   177A      1.320612   178A      1.335045
     179A      1.339461   180A      1.349281   181A      1.361639
     182A      1.396135   183A      1.411403   184A      1.445044
     185A      1.459562   186A      1.494014   187A      1.504891
     188A      1.508573   189A      1.526873   190A      1.547844
     191A      1.565184   192A      1.606002   193A      1.608259
     194A      1.622901   195A      1.638574   196A      1.672098
     197A      1.676890   198A      1.697524   199A      1.704048
     200A      1.726902   201A      1.736214   202A      1.741372
     203A      1.750219   204A      1.765325   205A      1.767460
     206A      1.788030   207A      1.801021   208A      1.808094
     209A      1.832218   210A      1.857024   211A      1.861643
     212A      1.870126   213A      1.882615   214A      1.888125
     215A      1.896325   216A      1.898996   217A      1.904758
     218A      1.908354   219A      1.911390   220A      1.918929
     221A      1.920324   222A      1.927588   223A      1.937164
     224A      1.942882   225A      1.944887   226A      1.953499
     227A      1.963500   228A      1.973071   229A      1.975515
     230A      1.981606   231A      1.994710   232A      1.997468
     233A      2.012430   234A      2.031061   235A      2.035649
     236A      2.042795   237A      2.054978   238A      2.061559
     239A      2.062870   240A      2.067808   241A      2.077044
     242A      2.091226   243A      2.105030   244A      2.116667
     245A      2.130745   246A      2.143915   247A      2.145807
     248A      2.157018   249A      2.169086   250A      2.180681
     251A      2.182170   252A      2.195318   253A      2.202883
     254A      2.247661   255A      2.255559   256A      2.261131
     257A      2.277029   258A      2.278651   259A      2.291599
     260A      2.299143   261A      2.306336   262A      2.307284
     263A      2.323162   264A      2.336881   265A      2.341099
     266A      2.368863   267A      2.450289   268A      2.454599
     269A      2.463691   270A      2.479016   271A      2.481119
     272A      2.492008   273A      2.495862   274A      2.532669
     275A      2.538456   276A      2.544532   277A      2.565230
     278A      2.572792   279A      2.620133   280A      2.655834
     281A      2.663652   282A      2.743175   283A      2.754350
     284A      2.759379   285A      2.768118   286A      2.773668
     287A      2.790976   288A      2.803048   289A      2.811034
     290A      2.822223   291A      2.844444   292A      2.866389
     293A      2.873779   294A      2.889687   295A      2.937116
     296A      2.957119   297A      2.979757   298A      3.007539
     299A      3.012461   300A      3.024875   301A      3.029147
     302A      3.103157   303A      3.153626   304A      3.182250
     305A      3.200743   306A      3.264843   307A      3.292131
     308A      3.295434   309A      3.359680   310A      3.593502
     311A      3.687795   312A      3.965682   313A      3.994997
     314A      4.206327

    Final Occupation by Irrep:
              A
    DOCC [    58 ]

  @RHF Final Energy:  -653.41573941222782

   => Energetics <=

    Nuclear Repulsion Energy =            967.8827613265392529
    One-Electron Energy =               -2806.8210142443181212
    Two-Electron Energy =                1185.5225135055509327
    Total Energy =                       -653.4157394122278220

Computation Completed

Properties will be evaluated at   0.000000,   0.000000,   0.000000 [a0]

Properties computed using the SCF density matrix

  Nuclear Dipole Moment: [e a0]
     X:     1.7698      Y:     3.4860      Z:   -10.6053

  Electronic Dipole Moment: [e a0]
     X:    -1.5332      Y:    -3.8872      Z:    10.2809

  Dipole Moment: [e a0]
     X:     0.2366      Y:    -0.4012      Z:    -0.3244     Total:     0.5676

  Dipole Moment: [D]
     X:     0.6014      Y:    -1.0197      Z:    -0.8245     Total:     1.4426

*** tstop() called on ds3 at Mon Apr 27 13:17:56 2020
Module time:
	user time   =     537.56 seconds =       8.96 minutes
	system time =     216.31 seconds =       3.61 minutes
	total time  =        842 seconds =      14.03 minutes
Total time:
	user time   =     537.56 seconds =       8.96 minutes
	system time =     216.31 seconds =       3.61 minutes
	total time  =        842 seconds =      14.03 minutes
                                     G D M A

                                 by Anthony Stone

                           version 2.2.06, 22 June 2011

               Distributed Multipoles from Gaussian wavefunctions

Starting at 13:17:57 on 27 Apr 2020

Using SCF density matrix from file ./SSI/SSI-047TYR-052PHE-1-dimer.test.5214.fchk

                         Distributed Multipole Analysis

Standard DMA

Positions and radii in angstrom
Multipole moments in atomic units, ea_0^k for rank k

C          x = -1.796990  y = -0.947679  z = -1.364475 angstrom
           Maximum rank =  0   Radius =  0.650 angstrom
                   Q00  =  -0.015982

C          x = -3.177990  y = -0.412679  z = -1.711475 angstrom
           Maximum rank =  0   Radius =  0.650 angstrom
                   Q00  =  -0.241988

C          x = -1.712990  y = -1.347679  z =  0.085525 angstrom
           Maximum rank =  0   Radius =  0.650 angstrom
                   Q00  =  -0.148397

C          x = -1.598990  y = -2.687679  z =  0.436525 angstrom
           Maximum rank =  0   Radius =  0.650 angstrom
                   Q00  =  -0.055932

C          x = -1.747990  y = -0.383679  z =  1.089525 angstrom
           Maximum rank =  0   Radius =  0.650 angstrom
                   Q00  =   0.043600

C          x = -1.534990  y = -3.062679  z =  1.787525 angstrom
           Maximum rank =  0   Radius =  0.650 angstrom
                   Q00  =  -0.169341

C          x = -1.672990  y = -0.744679  z =  2.435525 angstrom
           Maximum rank =  0   Radius =  0.650 angstrom
                   Q00  =  -0.121808

C          x = -1.582990  y = -2.089679  z =  2.778525 angstrom
           Maximum rank =  0   Radius =  0.650 angstrom
                   Q00  =   0.284887

O          x = -1.493990  y = -2.482679  z =  4.062525 angstrom
           Maximum rank =  0   Radius =  0.650 angstrom
                   Q00  =  -0.630026

H          x = -1.573990  y = -1.808679  z = -1.996475 angstrom
           Maximum rank =  0   Radius =  0.325 angstrom
                   Q00  =   0.060617

H          x = -1.051990  y = -0.181679  z = -1.558475 angstrom
           Maximum rank =  0   Radius =  0.325 angstrom
                   Q00  =   0.075800

H          x = -3.270990  y =  0.558321  z = -1.240475 angstrom
           Maximum rank =  0   Radius =  0.325 angstrom
                   Q00  =   0.072489

H          x = -1.575990  y = -3.449679  z = -0.332475 angstrom
           Maximum rank =  0   Radius =  0.325 angstrom
                   Q00  =   0.069576

H          x = -1.820990  y =  0.661321  z =  0.822525 angstrom
           Maximum rank =  0   Radius =  0.325 angstrom
                   Q00  =   0.059287

H          x = -1.472990  y = -4.101679  z =  2.054525 angstrom
           Maximum rank =  0   Radius =  0.325 angstrom
                   Q00  =   0.068470

H          x = -1.696990  y =  0.001321  z =  3.214525 angstrom
           Maximum rank =  0   Radius =  0.325 angstrom
                   Q00  =   0.079500

H          x = -1.405990  y = -3.429679  z =  4.138525 angstrom
           Maximum rank =  0   Radius =  0.325 angstrom
                   Q00  =   0.404055

H          x = -3.961608  y = -1.068068  z = -1.303545 angstrom
           Maximum rank =  0   Radius =  0.325 angstrom
                   Q00  =   0.087293

H          x = -3.259496  y = -0.237295  z = -2.794345 angstrom
           Maximum rank =  0   Radius =  0.325 angstrom
                   Q00  =   0.078962

C          x =  4.811010  y =  2.053321  z = -1.991475 angstrom
           Maximum rank =  0   Radius =  0.650 angstrom
                   Q00  =  -0.204946

C          x =  1.035010  y =  1.509321  z = -2.177475 angstrom
           Maximum rank =  0   Radius =  0.650 angstrom
                   Q00  =  -0.078671

C          x =  0.615010  y =  2.163321  z = -1.027475 angstrom
           Maximum rank =  0   Radius =  0.650 angstrom
                   Q00  =  -0.087348

C          x =  2.407010  y =  1.425321  z = -2.472475 angstrom
           Maximum rank =  0   Radius =  0.650 angstrom
                   Q00  =  -0.076192

C          x =  3.342010  y =  2.047321  z = -1.636475 angstrom
           Maximum rank =  0   Radius =  0.650 angstrom
                   Q00  =  -0.094531

C          x =  1.545010  y =  2.761321  z = -0.195475 angstrom
           Maximum rank =  0   Radius =  0.650 angstrom
                   Q00  =   0.022038

C          x =  2.903010  y =  2.712321  z = -0.499475 angstrom
           Maximum rank =  0   Radius =  0.650 angstrom
                   Q00  =  -0.084949

H          x =  0.312010  y =  1.060321  z = -2.843475 angstrom
           Maximum rank =  0   Radius =  0.325 angstrom
                   Q00  =   0.065494

H          x = -0.438990  y =  2.216321  z = -0.787475 angstrom
           Maximum rank =  0   Radius =  0.325 angstrom
                   Q00  =   0.055225

H          x =  2.731010  y =  0.906321  z = -3.362475 angstrom
           Maximum rank =  0   Radius =  0.325 angstrom
                   Q00  =   0.059592

H          x =  1.213010  y =  3.278321  z =  0.694525 angstrom
           Maximum rank =  0   Radius =  0.325 angstrom
                   Q00  =   0.063745

H          x =  5.066010  y =  1.111321  z = -2.480475 angstrom
           Maximum rank =  0   Radius =  0.325 angstrom
                   Q00  =   0.098735

H          x =  5.396010  y =  2.128321  z = -1.078475 angstrom
           Maximum rank =  0   Radius =  0.325 angstrom
                   Q00  =   0.097786

H          x =  3.613010  y =  3.190321  z =  0.159525 angstrom
           Maximum rank =  0   Radius =  0.325 angstrom
                   Q00  =   0.057506

H          x =  5.094460  y =  2.895789  z = -2.639475 angstrom
           Maximum rank =  0   Radius =  0.325 angstrom
                   Q00  =   0.105455

Total multipoles referred to origin at
           x =   0.000000,  y =    0.000000,  z =    0.000000 angstrom
                   Q00  =  -0.000000

Finished at 13:17:57 on 27 Apr 2020

  DMA results are available in the Python driver through the
	  variable('DMA DISTRIBUTED MULTIPOLES')
  and
	  variable('DMA TOTAL MULTIPOLES')
  commands.

    Psi4 stopped on: Monday, 27 April 2020 01:17PM
    Psi4 wall time for execution: 0:14:03.28

*** Psi4 exiting successfully. Buy a developer a beer!
