                               Psi4 1.3.2 release

  ==> Input File <==

--------------------------------------------------------------------------
import numpy as np
set {scf_type pk
basis cc-pvdz
d_convergence 10
gdma_switch   0
gdma_limit    0
gdma_origin   [ 0.0,  0.0,  0.0 ]
}
molecule test {
    units Angstrom
    -1 1
    --
    -1 1
    C               -2.167804326799739    -1.311066470740790     0.465952229644503
    C               -2.738804326799739    -0.526066470740790    -0.709047770355497
    H               -2.898804326799739    -2.028066470740789     0.843952229644503
    H               -1.272804326799738    -1.837066470740790     0.138952229644503
    H               -1.888804326799739    -0.625066470740790     1.266952229644503
    H               -1.955804326799739     0.129933529259210    -1.093047770355497
    H               -3.580174326799739     0.094203529259210    -0.366467770355497
    H               -3.015264326799739    -1.212896470740790    -1.522587770355497
    C                2.247195673200262    -0.523066470740790     0.371952229644503
    C                1.186195673200261     0.516933529259210     0.039952229644503
    O                0.911195673200261     0.746933529259210    -1.159047770355498
    O                0.638195673200261     1.125933529259210     0.989952229644503
    H                2.180195673200262    -0.763066470740790     1.433952229644503
    H                3.230195673200262    -0.085066470740790     0.185952229644503
    H                2.152645673200261    -1.449216470740790    -0.213967770355497

}
e, wfn = energy('scf', return_wfn=True)
gdma(wfn)
dmavals = variable('DMA DISTRIBUTED MULTIPOLES')
charges = np.array(dmavals)
print(charges)
np.save('SSI-034ALA-152GLU-1-dimer.npy', np.array(charges))--------------------------------------------------------------------------

*** tstart() called on ds3
*** at Mon Apr 27 20:25:29 2020

   => Loading Basis Set <=

    Name: CC-PVDZ
    Role: ORBITAL
    Keyword: BASIS
    atoms 1-2, 9-10  entry C          line   138 file /theoryfs2/ds/metcalf/miniconda2/envs/tf2gpu/share/psi4/basis/cc-pvdz.gbs
    atoms 3-8, 13-15 entry H          line    22 file /theoryfs2/ds/metcalf/miniconda2/envs/tf2gpu/share/psi4/basis/cc-pvdz.gbs
    atoms 11-12      entry O          line   198 file /theoryfs2/ds/metcalf/miniconda2/envs/tf2gpu/share/psi4/basis/cc-pvdz.gbs

         ---------------------------------------------------------
                                   SCF
               by Justin Turney, Rob Parrish, Andy Simmonett
                          and Daniel G. A. Smith
                              RHF Reference
                        1 Threads,    500 MiB Core
         ---------------------------------------------------------

  ==> Geometry <==

    Molecular point group: c1
    Full point group: C1

    Geometry (in Angstrom), charge = -1, multiplicity = 1:

       Center              X                  Y                   Z               Mass
    ------------   -----------------  -----------------  -----------------  -----------------
         C           -2.167804326800    -1.311066470741     0.465952229645    12.000000000000
         C           -2.738804326800    -0.526066470741    -0.709047770355    12.000000000000
         H           -2.898804326800    -2.028066470741     0.843952229645     1.007825032230
         H           -1.272804326800    -1.837066470741     0.138952229645     1.007825032230
         H           -1.888804326800    -0.625066470741     1.266952229645     1.007825032230
         H           -1.955804326800     0.129933529259    -1.093047770355     1.007825032230
         H           -3.580174326800     0.094203529259    -0.366467770355     1.007825032230
         H           -3.015264326800    -1.212896470741    -1.522587770355     1.007825032230
         C            2.247195673200    -0.523066470741     0.371952229645    12.000000000000
         C            1.186195673200     0.516933529259     0.039952229645    12.000000000000
         O            0.911195673200     0.746933529259    -1.159047770355    15.994914619570
         O            0.638195673200     1.125933529259     0.989952229645    15.994914619570
         H            2.180195673200    -0.763066470741     1.433952229645     1.007825032230
         H            3.230195673200    -0.085066470741     0.185952229645     1.007825032230
         H            2.152645673200    -1.449216470741    -0.213967770355     1.007825032230

  Running in c1 symmetry.

  Rotational constants: A =      0.16188  B =      0.04560  C =      0.04348 [cm^-1]
  Rotational constants: A =   4853.07402  B =   1367.07032  C =   1303.55087 [MHz]
  Nuclear repulsion =  225.369257205413874

  Charge       = -1
  Multiplicity = 1
  Electrons    = 50
  Nalpha       = 25
  Nbeta        = 25

  ==> Algorithm <==

  SCF Algorithm Type is PK.
  DIIS enabled.
  MOM disabled.
  Fractional occupation disabled.
  Guess Type is SAD.
  Energy threshold   = 1.00e-06
  Density threshold  = 1.00e-10
  Integral threshold = 0.00e+00

  ==> Primary Basis <==

  Basis Set: CC-PVDZ
    Blend: CC-PVDZ
    Number of shells: 63
    Number of basis function: 129
    Number of Cartesian functions: 135
    Spherical Harmonics?: true
    Max angular momentum: 2

  ==> Pre-Iterations <==

   -------------------------------------------------------
    Irrep   Nso     Nmo     Nalpha   Nbeta   Ndocc  Nsocc
   -------------------------------------------------------
     A        129     129       0       0       0       0
   -------------------------------------------------------
    Total     129     129      25      25      25       0
   -------------------------------------------------------

  ==> Integral Setup <==

  Using integral reordering PK algorithm.
  Sizing the integral batches needed.
  Building batch lookup table.
   Calculation information:
      Number of atoms:                  15
      Number of AO shells:              63
      Number of primitives:            177
      Number of atomic orbitals:       135
      Number of basis functions:       129

      Integral cutoff                 1.00e-12
      Number of threads:                 1

	Batch   1 pq = [       0,    8385] index = [             0,35158305] size =     35158305
  Task number: 4
  Buffer size: 11059200
  Buffer per thread: 2
  We computed 1793336 shell quartets total.
  Whereas there are 2033136 unique shell quartets.

  ==> DiskJK: Disk-Based J/K Matrices <==

    J tasked:                  Yes
    K tasked:                  Yes
    wK tasked:                  No
    Memory [MiB]:              375
    Schwarz Cutoff:          1E-12

    OpenMP threads:              1

  Minimum eigenvalue in the overlap matrix is 5.3751994282E-03.
  Using Symmetric Orthogonalization.

  SCF Guess: Superposition of Atomic Densities via on-the-fly atomic UHF.

  ==> Iterations <==

                        Total Energy        Delta E     RMS |[F,P]|

   @RHF iter SAD:  -304.83380414816941   -3.04834e+02   0.00000e+00
   @RHF iter   1:  -306.21093845682572   -1.37713e+00   5.67178e-03 DIIS
   @RHF iter   2:  -306.41212454539584   -2.01186e-01   3.19513e-03 DIIS
   @RHF iter   3:  -306.47451697604629   -6.23924e-02   4.70531e-04 DIIS
   @RHF iter   4:  -306.47704780375238   -2.53083e-03   1.78006e-04 DIIS
   @RHF iter   5:  -306.47742797920642   -3.80175e-04   2.53990e-05 DIIS
   @RHF iter   6:  -306.47743808772651   -1.01085e-05   5.89184e-06 DIIS
   @RHF iter   7:  -306.47743856539944   -4.77673e-07   2.05559e-06 DIIS
   @RHF iter   8:  -306.47743861102896   -4.56295e-08   7.57876e-07 DIIS
   @RHF iter   9:  -306.47743861646927   -5.44031e-09   2.14019e-07 DIIS
   @RHF iter  10:  -306.47743861732192   -8.52651e-10   7.04134e-08 DIIS
   @RHF iter  11:  -306.47743861745369   -1.31763e-10   2.19882e-08 DIIS
   @RHF iter  12:  -306.47743861747279   -1.90994e-11   7.26929e-09 DIIS
   @RHF iter  13:  -306.47743861747279    0.00000e+00   2.40600e-09 DIIS
   @RHF iter  14:  -306.47743861747358   -7.95808e-13   8.14434e-10 DIIS
   @RHF iter  15:  -306.47743861747324    3.41061e-13   3.14825e-10 DIIS
   @RHF iter  16:  -306.47743861747426   -1.02318e-12   1.05469e-10 DIIS
   @RHF iter  17:  -306.47743861747352    7.38964e-13   4.55824e-11 DIIS
  Energy and wave function converged.

  ==> Post-Iterations <==

    Orbital Energies [Eh]
    ---------------------

    Doubly Occupied:

       1A    -20.255972     2A    -20.255832     3A    -11.113918
       4A    -11.087025     5A    -11.085252     6A    -11.050185
       7A     -1.144746     8A     -1.030792     9A     -0.887498
      10A     -0.795432    11A     -0.704104    12A     -0.498577
      13A     -0.471068    14A     -0.463797    15A     -0.409710
      16A     -0.406662    17A     -0.398597    18A     -0.368394
      19A     -0.357619    20A     -0.349811    21A     -0.338268
      22A     -0.300752    23A     -0.180974    24A     -0.167866
      25A     -0.156815

    Virtual:

      26A      0.310717    27A      0.341454    28A      0.365295
      29A      0.373931    30A      0.389424    31A      0.406798
      32A      0.410871    33A      0.434040    34A      0.445287
      35A      0.496244    36A      0.526056    37A      0.575323
      38A      0.676193    39A      0.709424    40A      0.729832
      41A      0.738622    42A      0.767237    43A      0.806503
      44A      0.814650    45A      0.833748    46A      0.876451
      47A      0.968789    48A      0.975914    49A      0.983798
      50A      1.015936    51A      1.025483    52A      1.029728
      53A      1.035301    54A      1.040134    55A      1.049395
      56A      1.052464    57A      1.076875    58A      1.115192
      59A      1.123098    60A      1.141403    61A      1.229561
      62A      1.255045    63A      1.261636    64A      1.334571
      65A      1.358458    66A      1.363255    67A      1.410208
      68A      1.547750    69A      1.561942    70A      1.573362
      71A      1.608446    72A      1.609749    73A      1.631397
      74A      1.670019    75A      1.696029    76A      1.718220
      77A      1.749060    78A      1.806940    79A      1.826213
      80A      1.841374    81A      1.850870    82A      1.982838
      83A      2.008021    84A      2.023847    85A      2.058188
      86A      2.074336    87A      2.078637    88A      2.083203
      89A      2.089547    90A      2.093397    91A      2.106968
      92A      2.111601    93A      2.131585    94A      2.216745
      95A      2.241128    96A      2.248931    97A      2.269217
      98A      2.372042    99A      2.414938   100A      2.433000
     101A      2.441310   102A      2.475061   103A      2.573290
     104A      2.595500   105A      2.597317   106A      2.663004
     107A      2.695789   108A      2.704583   109A      2.723271
     110A      2.781827   111A      2.893303   112A      2.915030
     113A      2.929352   114A      2.961015   115A      2.980767
     116A      2.984353   117A      2.992114   118A      3.078120
     119A      3.103117   120A      3.246834   121A      3.279727
     122A      3.301383   123A      3.363577   124A      3.641445
     125A      3.775972   126A      3.836281   127A      4.066683
     128A      4.079221   129A      4.196347

    Final Occupation by Irrep:
              A
    DOCC [    25 ]

  @RHF Final Energy:  -306.47743861747352

   => Energetics <=

    Nuclear Repulsion Energy =            225.3692572054138736
    One-Electron Energy =                -875.1340567439551705
    Two-Electron Energy =                 343.2873609210677728
    Total Energy =                       -306.4774386174735241

Computation Completed

Properties will be evaluated at   0.000000,   0.000000,   0.000000 [a0]

Properties computed using the SCF density matrix

  Nuclear Dipole Moment: [e a0]
     X:    -6.6004      Y:    -7.2811      Z:     0.6308

  Electronic Dipole Moment: [e a0]
     X:     5.7286      Y:     5.6070      Z:    -0.4185

  Dipole Moment: [e a0]
     X:    -0.8718      Y:    -1.6740      Z:     0.2123     Total:     1.8993

  Dipole Moment: [D]
     X:    -2.2159      Y:    -4.2549      Z:     0.5395     Total:     4.8276

*** tstop() called on ds3 at Mon Apr 27 20:25:46 2020
Module time:
	user time   =      12.38 seconds =       0.21 minutes
	system time =       5.23 seconds =       0.09 minutes
	total time  =         17 seconds =       0.28 minutes
Total time:
	user time   =      12.38 seconds =       0.21 minutes
	system time =       5.23 seconds =       0.09 minutes
	total time  =         17 seconds =       0.28 minutes
                                     G D M A

                                 by Anthony Stone

                           version 2.2.06, 22 June 2011

               Distributed Multipoles from Gaussian wavefunctions

Starting at 20:25:46 on 27 Apr 2020

Using SCF density matrix from file ./SSI/SSI-034ALA-152GLU-1-dimer.test.15007.fchk

                         Distributed Multipole Analysis

Standard DMA

Positions and radii in angstrom
Multipole moments in atomic units, ea_0^k for rank k

C          x = -2.167804  y = -1.311066  z =  0.465952 angstrom
           Maximum rank =  0   Radius =  0.650 angstrom
                   Q00  =  -0.200027

C          x = -2.738804  y = -0.526066  z = -0.709048 angstrom
           Maximum rank =  0   Radius =  0.650 angstrom
                   Q00  =  -0.226616

H          x = -2.898804  y = -2.028066  z =  0.843952 angstrom
           Maximum rank =  0   Radius =  0.325 angstrom
                   Q00  =   0.022702

H          x = -1.272804  y = -1.837066  z =  0.138952 angstrom
           Maximum rank =  0   Radius =  0.325 angstrom
                   Q00  =   0.085970

H          x = -1.888804  y = -0.625066  z =  1.266952 angstrom
           Maximum rank =  0   Radius =  0.325 angstrom
                   Q00  =   0.099128

H          x = -1.955804  y =  0.129934  z = -1.093048 angstrom
           Maximum rank =  0   Radius =  0.325 angstrom
                   Q00  =   0.122080

H          x = -3.580174  y =  0.094204  z = -0.366468 angstrom
           Maximum rank =  0   Radius =  0.325 angstrom
                   Q00  =   0.048598

H          x = -3.015264  y = -1.212896  z = -1.522588 angstrom
           Maximum rank =  0   Radius =  0.325 angstrom
                   Q00  =   0.040408

C          x =  2.247196  y = -0.523066  z =  0.371952 angstrom
           Maximum rank =  0   Radius =  0.650 angstrom
                   Q00  =  -0.279819

C          x =  1.186196  y =  0.516934  z =  0.039952 angstrom
           Maximum rank =  0   Radius =  0.650 angstrom
                   Q00  =   0.971975

O          x =  0.911196  y =  0.746934  z = -1.159048 angstrom
           Maximum rank =  0   Radius =  0.650 angstrom
                   Q00  =  -0.933508

O          x =  0.638196  y =  1.125934  z =  0.989952 angstrom
           Maximum rank =  0   Radius =  0.650 angstrom
                   Q00  =  -0.936228

H          x =  2.180196  y = -0.763066  z =  1.433952 angstrom
           Maximum rank =  0   Radius =  0.325 angstrom
                   Q00  =   0.051279

H          x =  3.230196  y = -0.085066  z =  0.185952 angstrom
           Maximum rank =  0   Radius =  0.325 angstrom
                   Q00  =   0.077080

H          x =  2.152646  y = -1.449216  z = -0.213968 angstrom
           Maximum rank =  0   Radius =  0.325 angstrom
                   Q00  =   0.056979

Total multipoles referred to origin at
           x =   0.000000,  y =    0.000000,  z =    0.000000 angstrom
                   Q00  =  -1.000000

Finished at 20:25:46 on 27 Apr 2020

  DMA results are available in the Python driver through the
	  variable('DMA DISTRIBUTED MULTIPOLES')
  and
	  variable('DMA TOTAL MULTIPOLES')
  commands.

    Psi4 stopped on: Monday, 27 April 2020 08:25PM
    Psi4 wall time for execution: 0:00:17.41

*** Psi4 exiting successfully. Buy a developer a beer!
