                               Psi4 1.3.2 release

  ==> Input File <==

--------------------------------------------------------------------------
import numpy as np
set {scf_type pk
basis cc-pvdz
d_convergence 10
gdma_switch   0
gdma_limit    0
gdma_origin   [ 0.0,  0.0,  0.0 ]
}
molecule test {
    units Angstrom
    0 1
    --
    0 1
    C               -2.661623832166688    -1.517683665393325    -1.333329200676605
    C               -0.307623832166688    -2.061683665393325    -0.372329200676605
    C               -1.387623832166688    -2.299683665393325    -1.163329200676605
    C                0.068376167833312    -3.917683665393325    -1.495329200676605
    N                0.584376167833312    -3.089683665393325    -0.592329200676605
    N               -1.123623832166688    -3.458683665393325    -1.867329200676605
    H               -0.180623832166688    -1.233683665393325     0.313670799323395
    H                1.488376167833312    -3.207683665393325    -0.146329200676605
    H               -3.512623832166688    -2.158683665393325    -1.095329200676605
    H               -2.734623832166688    -1.238683665393325    -2.386329200676605
    H                0.548376167833312    -4.815683665393324    -1.870329200676605
    H               -2.704133832166688    -0.604889665393325    -0.720957200676605
    C               -0.431623832166688     3.361316334606675    -0.977329200676605
    C                0.904376167833312     1.551316334606675     0.177670799323395
    C                0.250376167833312     2.786316334606675     0.260670799323395
    C                1.565376167833312     0.999316334606675     1.297670799323395
    C                0.296376167833312     3.474316334606675     1.471670799323395
    C                1.612376167833312     1.709316334606675     2.494670799323395
    C                0.965376167833312     2.930316334606675     2.587670799323395
    H                0.900376167833312     1.006316334606675    -0.756329200676605
    H                2.061376167833312     0.040316334606675     1.218670799323395
    H               -0.926623832166688     2.543316334606675    -1.502329200676605
    H                0.350376167833312     3.746316334606675    -1.634329200676605
    H               -0.176623832166688     4.438316334606675     1.580670799323395
    H                2.133376167833312     1.303316334606675     3.350670799323395
    H                1.000376167833312     3.470316334606675     3.521670799323395
    H               -1.163093832166688     4.164288334606675    -0.803578200676605

}
e, wfn = energy('scf', return_wfn=True)
gdma(wfn)
dmavals = variable('DMA DISTRIBUTED MULTIPOLES')
charges = np.array(dmavals)
print(charges)
np.save('SSI-078HIE-081PHE-1-dimer.npy', np.array(charges))--------------------------------------------------------------------------

*** tstart() called on ds3
*** at Tue Apr 28 00:23:42 2020

   => Loading Basis Set <=

    Name: CC-PVDZ
    Role: ORBITAL
    Keyword: BASIS
    atoms 1-4, 13-19  entry C          line   138 file /theoryfs2/ds/metcalf/miniconda2/envs/tf2gpu/share/psi4/basis/cc-pvdz.gbs
    atoms 5-6         entry N          line   168 file /theoryfs2/ds/metcalf/miniconda2/envs/tf2gpu/share/psi4/basis/cc-pvdz.gbs
    atoms 7-12, 20-27 entry H          line    22 file /theoryfs2/ds/metcalf/miniconda2/envs/tf2gpu/share/psi4/basis/cc-pvdz.gbs

         ---------------------------------------------------------
                                   SCF
               by Justin Turney, Rob Parrish, Andy Simmonett
                          and Daniel G. A. Smith
                              RHF Reference
                        1 Threads,    500 MiB Core
         ---------------------------------------------------------

  ==> Geometry <==

    Molecular point group: c1
    Full point group: C1

    Geometry (in Angstrom), charge = 0, multiplicity = 1:

       Center              X                  Y                   Z               Mass
    ------------   -----------------  -----------------  -----------------  -----------------
         C           -2.661623832167    -1.517683665393    -1.333329200677    12.000000000000
         C           -0.307623832167    -2.061683665393    -0.372329200677    12.000000000000
         C           -1.387623832167    -2.299683665393    -1.163329200677    12.000000000000
         C            0.068376167833    -3.917683665393    -1.495329200677    12.000000000000
         N            0.584376167833    -3.089683665393    -0.592329200677    14.003074004430
         N           -1.123623832167    -3.458683665393    -1.867329200677    14.003074004430
         H           -0.180623832167    -1.233683665393     0.313670799323     1.007825032230
         H            1.488376167833    -3.207683665393    -0.146329200677     1.007825032230
         H           -3.512623832167    -2.158683665393    -1.095329200677     1.007825032230
         H           -2.734623832167    -1.238683665393    -2.386329200677     1.007825032230
         H            0.548376167833    -4.815683665393    -1.870329200677     1.007825032230
         H           -2.704133832167    -0.604889665393    -0.720957200677     1.007825032230
         C           -0.431623832167     3.361316334607    -0.977329200677    12.000000000000
         C            0.904376167833     1.551316334607     0.177670799323    12.000000000000
         C            0.250376167833     2.786316334607     0.260670799323    12.000000000000
         C            1.565376167833     0.999316334607     1.297670799323    12.000000000000
         C            0.296376167833     3.474316334607     1.471670799323    12.000000000000
         C            1.612376167833     1.709316334607     2.494670799323    12.000000000000
         C            0.965376167833     2.930316334607     2.587670799323    12.000000000000
         H            0.900376167833     1.006316334607    -0.756329200677     1.007825032230
         H            2.061376167833     0.040316334607     1.218670799323     1.007825032230
         H           -0.926623832167     2.543316334607    -1.502329200677     1.007825032230
         H            0.350376167833     3.746316334607    -1.634329200677     1.007825032230
         H           -0.176623832167     4.438316334607     1.580670799323     1.007825032230
         H            2.133376167833     1.303316334607     3.350670799323     1.007825032230
         H            1.000376167833     3.470316334607     3.521670799323     1.007825032230
         H           -1.163093832167     4.164288334607    -0.803578200677     1.007825032230

  Running in c1 symmetry.

  Rotational constants: A =      0.04538  B =      0.01033  C =      0.00904 [cm^-1]
  Rotational constants: A =   1360.51545  B =    309.71559  C =    271.00444 [MHz]
  Nuclear repulsion =  690.199638865696443

  Charge       = 0
  Multiplicity = 1
  Electrons    = 94
  Nalpha       = 47
  Nbeta        = 47

  ==> Algorithm <==

  SCF Algorithm Type is PK.
  DIIS enabled.
  MOM disabled.
  Fractional occupation disabled.
  Guess Type is SAD.
  Energy threshold   = 1.00e-06
  Density threshold  = 1.00e-10
  Integral threshold = 0.00e+00

  ==> Primary Basis <==

  Basis Set: CC-PVDZ
    Blend: CC-PVDZ
    Number of shells: 120
    Number of basis function: 252
    Number of Cartesian functions: 265
    Spherical Harmonics?: true
    Max angular momentum: 2

  ==> Pre-Iterations <==

   -------------------------------------------------------
    Irrep   Nso     Nmo     Nalpha   Nbeta   Ndocc  Nsocc
   -------------------------------------------------------
     A        252     252       0       0       0       0
   -------------------------------------------------------
    Total     252     252      47      47      47       0
   -------------------------------------------------------

  ==> Integral Setup <==

  Using integral reordering PK algorithm.
  Sizing the integral batches needed.
  Building batch lookup table.
   Calculation information:
      Number of atoms:                  27
      Number of AO shells:             120
      Number of primitives:            356
      Number of atomic orbitals:       265
      Number of basis functions:       252

      Integral cutoff                 1.00e-12
      Number of threads:                 1

	Batch   1 pq = [       0,    9405] index = [             0,44231715] size =     44231715
	Batch   2 pq = [    9405,   13301] index = [      44231715,88464951] size =     44233236
	Batch   3 pq = [   13301,   16290] index = [      88464951,132690195] size =     44225244
	Batch   4 pq = [   16290,   18810] index = [     132690195,176917455] size =     44227260
	Batch   5 pq = [   18810,   21030] index = [     176917455,221140965] size =     44223510
	Batch   6 pq = [   21030,   23037] index = [     221140965,265363203] size =     44222238
	Batch   7 pq = [   23037,   24883] index = [     265363203,309594286] size =     44231083
	Batch   8 pq = [   24883,   26601] index = [     309594286,353819901] size =     44225615
	Batch   9 pq = [   26601,   28214] index = [     353819901,398029005] size =     44209104
	Batch  10 pq = [   28214,   29740] index = [     398029005,442248670] size =     44219665
	Batch  11 pq = [   29740,   31191] index = [     442248670,486454836] size =     44206166
	Batch  12 pq = [   31191,   31878] index = [     486454836,508119381] size =     21664545
  Task number: 46
  Buffer size: 11059200
  Buffer per thread: 2
  We computed 21374063 shell quartets total.
  Whereas there are 26357430 unique shell quartets.

  ==> DiskJK: Disk-Based J/K Matrices <==

    J tasked:                  Yes
    K tasked:                  Yes
    wK tasked:                  No
    Memory [MiB]:              375
    Schwarz Cutoff:          1E-12

    OpenMP threads:              1

  Minimum eigenvalue in the overlap matrix is 3.2250845277E-04.
  Using Symmetric Orthogonalization.

  SCF Guess: Superposition of Atomic Densities via on-the-fly atomic UHF.

  ==> Iterations <==

                        Total Energy        Delta E     RMS |[F,P]|

   @RHF iter SAD:  -532.58198203266193   -5.32582e+02   0.00000e+00
   @RHF iter   1:  -533.35287309616172   -7.70891e-01   2.53835e-03 DIIS
   @RHF iter   2:  -533.58047280967367   -2.27600e-01   1.22891e-03 DIIS
   @RHF iter   3:  -533.62657514657167   -4.61023e-02   3.36783e-04 DIIS
   @RHF iter   4:  -533.63098295492171   -4.40781e-03   1.37695e-04 DIIS
   @RHF iter   5:  -533.63164798395769   -6.65029e-04   1.99970e-05 DIIS
   @RHF iter   6:  -533.63167228976124   -2.43058e-05   8.64525e-06 DIIS
   @RHF iter   7:  -533.63167658764723   -4.29789e-06   2.98045e-06 DIIS
   @RHF iter   8:  -533.63167749392460   -9.06277e-07   1.21701e-06 DIIS
   @RHF iter   9:  -533.63167768048527   -1.86561e-07   4.91385e-07 DIIS
   @RHF iter  10:  -533.63167770483096   -2.43457e-08   1.52621e-07 DIIS
   @RHF iter  11:  -533.63167770775726   -2.92630e-09   6.20362e-08 DIIS
   @RHF iter  12:  -533.63167770811697   -3.59705e-10   2.79745e-08 DIIS
   @RHF iter  13:  -533.63167770818654   -6.95763e-11   8.64294e-09 DIIS
   @RHF iter  14:  -533.63167770819643   -9.89075e-12   3.40761e-09 DIIS
   @RHF iter  15:  -533.63167770820223   -5.79803e-12   1.59164e-09 DIIS
   @RHF iter  16:  -533.63167770819916    3.06954e-12   5.53304e-10 DIIS
   @RHF iter  17:  -533.63167770819973   -5.68434e-13   2.30997e-10 DIIS
   @RHF iter  18:  -533.63167770820098   -1.25056e-12   1.06079e-10 DIIS
   @RHF iter  19:  -533.63167770820030    6.82121e-13   4.30999e-11 DIIS
  Energy and wave function converged.

  ==> Post-Iterations <==

    Orbital Energies [Eh]
    ---------------------

    Doubly Occupied:

       1A    -15.618879     2A    -15.526741     3A    -11.292002
       4A    -11.249004     5A    -11.246744     6A    -11.244606
       7A    -11.240554     8A    -11.240446     9A    -11.238510
      10A    -11.237156    11A    -11.236279    12A    -11.234947
      13A    -11.223089    14A     -1.338149    15A     -1.153002
      16A     -1.150648    17A     -1.046988    18A     -1.026864
      19A     -1.010334    20A     -0.938547    21A     -0.935323
      22A     -0.830016    23A     -0.815082    24A     -0.798001
      25A     -0.758596    26A     -0.738488    27A     -0.694343
      28A     -0.636102    29A     -0.631903    30A     -0.607568
      31A     -0.600854    32A     -0.593824    33A     -0.581048
      34A     -0.576759    35A     -0.569128    36A     -0.548500
      37A     -0.540163    38A     -0.536052    39A     -0.523999
      40A     -0.490872    41A     -0.489079    42A     -0.483669
      43A     -0.408399    44A     -0.375283    45A     -0.332621
      46A     -0.328577    47A     -0.306873

    Virtual:

      48A      0.126750    49A      0.136106    50A      0.157952
      51A      0.175865    52A      0.190401    53A      0.195571
      54A      0.210601    55A      0.219545    56A      0.228145
      57A      0.235373    58A      0.251223    59A      0.252115
      60A      0.258993    61A      0.265221    62A      0.280859
      63A      0.284564    64A      0.301617    65A      0.316053
      66A      0.355583    67A      0.369829    68A      0.386058
      69A      0.394798    70A      0.413281    71A      0.443373
      72A      0.452986    73A      0.465647    74A      0.476883
      75A      0.483269    76A      0.512520    77A      0.554923
      78A      0.592032    79A      0.607315    80A      0.618416
      81A      0.623907    82A      0.644126    83A      0.662216
      84A      0.672363    85A      0.693369    86A      0.697624
      87A      0.698199    88A      0.708535    89A      0.711901
      90A      0.728440    91A      0.736163    92A      0.740123
      93A      0.748392    94A      0.753177    95A      0.758665
      96A      0.767742    97A      0.784941    98A      0.797367
      99A      0.802759   100A      0.815456   101A      0.831753
     102A      0.838056   103A      0.845848   104A      0.860415
     105A      0.865106   106A      0.876069   107A      0.883339
     108A      0.890464   109A      0.897417   110A      0.900462
     111A      0.908282   112A      0.914225   113A      0.933973
     114A      0.934836   115A      0.945287   116A      0.951106
     117A      0.976805   118A      0.984948   119A      0.990388
     120A      1.020772   121A      1.034223   122A      1.046807
     123A      1.067102   124A      1.097962   125A      1.103627
     126A      1.118295   127A      1.121163   128A      1.127645
     129A      1.142189   130A      1.157839   131A      1.168564
     132A      1.174432   133A      1.189421   134A      1.225018
     135A      1.238300   136A      1.244985   137A      1.249174
     138A      1.267537   139A      1.278618   140A      1.295009
     141A      1.299348   142A      1.315838   143A      1.318472
     144A      1.325515   145A      1.334182   146A      1.351418
     147A      1.412402   148A      1.427907   149A      1.439865
     150A      1.486680   151A      1.500397   152A      1.511878
     153A      1.525722   154A      1.564151   155A      1.570501
     156A      1.584462   157A      1.622766   158A      1.635166
     159A      1.665021   160A      1.688903   161A      1.688931
     162A      1.701790   163A      1.729327   164A      1.736239
     165A      1.756770   166A      1.773737   167A      1.783575
     168A      1.801605   169A      1.811168   170A      1.821127
     171A      1.839726   172A      1.851025   173A      1.877032
     174A      1.881097   175A      1.906716   176A      1.909759
     177A      1.915338   178A      1.917347   179A      1.925124
     180A      1.939691   181A      1.941957   182A      1.945301
     183A      1.956277   184A      1.960688   185A      1.968677
     186A      1.979389   187A      1.983473   188A      2.012431
     189A      2.021158   190A      2.032057   191A      2.052752
     192A      2.066623   193A      2.083502   194A      2.104727
     195A      2.119919   196A      2.129454   197A      2.136062
     198A      2.144248   199A      2.148021   200A      2.162753
     201A      2.165633   202A      2.172154   203A      2.205641
     204A      2.235395   205A      2.247231   206A      2.264653
     207A      2.272727   208A      2.283941   209A      2.311192
     210A      2.328484   211A      2.350336   212A      2.360909
     213A      2.415496   214A      2.442596   215A      2.445675
     216A      2.454060   217A      2.458921   218A      2.474710
     219A      2.482243   220A      2.525879   221A      2.532714
     222A      2.611200   223A      2.622794   224A      2.702108
     225A      2.714429   226A      2.732361   227A      2.736978
     228A      2.743293   229A      2.762557   230A      2.772904
     231A      2.785735   232A      2.793077   233A      2.804842
     234A      2.809842   235A      2.838704   236A      2.847947
     237A      2.882396   238A      2.891142   239A      2.907107
     240A      2.962838   241A      2.963861   242A      2.998207
     243A      3.025064   244A      3.066639   245A      3.150676
     246A      3.168544   247A      3.178561   248A      3.246215
     249A      3.279450   250A      3.476695   251A      3.794518
     252A      3.929419

    Final Occupation by Irrep:
              A
    DOCC [    47 ]

  @RHF Final Energy:  -533.63167770820030

   => Energetics <=

    Nuclear Repulsion Energy =            690.1996388656964427
    One-Electron Energy =               -2091.2134127052636359
    Two-Electron Energy =                 867.3820961313668931
    Total Energy =                       -533.6316777082003000

Computation Completed

Properties will be evaluated at   0.000000,   0.000000,   0.000000 [a0]

Properties computed using the SCF density matrix

  Nuclear Dipole Moment: [e a0]
     X:    -2.7318      Y:     7.0062      Z:    -0.8652

  Electronic Dipole Moment: [e a0]
     X:     3.7647      Y:    -6.6582      Z:     1.5347

  Dipole Moment: [e a0]
     X:     1.0329      Y:     0.3479      Z:     0.6696     Total:     1.2792

  Dipole Moment: [D]
     X:     2.6253      Y:     0.8844      Z:     1.7019     Total:     3.2513

*** tstop() called on ds3 at Tue Apr 28 00:32:01 2020
Module time:
	user time   =     171.72 seconds =       2.86 minutes
	system time =      83.53 seconds =       1.39 minutes
	total time  =        499 seconds =       8.32 minutes
Total time:
	user time   =     171.72 seconds =       2.86 minutes
	system time =      83.53 seconds =       1.39 minutes
	total time  =        499 seconds =       8.32 minutes
                                     G D M A

                                 by Anthony Stone

                           version 2.2.06, 22 June 2011

               Distributed Multipoles from Gaussian wavefunctions

Starting at 0:32:1 on 28 Apr 2020

Using SCF density matrix from file ./SSI/SSI-078HIE-081PHE-1-dimer.test.5237.fchk

                         Distributed Multipole Analysis

Standard DMA

Positions and radii in angstrom
Multipole moments in atomic units, ea_0^k for rank k

C          x = -2.661624  y = -1.517684  z = -1.333329 angstrom
           Maximum rank =  0   Radius =  0.650 angstrom
                   Q00  =  -0.194245

C          x = -0.307624  y = -2.061684  z = -0.372329 angstrom
           Maximum rank =  0   Radius =  0.650 angstrom
                   Q00  =  -0.005537

C          x = -1.387624  y = -2.299684  z = -1.163329 angstrom
           Maximum rank =  0   Radius =  0.650 angstrom
                   Q00  =   0.224869

C          x =  0.068376  y = -3.917684  z = -1.495329 angstrom
           Maximum rank =  0   Radius =  0.650 angstrom
                   Q00  =   0.462090

N          x =  0.584376  y = -3.089684  z = -0.592329 angstrom
           Maximum rank =  0   Radius =  0.650 angstrom
                   Q00  =  -0.480336

N          x = -1.123624  y = -3.458684  z = -1.867329 angstrom
           Maximum rank =  0   Radius =  0.650 angstrom
                   Q00  =  -0.774963

H          x = -0.180624  y = -1.233684  z =  0.313671 angstrom
           Maximum rank =  0   Radius =  0.325 angstrom
                   Q00  =   0.110905

H          x =  1.488376  y = -3.207684  z = -0.146329 angstrom
           Maximum rank =  0   Radius =  0.325 angstrom
                   Q00  =   0.217816

H          x = -3.512624  y = -2.158684  z = -1.095329 angstrom
           Maximum rank =  0   Radius =  0.325 angstrom
                   Q00  =   0.111879

H          x = -2.734624  y = -1.238684  z = -2.386329 angstrom
           Maximum rank =  0   Radius =  0.325 angstrom
                   Q00  =   0.108948

H          x =  0.548376  y = -4.815684  z = -1.870329 angstrom
           Maximum rank =  0   Radius =  0.325 angstrom
                   Q00  =   0.123450

H          x = -2.704134  y = -0.604890  z = -0.720957 angstrom
           Maximum rank =  0   Radius =  0.325 angstrom
                   Q00  =   0.095187

C          x = -0.431624  y =  3.361316  z = -0.977329 angstrom
           Maximum rank =  0   Radius =  0.650 angstrom
                   Q00  =  -0.213096

C          x =  0.904376  y =  1.551316  z =  0.177671 angstrom
           Maximum rank =  0   Radius =  0.650 angstrom
                   Q00  =  -0.052714

C          x =  0.250376  y =  2.786316  z =  0.260671 angstrom
           Maximum rank =  0   Radius =  0.650 angstrom
                   Q00  =  -0.089125

C          x =  1.565376  y =  0.999316  z =  1.297671 angstrom
           Maximum rank =  0   Radius =  0.650 angstrom
                   Q00  =  -0.087484

C          x =  0.296376  y =  3.474316  z =  1.471671 angstrom
           Maximum rank =  0   Radius =  0.650 angstrom
                   Q00  =  -0.046198

C          x =  1.612376  y =  1.709316  z =  2.494671 angstrom
           Maximum rank =  0   Radius =  0.650 angstrom
                   Q00  =  -0.085893

C          x =  0.965376  y =  2.930316  z =  2.587671 angstrom
           Maximum rank =  0   Radius =  0.650 angstrom
                   Q00  =  -0.050114

H          x =  0.900376  y =  1.006316  z = -0.756329 angstrom
           Maximum rank =  0   Radius =  0.325 angstrom
                   Q00  =   0.063691

H          x =  2.061376  y =  0.040316  z =  1.218671 angstrom
           Maximum rank =  0   Radius =  0.325 angstrom
                   Q00  =   0.058194

H          x = -0.926624  y =  2.543316  z = -1.502329 angstrom
           Maximum rank =  0   Radius =  0.325 angstrom
                   Q00  =   0.103038

H          x =  0.350376  y =  3.746316  z = -1.634329 angstrom
           Maximum rank =  0   Radius =  0.325 angstrom
                   Q00  =   0.105448

H          x = -0.176624  y =  4.438316  z =  1.580671 angstrom
           Maximum rank =  0   Radius =  0.325 angstrom
                   Q00  =   0.060898

H          x =  2.133376  y =  1.303316  z =  3.350671 angstrom
           Maximum rank =  0   Radius =  0.325 angstrom
                   Q00  =   0.062301

H          x =  1.000376  y =  3.470316  z =  3.521671 angstrom
           Maximum rank =  0   Radius =  0.325 angstrom
                   Q00  =   0.066497

H          x = -1.163094  y =  4.164288  z = -0.803578 angstrom
           Maximum rank =  0   Radius =  0.325 angstrom
                   Q00  =   0.104491

Total multipoles referred to origin at
           x =   0.000000,  y =    0.000000,  z =    0.000000 angstrom
                   Q00  =  -0.000000

Finished at 0:32:1 on 28 Apr 2020

  DMA results are available in the Python driver through the
	  variable('DMA DISTRIBUTED MULTIPOLES')
  and
	  variable('DMA TOTAL MULTIPOLES')
  commands.

    Psi4 stopped on: Tuesday, 28 April 2020 12:32AM
    Psi4 wall time for execution: 0:08:19.34

*** Psi4 exiting successfully. Buy a developer a beer!
