                               Psi4 1.3.2 release

  ==> Input File <==

--------------------------------------------------------------------------
import numpy as np
set {scf_type pk
basis cc-pvdz
d_convergence 10
gdma_switch   0
gdma_limit    0
gdma_origin   [ 0.0,  0.0,  0.0 ]
}
molecule test {
    units Angstrom
    0 1
    --
    0 1
    C               -0.373426481282477    -2.619822585241683    -2.422913659326818
    C               -1.078426481282477     0.446177414758317     0.545086340673182
    C               -1.822426481282477     0.412177414758317    -0.615913659326818
    C               -0.088426481282477    -0.512822585241683     0.742086340673181
    C               -1.571426481282477    -0.558822585241683    -1.593913659326819
    C                0.157573518717523    -1.498822585241683    -0.210913659326818
    C               -0.579426481282477    -1.527822585241683    -1.397913659326818
    H               -1.264426481282477     1.201177414758317     1.294086340673182
    H               -2.597426481282477     1.150177414758317    -0.772913659326818
    H                0.491573518717523    -0.495822585241683     1.654086340673181
    H               -2.164426481282477    -0.567822585241683    -2.497913659326819
    H                0.928573518717523    -2.219822585241683    -0.027913659326818
    H                0.660573518717523    -2.966822585241683    -2.389913659326818
    H               -0.523426481282477    -2.197822585241683    -3.403913659326819
    H               -1.054906481282477    -3.467904585241683    -2.260621659326818
    C                1.719573518717523     2.241177414758317     2.043086340673181
    C                2.931573518717523     3.082177414758317     2.481086340673182
    H                0.920573518717523     2.890177414758317     1.684086340673181
    H                1.996573518717523     1.559177414758317     1.243086340673181
    H                1.350573518717523     1.649177414758317     2.881086340673181
    H                3.134573518717523     3.832177414758317     1.717086340673181
    H                2.696813518717523     3.584827414758317     3.430946340673181
    H                3.817173518717523     2.435987414758317     2.571316340673182

}
e, wfn = energy('scf', return_wfn=True)
gdma(wfn)
dmavals = variable('DMA DISTRIBUTED MULTIPOLES')
charges = np.array(dmavals)
print(charges)
np.save('SSI-127PHE-158VAL-1-dimer.npy', np.array(charges))--------------------------------------------------------------------------

*** tstart() called on ds3
*** at Mon Apr 27 20:35:48 2020

   => Loading Basis Set <=

    Name: CC-PVDZ
    Role: ORBITAL
    Keyword: BASIS
    atoms 1-7, 16-17  entry C          line   138 file /theoryfs2/ds/metcalf/miniconda2/envs/tf2gpu/share/psi4/basis/cc-pvdz.gbs
    atoms 8-15, 18-23 entry H          line    22 file /theoryfs2/ds/metcalf/miniconda2/envs/tf2gpu/share/psi4/basis/cc-pvdz.gbs

         ---------------------------------------------------------
                                   SCF
               by Justin Turney, Rob Parrish, Andy Simmonett
                          and Daniel G. A. Smith
                              RHF Reference
                        1 Threads,    500 MiB Core
         ---------------------------------------------------------

  ==> Geometry <==

    Molecular point group: c1
    Full point group: C1

    Geometry (in Angstrom), charge = 0, multiplicity = 1:

       Center              X                  Y                   Z               Mass
    ------------   -----------------  -----------------  -----------------  -----------------
         C           -0.373426481282    -2.619822585242    -2.422913659327    12.000000000000
         C           -1.078426481282     0.446177414758     0.545086340673    12.000000000000
         C           -1.822426481282     0.412177414758    -0.615913659327    12.000000000000
         C           -0.088426481282    -0.512822585242     0.742086340673    12.000000000000
         C           -1.571426481282    -0.558822585242    -1.593913659327    12.000000000000
         C            0.157573518718    -1.498822585242    -0.210913659327    12.000000000000
         C           -0.579426481282    -1.527822585242    -1.397913659327    12.000000000000
         H           -1.264426481282     1.201177414758     1.294086340673     1.007825032230
         H           -2.597426481282     1.150177414758    -0.772913659327     1.007825032230
         H            0.491573518718    -0.495822585242     1.654086340673     1.007825032230
         H           -2.164426481282    -0.567822585242    -2.497913659327     1.007825032230
         H            0.928573518718    -2.219822585242    -0.027913659327     1.007825032230
         H            0.660573518718    -2.966822585242    -2.389913659327     1.007825032230
         H           -0.523426481282    -2.197822585242    -3.403913659327     1.007825032230
         H           -1.054906481282    -3.467904585242    -2.260621659327     1.007825032230
         C            1.719573518718     2.241177414758     2.043086340673    12.000000000000
         C            2.931573518718     3.082177414758     2.481086340673    12.000000000000
         H            0.920573518718     2.890177414758     1.684086340673     1.007825032230
         H            1.996573518718     1.559177414758     1.243086340673     1.007825032230
         H            1.350573518718     1.649177414758     2.881086340673     1.007825032230
         H            3.134573518718     3.832177414758     1.717086340673     1.007825032230
         H            2.696813518718     3.584827414758     3.430946340673     1.007825032230
         H            3.817173518718     2.435987414758     2.571316340673     1.007825032230

  Running in c1 symmetry.

  Rotational constants: A =      0.10180  B =      0.01893  C =      0.01717 [cm^-1]
  Rotational constants: A =   3051.97713  B =    567.42765  C =    514.63940 [MHz]
  Nuclear repulsion =  399.738812457802453

  Charge       = 0
  Multiplicity = 1
  Electrons    = 68
  Nalpha       = 34
  Nbeta        = 34

  ==> Algorithm <==

  SCF Algorithm Type is PK.
  DIIS enabled.
  MOM disabled.
  Fractional occupation disabled.
  Guess Type is SAD.
  Energy threshold   = 1.00e-06
  Density threshold  = 1.00e-10
  Integral threshold = 0.00e+00

  ==> Primary Basis <==

  Basis Set: CC-PVDZ
    Blend: CC-PVDZ
    Number of shells: 96
    Number of basis function: 196
    Number of Cartesian functions: 205
    Spherical Harmonics?: true
    Max angular momentum: 2

  ==> Pre-Iterations <==

   -------------------------------------------------------
    Irrep   Nso     Nmo     Nalpha   Nbeta   Ndocc  Nsocc
   -------------------------------------------------------
     A        196     196       0       0       0       0
   -------------------------------------------------------
    Total     196     196      34      34      34       0
   -------------------------------------------------------

  ==> Integral Setup <==

  Using integral reordering PK algorithm.
  Sizing the integral batches needed.
  Building batch lookup table.
   Calculation information:
      Number of atoms:                  23
      Number of AO shells:              96
      Number of primitives:            268
      Number of atomic orbitals:       205
      Number of basis functions:       196

      Integral cutoff                 1.00e-12
      Number of threads:                 1

	Batch   1 pq = [       0,    9405] index = [             0,44231715] size =     44231715
	Batch   2 pq = [    9405,   13301] index = [      44231715,88464951] size =     44233236
	Batch   3 pq = [   13301,   16290] index = [      88464951,132690195] size =     44225244
	Batch   4 pq = [   16290,   18810] index = [     132690195,176917455] size =     44227260
	Batch   5 pq = [   18810,   19306] index = [     176917455,186370471] size =      9453016
  Task number: 17
  Buffer size: 11059200
  Buffer per thread: 2
  We computed 8457872 shell quartets total.
  Whereas there are 10841496 unique shell quartets.

  ==> DiskJK: Disk-Based J/K Matrices <==

    J tasked:                  Yes
    K tasked:                  Yes
    wK tasked:                  No
    Memory [MiB]:              375
    Schwarz Cutoff:          1E-12

    OpenMP threads:              1

  Minimum eigenvalue in the overlap matrix is 3.1432591171E-04.
  Using Symmetric Orthogonalization.

  SCF Guess: Superposition of Atomic Densities via on-the-fly atomic UHF.

  ==> Iterations <==

                        Total Energy        Delta E     RMS |[F,P]|

   @RHF iter SAD:  -347.84323311022075   -3.47843e+02   0.00000e+00
   @RHF iter   1:  -348.76776454012827   -9.24531e-01   2.88250e-03 DIIS
   @RHF iter   2:  -348.95964112520596   -1.91877e-01   1.18424e-03 DIIS
   @RHF iter   3:  -348.98907453325177   -2.94334e-02   2.56515e-04 DIIS
   @RHF iter   4:  -348.99153131562576   -2.45678e-03   4.80864e-05 DIIS
   @RHF iter   5:  -348.99159560338330   -6.42878e-05   1.57113e-05 DIIS
   @RHF iter   6:  -348.99160184344328   -6.24006e-06   4.30036e-06 DIIS
   @RHF iter   7:  -348.99160237624119   -5.32798e-07   1.34880e-06 DIIS
   @RHF iter   8:  -348.99160243307460   -5.68334e-08   3.24335e-07 DIIS
   @RHF iter   9:  -348.99160244088830   -7.81370e-09   1.39209e-07 DIIS
   @RHF iter  10:  -348.99160244275612   -1.86782e-09   6.94229e-08 DIIS
   @RHF iter  11:  -348.99160244336628   -6.10157e-10   2.44236e-08 DIIS
   @RHF iter  12:  -348.99160244344023   -7.39533e-11   8.71647e-09 DIIS
   @RHF iter  13:  -348.99160244344830   -8.07177e-12   3.67846e-09 DIIS
   @RHF iter  14:  -348.99160244344813    1.70530e-13   7.45042e-10 DIIS
   @RHF iter  15:  -348.99160244344807    5.68434e-14   2.91345e-10 DIIS
   @RHF iter  16:  -348.99160244344728    7.95808e-13   1.46381e-10 DIIS
   @RHF iter  17:  -348.99160244344614    1.13687e-12   6.83594e-11 DIIS
  Energy and wave function converged.

  ==> Post-Iterations <==

    Orbital Energies [Eh]
    ---------------------

    Doubly Occupied:

       1A    -11.241496     2A    -11.233949     3A    -11.233277
       4A    -11.230434     5A    -11.228899     6A    -11.228649
       7A    -11.228070     8A    -11.218715     9A    -11.214791
      10A     -1.150181    11A     -1.043647    12A     -1.014637
      13A     -1.008379    14A     -0.931789    15A     -0.836770
      16A     -0.822972    17A     -0.793510    18A     -0.690371
      19A     -0.629284    20A     -0.629039    21A     -0.596932
      22A     -0.595223    23A     -0.579275    24A     -0.578938
      25A     -0.562933    26A     -0.535229    27A     -0.497016
      28A     -0.488845    29A     -0.486626    30A     -0.482567
      31A     -0.480651    32A     -0.478654    33A     -0.329800
      34A     -0.321184

    Virtual:

      35A      0.136134    36A      0.141731    37A      0.177436
      38A      0.191838    39A      0.204239    40A      0.217928
      41A      0.234165    42A      0.243072    43A      0.253762
      44A      0.257166    45A      0.271538    46A      0.279790
      47A      0.285233    48A      0.289444    49A      0.307008
      50A      0.322601    51A      0.367987    52A      0.376166
      53A      0.388140    54A      0.455612    55A      0.470280
      56A      0.479429    57A      0.492174    58A      0.553894
      59A      0.590815    60A      0.597676    61A      0.599333
      62A      0.623595    63A      0.640573    64A      0.675290
      65A      0.681020    66A      0.695897    67A      0.706293
      68A      0.719020    69A      0.723642    70A      0.738435
      71A      0.742152    72A      0.752301    73A      0.757642
      74A      0.763414    75A      0.780888    76A      0.801925
      77A      0.835022    78A      0.851019    79A      0.865684
      80A      0.871275    81A      0.881233    82A      0.890669
      83A      0.892781    84A      0.899155    85A      0.902667
      86A      0.909780    87A      0.916430    88A      0.926289
      89A      0.933596    90A      0.938828    91A      0.945549
      92A      0.954455    93A      0.990584    94A      0.996127
      95A      1.025838    96A      1.063915    97A      1.108456
      98A      1.117147    99A      1.142682   100A      1.150492
     101A      1.160612   102A      1.169247   103A      1.192205
     104A      1.227477   105A      1.240520   106A      1.246357
     107A      1.252392   108A      1.272811   109A      1.297501
     110A      1.308038   111A      1.319882   112A      1.325830
     113A      1.417845   114A      1.476442   115A      1.484294
     116A      1.514342   117A      1.525834   118A      1.561827
     119A      1.588316   120A      1.609684   121A      1.668371
     122A      1.679214   123A      1.697882   124A      1.703931
     125A      1.734400   126A      1.749613   127A      1.763983
     128A      1.789124   129A      1.808900   130A      1.866258
     131A      1.867708   132A      1.872903   133A      1.886709
     134A      1.893147   135A      1.903182   136A      1.915933
     137A      1.918049   138A      1.924705   139A      1.932378
     140A      1.934750   141A      1.948616   142A      1.950130
     143A      1.952816   144A      1.970421   145A      1.971503
     146A      1.987644   147A      2.001782   148A      2.032876
     149A      2.049475   150A      2.068561   151A      2.074532
     152A      2.106691   153A      2.125282   154A      2.135276
     155A      2.144010   156A      2.157335   157A      2.171392
     158A      2.184741   159A      2.187245   160A      2.261575
     161A      2.280449   162A      2.286255   163A      2.302460
     164A      2.304997   165A      2.312747   166A      2.324471
     167A      2.357858   168A      2.438890   169A      2.460409
     170A      2.468389   171A      2.486165   172A      2.494570
     173A      2.534360   174A      2.575790   175A      2.583959
     176A      2.627017   177A      2.743231   178A      2.756440
     179A      2.766043   180A      2.774604   181A      2.787051
     182A      2.794493   183A      2.820090   184A      2.837999
     185A      2.842850   186A      2.849994   187A      2.887441
     188A      2.938427   189A      2.962662   190A      2.986866
     191A      3.010156   192A      3.023646   193A      3.152528
     194A      3.200820   195A      3.300237   196A      3.965779

    Final Occupation by Irrep:
              A
    DOCC [    34 ]

  @RHF Final Energy:  -348.99160244344614

   => Energetics <=

    Nuclear Repulsion Energy =            399.7388124578024531
    One-Electron Energy =               -1262.2153640063916100
    Two-Electron Energy =                 513.4849491051430732
    Total Energy =                       -348.9916024434461406

Computation Completed

Properties will be evaluated at   0.000000,   0.000000,   0.000000 [a0]

Properties computed using the SCF density matrix

  Nuclear Dipole Moment: [e a0]
     X:     7.8676      Y:     5.9875      Z:     4.8023

  Electronic Dipole Moment: [e a0]
     X:    -7.8620      Y:    -6.0853      Z:    -4.9078

  Dipole Moment: [e a0]
     X:     0.0056      Y:    -0.0978      Z:    -0.1055     Total:     0.1440

  Dipole Moment: [D]
     X:     0.0144      Y:    -0.2486      Z:    -0.2681     Total:     0.3660

*** tstop() called on ds3 at Mon Apr 27 20:37:11 2020
Module time:
	user time   =      58.30 seconds =       0.97 minutes
	system time =      26.73 seconds =       0.45 minutes
	total time  =         83 seconds =       1.38 minutes
Total time:
	user time   =      58.30 seconds =       0.97 minutes
	system time =      26.73 seconds =       0.45 minutes
	total time  =         83 seconds =       1.38 minutes
                                     G D M A

                                 by Anthony Stone

                           version 2.2.06, 22 June 2011

               Distributed Multipoles from Gaussian wavefunctions

Starting at 20:37:11 on 27 Apr 2020

Using SCF density matrix from file ./SSI/SSI-127PHE-158VAL-1-dimer.test.15676.fchk

                         Distributed Multipole Analysis

Standard DMA

Positions and radii in angstrom
Multipole moments in atomic units, ea_0^k for rank k

C          x = -0.373426  y = -2.619823  z = -2.422914 angstrom
           Maximum rank =  0   Radius =  0.650 angstrom
                   Q00  =  -0.203871

C          x = -1.078426  y =  0.446177  z =  0.545086 angstrom
           Maximum rank =  0   Radius =  0.650 angstrom
                   Q00  =  -0.088963

C          x = -1.822426  y =  0.412177  z = -0.615914 angstrom
           Maximum rank =  0   Radius =  0.650 angstrom
                   Q00  =  -0.075520

C          x = -0.088426  y = -0.512823  z =  0.742086 angstrom
           Maximum rank =  0   Radius =  0.650 angstrom
                   Q00  =   0.024193

C          x = -1.571426  y = -0.558823  z = -1.593914 angstrom
           Maximum rank =  0   Radius =  0.650 angstrom
                   Q00  =  -0.074311

C          x =  0.157574  y = -1.498823  z = -0.210914 angstrom
           Maximum rank =  0   Radius =  0.650 angstrom
                   Q00  =  -0.088877

C          x = -0.579426  y = -1.527823  z = -1.397914 angstrom
           Maximum rank =  0   Radius =  0.650 angstrom
                   Q00  =  -0.100556

H          x = -1.264426  y =  1.201177  z =  1.294086 angstrom
           Maximum rank =  0   Radius =  0.325 angstrom
                   Q00  =   0.062220

H          x = -2.597426  y =  1.150177  z = -0.772914 angstrom
           Maximum rank =  0   Radius =  0.325 angstrom
                   Q00  =   0.062928

H          x =  0.491574  y = -0.495823  z =  1.654086 angstrom
           Maximum rank =  0   Radius =  0.325 angstrom
                   Q00  =   0.064015

H          x = -2.164426  y = -0.567823  z = -2.497914 angstrom
           Maximum rank =  0   Radius =  0.325 angstrom
                   Q00  =   0.056478

H          x =  0.928574  y = -2.219823  z = -0.027914 angstrom
           Maximum rank =  0   Radius =  0.325 angstrom
                   Q00  =   0.056159

H          x =  0.660574  y = -2.966823  z = -2.389914 angstrom
           Maximum rank =  0   Radius =  0.325 angstrom
                   Q00  =   0.097701

H          x = -0.523426  y = -2.197823  z = -3.403914 angstrom
           Maximum rank =  0   Radius =  0.325 angstrom
                   Q00  =   0.101195

H          x = -1.054906  y = -3.467905  z = -2.260622 angstrom
           Maximum rank =  0   Radius =  0.325 angstrom
                   Q00  =   0.106425

C          x =  1.719574  y =  2.241177  z =  2.043086 angstrom
           Maximum rank =  0   Radius =  0.650 angstrom
                   Q00  =  -0.242502

C          x =  2.931574  y =  3.082177  z =  2.481086 angstrom
           Maximum rank =  0   Radius =  0.650 angstrom
                   Q00  =  -0.234843

H          x =  0.920574  y =  2.890177  z =  1.684086 angstrom
           Maximum rank =  0   Radius =  0.325 angstrom
                   Q00  =   0.080217

H          x =  1.996574  y =  1.559177  z =  1.243086 angstrom
           Maximum rank =  0   Radius =  0.325 angstrom
                   Q00  =   0.086484

H          x =  1.350574  y =  1.649177  z =  2.881086 angstrom
           Maximum rank =  0   Radius =  0.325 angstrom
                   Q00  =   0.071935

H          x =  3.134574  y =  3.832177  z =  1.717086 angstrom
           Maximum rank =  0   Radius =  0.325 angstrom
                   Q00  =   0.080980

H          x =  2.696814  y =  3.584827  z =  3.430946 angstrom
           Maximum rank =  0   Radius =  0.325 angstrom
                   Q00  =   0.078927

H          x =  3.817174  y =  2.435987  z =  2.571316 angstrom
           Maximum rank =  0   Radius =  0.325 angstrom
                   Q00  =   0.079584

Total multipoles referred to origin at
           x =   0.000000,  y =    0.000000,  z =    0.000000 angstrom
                   Q00  =  -0.000000

Finished at 20:37:11 on 27 Apr 2020

  DMA results are available in the Python driver through the
	  variable('DMA DISTRIBUTED MULTIPOLES')
  and
	  variable('DMA TOTAL MULTIPOLES')
  commands.

    Psi4 stopped on: Monday, 27 April 2020 08:37PM
    Psi4 wall time for execution: 0:01:22.56

*** Psi4 exiting successfully. Buy a developer a beer!
