                               Psi4 1.3.2 release

  ==> Input File <==

--------------------------------------------------------------------------
import numpy as np
set {scf_type pk
basis cc-pvdz
d_convergence 10
gdma_switch   0
gdma_limit    0
gdma_origin   [ 0.0,  0.0,  0.0 ]
}
molecule test {
    units Angstrom
    0 1
    --
    0 1
    C               -1.522583700729328    -1.551576857045710     0.633558592527077
    C               -2.933583700729328    -2.086576857045709     0.851558592527077
    C               -0.504583700729328    -1.987576857045710     1.698558592527077
    H               -1.222583700729328    -1.823576857045710    -0.365441407472923
    H               -1.574583700729328    -0.463576857045710     0.675558592527077
    H               -3.213583700729328    -1.913576857045710     1.890558592527077
    H               -0.385583700729328    -3.068576857045710     1.661558592527077
    H                0.454416299270672    -1.532576857045710     1.448558592527077
    H               -2.956826700729328    -3.165516857045710     0.638619592527077
    H               -3.634747700729328    -1.529516857045710     0.212767592527077
    H               -0.770624700729328    -1.691236857045710     2.723938592527077
    C                1.372416299270672     2.279423142954290     0.338558592527077
    C                1.187416299270672     1.343423142954290    -0.824441407472923
    O                0.156416299270672     0.690423142954290    -0.954441407472923
    N                2.167416299270672     1.295423142954290    -1.703441407472923
    H                2.419416299270672     2.575423142954290     0.419558592527077
    H                1.116416299270672     1.733423142954290     1.248558592527077
    H                1.992416299270672     0.813423142954290    -2.585441407472923
    H                3.032416299270672     1.786423142954290    -1.529441407472923
    H                0.733496299270672     3.170883142954290     0.254377592527077

}
e, wfn = energy('scf', return_wfn=True)
gdma(wfn)
dmavals = variable('DMA DISTRIBUTED MULTIPOLES')
charges = np.array(dmavals)
print(charges)
np.save('SSI-099MET-107ASN-1-dimer.npy', np.array(charges))--------------------------------------------------------------------------

*** tstart() called on ds3
*** at Sun Apr 26 21:59:26 2020

   => Loading Basis Set <=

    Name: CC-PVDZ
    Role: ORBITAL
    Keyword: BASIS
    atoms 1-3, 12-13  entry C          line   138 file /theoryfs2/ds/metcalf/miniconda2/envs/tf2gpu/share/psi4/basis/cc-pvdz.gbs
    atoms 4-11, 16-20 entry H          line    22 file /theoryfs2/ds/metcalf/miniconda2/envs/tf2gpu/share/psi4/basis/cc-pvdz.gbs
    atoms 14          entry O          line   198 file /theoryfs2/ds/metcalf/miniconda2/envs/tf2gpu/share/psi4/basis/cc-pvdz.gbs
    atoms 15          entry N          line   168 file /theoryfs2/ds/metcalf/miniconda2/envs/tf2gpu/share/psi4/basis/cc-pvdz.gbs

         ---------------------------------------------------------
                                   SCF
               by Justin Turney, Rob Parrish, Andy Simmonett
                          and Daniel G. A. Smith
                              RHF Reference
                        1 Threads,    500 MiB Core
         ---------------------------------------------------------

  ==> Geometry <==

    Molecular point group: c1
    Full point group: C1

    Geometry (in Angstrom), charge = 0, multiplicity = 1:

       Center              X                  Y                   Z               Mass
    ------------   -----------------  -----------------  -----------------  -----------------
         C           -1.522583700729    -1.551576857046     0.633558592527    12.000000000000
         C           -2.933583700729    -2.086576857046     0.851558592527    12.000000000000
         C           -0.504583700729    -1.987576857046     1.698558592527    12.000000000000
         H           -1.222583700729    -1.823576857046    -0.365441407473     1.007825032230
         H           -1.574583700729    -0.463576857046     0.675558592527     1.007825032230
         H           -3.213583700729    -1.913576857046     1.890558592527     1.007825032230
         H           -0.385583700729    -3.068576857046     1.661558592527     1.007825032230
         H            0.454416299271    -1.532576857046     1.448558592527     1.007825032230
         H           -2.956826700729    -3.165516857046     0.638619592527     1.007825032230
         H           -3.634747700729    -1.529516857046     0.212767592527     1.007825032230
         H           -0.770624700729    -1.691236857046     2.723938592527     1.007825032230
         C            1.372416299271     2.279423142954     0.338558592527    12.000000000000
         C            1.187416299271     1.343423142954    -0.824441407473    12.000000000000
         O            0.156416299271     0.690423142954    -0.954441407473    15.994914619570
         N            2.167416299271     1.295423142954    -1.703441407473    14.003074004430
         H            2.419416299271     2.575423142954     0.419558592527     1.007825032230
         H            1.116416299271     1.733423142954     1.248558592527     1.007825032230
         H            1.992416299271     0.813423142954    -2.585441407473     1.007825032230
         H            3.032416299271     1.786423142954    -1.529441407473     1.007825032230
         H            0.733496299271     3.170883142954     0.254377592527     1.007825032230

  Running in c1 symmetry.

  Rotational constants: A =      0.15074  B =      0.02504  C =      0.02419 [cm^-1]
  Rotational constants: A =   4519.00882  B =    750.57774  C =    725.30464 [MHz]
  Nuclear repulsion =  296.461430242010238

  Charge       = 0
  Multiplicity = 1
  Electrons    = 58
  Nalpha       = 29
  Nbeta        = 29

  ==> Algorithm <==

  SCF Algorithm Type is PK.
  DIIS enabled.
  MOM disabled.
  Fractional occupation disabled.
  Guess Type is SAD.
  Energy threshold   = 1.00e-06
  Density threshold  = 1.00e-10
  Integral threshold = 0.00e+00

  ==> Primary Basis <==

  Basis Set: CC-PVDZ
    Blend: CC-PVDZ
    Number of shells: 81
    Number of basis function: 163
    Number of Cartesian functions: 170
    Spherical Harmonics?: true
    Max angular momentum: 2

  ==> Pre-Iterations <==

   -------------------------------------------------------
    Irrep   Nso     Nmo     Nalpha   Nbeta   Ndocc  Nsocc
   -------------------------------------------------------
     A        163     163       0       0       0       0
   -------------------------------------------------------
    Total     163     163      29      29      29       0
   -------------------------------------------------------

  ==> Integral Setup <==

  Using integral reordering PK algorithm.
  Sizing the integral batches needed.
  Building batch lookup table.
   Calculation information:
      Number of atoms:                  20
      Number of AO shells:              81
      Number of primitives:            219
      Number of atomic orbitals:       170
      Number of basis functions:       163

      Integral cutoff                 1.00e-12
      Number of threads:                 1

	Batch   1 pq = [       0,    9405] index = [             0,44231715] size =     44231715
	Batch   2 pq = [    9405,   13366] index = [      44231715,89331661] size =     45099946
  Task number: 9
  Buffer size: 11059200
  Buffer per thread: 2
  We computed 4335757 shell quartets total.
  Whereas there are 5516181 unique shell quartets.

  ==> DiskJK: Disk-Based J/K Matrices <==

    J tasked:                  Yes
    K tasked:                  Yes
    wK tasked:                  No
    Memory [MiB]:              375
    Schwarz Cutoff:          1E-12

    OpenMP threads:              1

  Minimum eigenvalue in the overlap matrix is 4.4033447711E-03.
  Using Symmetric Orthogonalization.

  SCF Guess: Superposition of Atomic Densities via on-the-fly atomic UHF.

  ==> Iterations <==

                        Total Energy        Delta E     RMS |[F,P]|

   @RHF iter SAD:  -324.96728827284164   -3.24967e+02   0.00000e+00
   @RHF iter   1:  -325.99835026832540   -1.03106e+00   4.15541e-03 DIIS
   @RHF iter   2:  -326.20141834042937   -2.03068e-01   2.28377e-03 DIIS
   @RHF iter   3:  -326.25621023453766   -5.47919e-02   4.90525e-04 DIIS
   @RHF iter   4:  -326.25998710254748   -3.77687e-03   2.01576e-04 DIIS
   @RHF iter   5:  -326.26065100471391   -6.63902e-04   3.05815e-05 DIIS
   @RHF iter   6:  -326.26068148712636   -3.04824e-05   1.33404e-05 DIIS
   @RHF iter   7:  -326.26068655044804   -5.06332e-06   5.17688e-06 DIIS
   @RHF iter   8:  -326.26068758856059   -1.03811e-06   1.85886e-06 DIIS
   @RHF iter   9:  -326.26068772832980   -1.39769e-07   4.84436e-07 DIIS
   @RHF iter  10:  -326.26068773513850   -6.80870e-09   1.57635e-07 DIIS
   @RHF iter  11:  -326.26068773592203   -7.83530e-10   3.87458e-08 DIIS
   @RHF iter  12:  -326.26068773596785   -4.58158e-11   9.50027e-09 DIIS
   @RHF iter  13:  -326.26068773597194   -4.09273e-12   2.36296e-09 DIIS
   @RHF iter  14:  -326.26068773597126    6.82121e-13   9.37859e-10 DIIS
   @RHF iter  15:  -326.26068773597171   -4.54747e-13   3.71273e-10 DIIS
   @RHF iter  16:  -326.26068773596967    2.04636e-12   1.58655e-10 DIIS
   @RHF iter  17:  -326.26068773597012   -4.54747e-13   7.75354e-11 DIIS
  Energy and wave function converged.

  ==> Post-Iterations <==

    Orbital Energies [Eh]
    ---------------------

    Doubly Occupied:

       1A    -20.504397     2A    -15.593136     3A    -11.347865
       4A    -11.243828     5A    -11.199280     6A    -11.196939
       7A    -11.190587     8A     -1.371605     9A     -1.221815
      10A     -1.030107    11A     -1.003804    12A     -0.906557
      13A     -0.801791    14A     -0.773054    15A     -0.732026
      16A     -0.658157    17A     -0.616069    18A     -0.604112
      19A     -0.577602    20A     -0.569026    21A     -0.559028
      22A     -0.531462    23A     -0.522699    24A     -0.517035
      25A     -0.454641    26A     -0.445397    27A     -0.438938
      28A     -0.411241    29A     -0.405910

    Virtual:

      30A      0.159705    31A      0.191100    32A      0.196619
      33A      0.213834    34A      0.222122    35A      0.247450
      36A      0.254401    37A      0.262770    38A      0.277037
      39A      0.287980    40A      0.294488    41A      0.300583
      42A      0.315289    43A      0.335203    44A      0.385449
      45A      0.389912    46A      0.448794    47A      0.479993
      48A      0.565726    49A      0.595949    50A      0.621606
      51A      0.633232    52A      0.637818    53A      0.647156
      54A      0.660719    55A      0.669371    56A      0.700424
      57A      0.711434    58A      0.736151    59A      0.752872
      60A      0.795170    61A      0.829186    62A      0.835348
      63A      0.855015    64A      0.867947    65A      0.893773
      66A      0.898979    67A      0.906824    68A      0.912110
      69A      0.918032    70A      0.920352    71A      0.929436
      72A      0.936285    73A      0.942826    74A      0.958446
      75A      0.986512    76A      0.993925    77A      1.000984
      78A      1.017851    79A      1.056667    80A      1.125655
      81A      1.134082    82A      1.142890    83A      1.191820
      84A      1.227027    85A      1.317421    86A      1.370899
      87A      1.386353    88A      1.397354    89A      1.421562
      90A      1.437698    91A      1.467062    92A      1.484078
      93A      1.492370    94A      1.511628    95A      1.574977
      96A      1.631410    97A      1.653348    98A      1.663184
      99A      1.696845   100A      1.705060   101A      1.721461
     102A      1.743275   103A      1.809996   104A      1.851476
     105A      1.870155   106A      1.880353   107A      1.888544
     108A      1.902190   109A      1.907391   110A      1.908826
     111A      1.920195   112A      1.938561   113A      1.945006
     114A      1.973038   115A      1.979787   116A      1.982438
     117A      1.996852   118A      2.015225   119A      2.036131
     120A      2.044349   121A      2.056845   122A      2.071458
     123A      2.088871   124A      2.121244   125A      2.161769
     126A      2.180419   127A      2.226052   128A      2.295445
     129A      2.300876   130A      2.319269   131A      2.354616
     132A      2.382060   133A      2.408209   134A      2.444939
     135A      2.461452   136A      2.512684   137A      2.532613
     138A      2.551864   139A      2.573262   140A      2.594617
     141A      2.624792   142A      2.632187   143A      2.670123
     144A      2.744197   145A      2.770908   146A      2.776079
     147A      2.777968   148A      2.787675   149A      2.804007
     150A      2.842325   151A      2.845480   152A      2.944237
     153A      2.964560   154A      2.985479   155A      2.997472
     156A      3.075724   157A      3.091935   158A      3.137661
     159A      3.280404   160A      3.497392   161A      3.526448
     162A      3.883160   163A      3.927161

    Final Occupation by Irrep:
              A
    DOCC [    29 ]

  @RHF Final Energy:  -326.26068773597012

   => Energetics <=

    Nuclear Repulsion Energy =            296.4614302420102376
    One-Electron Energy =               -1030.5880141551483575
    Two-Electron Energy =                 407.8658961771679969
    Total Energy =                       -326.2606877359701230

Computation Completed

Properties will be evaluated at   0.000000,   0.000000,   0.000000 [a0]

Properties computed using the SCF density matrix

  Nuclear Dipole Moment: [e a0]
     X:    -3.7648      Y:    -4.7896      Z:     6.2755

  Electronic Dipole Moment: [e a0]
     X:     5.3589      Y:     5.7959      Z:    -6.5664

  Dipole Moment: [e a0]
     X:     1.5941      Y:     1.0063      Z:    -0.2909     Total:     1.9075

  Dipole Moment: [D]
     X:     4.0519      Y:     2.5578      Z:    -0.7393     Total:     4.8484

*** tstop() called on ds3 at Sun Apr 26 22:00:05 2020
Module time:
	user time   =      26.57 seconds =       0.44 minutes
	system time =      13.09 seconds =       0.22 minutes
	total time  =         39 seconds =       0.65 minutes
Total time:
	user time   =      26.57 seconds =       0.44 minutes
	system time =      13.09 seconds =       0.22 minutes
	total time  =         39 seconds =       0.65 minutes
                                     G D M A

                                 by Anthony Stone

                           version 2.2.06, 22 June 2011

               Distributed Multipoles from Gaussian wavefunctions

Starting at 22:0:5 on 26 Apr 2020

Using SCF density matrix from file ./SSI/SSI-099MET-107ASN-1-dimer.test.18970.fchk

                         Distributed Multipole Analysis

Standard DMA

Positions and radii in angstrom
Multipole moments in atomic units, ea_0^k for rank k

C          x = -1.522584  y = -1.551577  z =  0.633559 angstrom
           Maximum rank =  0   Radius =  0.650 angstrom
                   Q00  =  -0.051009

C          x = -2.933584  y = -2.086577  z =  0.851559 angstrom
           Maximum rank =  0   Radius =  0.650 angstrom
                   Q00  =  -0.244937

C          x = -0.504584  y = -1.987577  z =  1.698559 angstrom
           Maximum rank =  0   Radius =  0.650 angstrom
                   Q00  =  -0.255622

H          x = -1.222584  y = -1.823577  z = -0.365441 angstrom
           Maximum rank =  0   Radius =  0.325 angstrom
                   Q00  =   0.056822

H          x = -1.574584  y = -0.463577  z =  0.675559 angstrom
           Maximum rank =  0   Radius =  0.325 angstrom
                   Q00  =   0.053144

H          x = -3.213584  y = -1.913577  z =  1.890559 angstrom
           Maximum rank =  0   Radius =  0.325 angstrom
                   Q00  =   0.067395

H          x = -0.385584  y = -3.068577  z =  1.661559 angstrom
           Maximum rank =  0   Radius =  0.325 angstrom
                   Q00  =   0.066990

H          x =  0.454416  y = -1.532577  z =  1.448559 angstrom
           Maximum rank =  0   Radius =  0.325 angstrom
                   Q00  =   0.078514

H          x = -2.956827  y = -3.165517  z =  0.638620 angstrom
           Maximum rank =  0   Radius =  0.325 angstrom
                   Q00  =   0.068637

H          x = -3.634748  y = -1.529517  z =  0.212768 angstrom
           Maximum rank =  0   Radius =  0.325 angstrom
                   Q00  =   0.079946

H          x = -0.770625  y = -1.691237  z =  2.723939 angstrom
           Maximum rank =  0   Radius =  0.325 angstrom
                   Q00  =   0.072857

C          x =  1.372416  y =  2.279423  z =  0.338559 angstrom
           Maximum rank =  0   Radius =  0.650 angstrom
                   Q00  =  -0.265301

C          x =  1.187416  y =  1.343423  z = -0.824441 angstrom
           Maximum rank =  0   Radius =  0.650 angstrom
                   Q00  =   0.819928

O          x =  0.156416  y =  0.690423  z = -0.954441 angstrom
           Maximum rank =  0   Radius =  0.650 angstrom
                   Q00  =  -0.793265

N          x =  2.167416  y =  1.295423  z = -1.703441 angstrom
           Maximum rank =  0   Radius =  0.650 angstrom
                   Q00  =  -0.528655

H          x =  2.419416  y =  2.575423  z =  0.419559 angstrom
           Maximum rank =  0   Radius =  0.325 angstrom
                   Q00  =   0.071994

H          x =  1.116416  y =  1.733423  z =  1.248559 angstrom
           Maximum rank =  0   Radius =  0.325 angstrom
                   Q00  =   0.130377

H          x =  1.992416  y =  0.813423  z = -2.585441 angstrom
           Maximum rank =  0   Radius =  0.325 angstrom
                   Q00  =   0.226437

H          x =  3.032416  y =  1.786423  z = -1.529441 angstrom
           Maximum rank =  0   Radius =  0.325 angstrom
                   Q00  =   0.208498

H          x =  0.733496  y =  3.170883  z =  0.254378 angstrom
           Maximum rank =  0   Radius =  0.325 angstrom
                   Q00  =   0.137248

Total multipoles referred to origin at
           x =   0.000000,  y =    0.000000,  z =    0.000000 angstrom
                   Q00  =  -0.000000

Finished at 22:0:5 on 26 Apr 2020

  DMA results are available in the Python driver through the
	  variable('DMA DISTRIBUTED MULTIPOLES')
  and
	  variable('DMA TOTAL MULTIPOLES')
  commands.

    Psi4 stopped on: Sunday, 26 April 2020 10:00PM
    Psi4 wall time for execution: 0:00:38.63

*** Psi4 exiting successfully. Buy a developer a beer!
