                               Psi4 1.3.2 release

  ==> Input File <==

--------------------------------------------------------------------------
import numpy as np
set {scf_type pk
basis cc-pvdz
d_convergence 10
gdma_switch   0
gdma_limit    0
gdma_origin   [ 0.0,  0.0,  0.0 ]
}
molecule test {
    units Angstrom
    0 1
    --
    0 1
    C                4.944055743172898     1.006470288191143    -1.560963593980396
    C                2.709055743172898     1.416470288191143    -0.283963593980396
    C                4.100055743172899     1.647470288191143    -0.513963593980396
    C                2.330055743172898     2.208470288191144     0.829036406019604
    C                4.502055743172898     2.535470288191144     0.442036406019604
    C                0.449055743172898     0.633470288191143    -0.409963593980396
    C                0.101055743172898     1.426470288191143     0.691036406019604
    C                1.743055743172898     0.617470288191143    -0.902963593980396
    C                1.038055743172898     2.222470288191143     1.323036406019604
    N                3.447055743172898     2.877470288191143     1.245036406019604
    H               -0.290944256827102     0.030470288191143    -0.899963593980396
    H               -0.924944256827102     1.428470288191143     1.041036406019604
    H                1.998055743172898     0.008470288191143    -1.748963593980396
    H                0.771055743172898     2.851470288191143     2.162036406019604
    H                4.663055743172898    -0.039529711808857    -1.646963593980396
    H                5.975055743172899     1.025470288191143    -1.203963593980396
    H                5.504055743172898     2.933470288191143     0.535036406019604
    H                3.493055743172898     3.552470288191143     2.000036406019604
    H                4.920345743172899     1.469920288191143    -2.558283593980396
    C               -2.338944256827102    -1.624529711808857    -1.310963593980396
    C               -2.791944256827102    -2.024529711808857    -2.710963593980396
    C               -3.252944256827102    -2.085529711808856    -0.211963593980396
    C               -4.578944256827102    -2.377529711808857    -0.230963593980396
    C               -3.847944256827102    -2.706529711808856     1.814036406019604
    N               -2.815944256827102    -2.298529711808857     1.082036406019604
    N               -4.926944256827102    -2.761529711808857     1.043036406019604
    H               -1.352944256827102    -2.045529711808856    -1.123963593980396
    H               -2.277944256827102    -0.539529711808857    -1.255963593980396
    H               -2.997944256827102    -3.092529711808857    -2.693963593980397
    H               -5.219944256827101    -2.365529711808857    -1.082963593980396
    H               -3.816944256827102    -2.969529711808857     2.867036406019604
    H               -5.838944256827101    -3.096529711808857     1.363036406019604
    H               -1.990731256827102    -1.805739711808857    -3.432203593980396
    H               -3.719242256827102    -1.497329711808857    -2.979623593980396

}
e, wfn = energy('scf', return_wfn=True)
gdma(wfn)
dmavals = variable('DMA DISTRIBUTED MULTIPOLES')
charges = np.array(dmavals)
print(charges)
np.save('SSI-035TRP-045HIE-1-dimer.npy', np.array(charges))--------------------------------------------------------------------------

*** tstart() called on ds3
*** at Mon Apr 27 12:44:42 2020

   => Loading Basis Set <=

    Name: CC-PVDZ
    Role: ORBITAL
    Keyword: BASIS
    atoms 1-9, 20-24   entry C          line   138 file /theoryfs2/ds/metcalf/miniconda2/envs/tf2gpu/share/psi4/basis/cc-pvdz.gbs
    atoms 10, 25-26    entry N          line   168 file /theoryfs2/ds/metcalf/miniconda2/envs/tf2gpu/share/psi4/basis/cc-pvdz.gbs
    atoms 11-19, 27-34 entry H          line    22 file /theoryfs2/ds/metcalf/miniconda2/envs/tf2gpu/share/psi4/basis/cc-pvdz.gbs

         ---------------------------------------------------------
                                   SCF
               by Justin Turney, Rob Parrish, Andy Simmonett
                          and Daniel G. A. Smith
                              RHF Reference
                        1 Threads,    500 MiB Core
         ---------------------------------------------------------

  ==> Geometry <==

    Molecular point group: c1
    Full point group: C1

    Geometry (in Angstrom), charge = 0, multiplicity = 1:

       Center              X                  Y                   Z               Mass
    ------------   -----------------  -----------------  -----------------  -----------------
         C            4.944055743173     1.006470288191    -1.560963593980    12.000000000000
         C            2.709055743173     1.416470288191    -0.283963593980    12.000000000000
         C            4.100055743173     1.647470288191    -0.513963593980    12.000000000000
         C            2.330055743173     2.208470288191     0.829036406020    12.000000000000
         C            4.502055743173     2.535470288191     0.442036406020    12.000000000000
         C            0.449055743173     0.633470288191    -0.409963593980    12.000000000000
         C            0.101055743173     1.426470288191     0.691036406020    12.000000000000
         C            1.743055743173     0.617470288191    -0.902963593980    12.000000000000
         C            1.038055743173     2.222470288191     1.323036406020    12.000000000000
         N            3.447055743173     2.877470288191     1.245036406020    14.003074004430
         H           -0.290944256827     0.030470288191    -0.899963593980     1.007825032230
         H           -0.924944256827     1.428470288191     1.041036406020     1.007825032230
         H            1.998055743173     0.008470288191    -1.748963593980     1.007825032230
         H            0.771055743173     2.851470288191     2.162036406020     1.007825032230
         H            4.663055743173    -0.039529711809    -1.646963593980     1.007825032230
         H            5.975055743173     1.025470288191    -1.203963593980     1.007825032230
         H            5.504055743173     2.933470288191     0.535036406020     1.007825032230
         H            3.493055743173     3.552470288191     2.000036406020     1.007825032230
         H            4.920345743173     1.469920288191    -2.558283593980     1.007825032230
         C           -2.338944256827    -1.624529711809    -1.310963593980    12.000000000000
         C           -2.791944256827    -2.024529711809    -2.710963593980    12.000000000000
         C           -3.252944256827    -2.085529711809    -0.211963593980    12.000000000000
         C           -4.578944256827    -2.377529711809    -0.230963593980    12.000000000000
         C           -3.847944256827    -2.706529711809     1.814036406020    12.000000000000
         N           -2.815944256827    -2.298529711809     1.082036406020    14.003074004430
         N           -4.926944256827    -2.761529711809     1.043036406020    14.003074004430
         H           -1.352944256827    -2.045529711809    -1.123963593980     1.007825032230
         H           -2.277944256827    -0.539529711809    -1.255963593980     1.007825032230
         H           -2.997944256827    -3.092529711809    -2.693963593980     1.007825032230
         H           -5.219944256827    -2.365529711809    -1.082963593980     1.007825032230
         H           -3.816944256827    -2.969529711809     2.867036406020     1.007825032230
         H           -5.838944256827    -3.096529711809     1.363036406020     1.007825032230
         H           -1.990731256827    -1.805739711809    -3.432203593980     1.007825032230
         H           -3.719242256827    -1.497329711809    -2.979623593980     1.007825032230

  Running in c1 symmetry.

  Rotational constants: A =      0.03497  B =      0.00491  C =      0.00450 [cm^-1]
  Rotational constants: A =   1048.28738  B =    147.13200  C =    134.89098 [MHz]
  Nuclear repulsion = 1049.858398545064574

  Charge       = 0
  Multiplicity = 1
  Electrons    = 122
  Nalpha       = 61
  Nbeta        = 61

  ==> Algorithm <==

  SCF Algorithm Type is PK.
  DIIS enabled.
  MOM disabled.
  Fractional occupation disabled.
  Guess Type is SAD.
  Energy threshold   = 1.00e-06
  Density threshold  = 1.00e-10
  Integral threshold = 0.00e+00

  ==> Primary Basis <==

  Basis Set: CC-PVDZ
    Blend: CC-PVDZ
    Number of shells: 153
    Number of basis function: 323
    Number of Cartesian functions: 340
    Spherical Harmonics?: true
    Max angular momentum: 2

  ==> Pre-Iterations <==

   -------------------------------------------------------
    Irrep   Nso     Nmo     Nalpha   Nbeta   Ndocc  Nsocc
   -------------------------------------------------------
     A        323     323       0       0       0       0
   -------------------------------------------------------
    Total     323     323      61      61      61       0
   -------------------------------------------------------

  ==> Integral Setup <==

  Using integral reordering PK algorithm.
  Sizing the integral batches needed.
  Building batch lookup table.
   Calculation information:
      Number of atoms:                  34
      Number of AO shells:             153
      Number of primitives:            459
      Number of atomic orbitals:       340
      Number of basis functions:       323

      Integral cutoff                 1.00e-12
      Number of threads:                 1

	Batch   1 pq = [       0,    9405] index = [             0,44231715] size =     44231715
	Batch   2 pq = [    9405,   13301] index = [      44231715,88464951] size =     44233236
	Batch   3 pq = [   13301,   16290] index = [      88464951,132690195] size =     44225244
	Batch   4 pq = [   16290,   18810] index = [     132690195,176917455] size =     44227260
	Batch   5 pq = [   18810,   21030] index = [     176917455,221140965] size =     44223510
	Batch   6 pq = [   21030,   23037] index = [     221140965,265363203] size =     44222238
	Batch   7 pq = [   23037,   24883] index = [     265363203,309594286] size =     44231083
	Batch   8 pq = [   24883,   26601] index = [     309594286,353819901] size =     44225615
	Batch   9 pq = [   26601,   28214] index = [     353819901,398029005] size =     44209104
	Batch  10 pq = [   28214,   29740] index = [     398029005,442248670] size =     44219665
	Batch  11 pq = [   29740,   31191] index = [     442248670,486454836] size =     44206166
	Batch  12 pq = [   31191,   32578] index = [     486454836,530679331] size =     44224495
	Batch  13 pq = [   32578,   33908] index = [     530679331,574893186] size =     44213855
	Batch  14 pq = [   33908,   35188] index = [     574893186,619115266] size =     44222080
	Batch  15 pq = [   35188,   36423] index = [     619115266,663335676] size =     44220410
	Batch  16 pq = [   36423,   37617] index = [     663335676,707538153] size =     44202477
	Batch  17 pq = [   37617,   38775] index = [     707538153,751769700] size =     44231547
	Batch  18 pq = [   38775,   39899] index = [     751769700,795985050] size =     44215350
	Batch  19 pq = [   39899,   40992] index = [     795985050,840192528] size =     44207478
	Batch  20 pq = [   40992,   42057] index = [     840192528,884416653] size =     44224125
	Batch  21 pq = [   42057,   43095] index = [     884416653,928611060] size =     44194407
	Batch  22 pq = [   43095,   44109] index = [     928611060,972823995] size =     44212935
	Batch  23 pq = [   44109,   45100] index = [     972823995,1017027550] size =     44203555
	Batch  24 pq = [   45100,   46070] index = [    1017027550,1061245485] size =     44217935
	Batch  25 pq = [   46070,   47020] index = [    1061245485,1105463710] size =     44218225
	Batch  26 pq = [   47020,   47951] index = [    1105463710,1149673176] size =     44209466
	Batch  27 pq = [   47951,   48864] index = [    1149673176,1193869680] size =     44196504
	Batch  28 pq = [   48864,   49761] index = [    1193869680,1238103441] size =     44233761
	Batch  29 pq = [   49761,   50642] index = [    1238103441,1282331403] size =     44227962
	Batch  30 pq = [   50642,   51508] index = [    1282331403,1326562786] size =     44231383
	Batch  31 pq = [   51508,   52326] index = [    1326562786,1369031301] size =     42468515
  Task number: 124
  Buffer size: 11059200
  Buffer per thread: 2
  We computed 53280258 shell quartets total.
  Whereas there are 69401871 unique shell quartets.

  ==> DiskJK: Disk-Based J/K Matrices <==

    J tasked:                  Yes
    K tasked:                  Yes
    wK tasked:                  No
    Memory [MiB]:              375
    Schwarz Cutoff:          1E-12

    OpenMP threads:              1

  Minimum eigenvalue in the overlap matrix is 2.3235253550E-04.
  Using Symmetric Orthogonalization.

  SCF Guess: Superposition of Atomic Densities via on-the-fly atomic UHF.

  ==> Iterations <==

                        Total Energy        Delta E     RMS |[F,P]|

   @RHF iter SAD:  -703.02122883052880   -7.03021e+02   0.00000e+00
   @RHF iter   1:  -703.06960306421502   -4.83742e-02   2.28035e-03 DIIS
   @RHF iter   2:  -703.36797072263846   -2.98368e-01   1.12361e-03 DIIS
   @RHF iter   3:  -703.43261759361098   -6.46469e-02   3.11378e-04 DIIS
   @RHF iter   4:  -703.43891110761990   -6.29351e-03   1.25299e-04 DIIS
   @RHF iter   5:  -703.43984559913372   -9.34492e-04   1.87633e-05 DIIS
   @RHF iter   6:  -703.43988839217627   -4.27930e-05   9.08897e-06 DIIS
   @RHF iter   7:  -703.43989755411349   -9.16194e-06   3.53996e-06 DIIS
   @RHF iter   8:  -703.43989988899955   -2.33489e-06   1.33976e-06 DIIS
   @RHF iter   9:  -703.43990032538557   -4.36386e-07   6.04185e-07 DIIS
   @RHF iter  10:  -703.43990039781715   -7.24316e-08   2.54149e-07 DIIS
   @RHF iter  11:  -703.43990041640893   -1.85918e-08   1.11911e-07 DIIS
   @RHF iter  12:  -703.43990041947256   -3.06363e-09   4.80756e-08 DIIS
   @RHF iter  13:  -703.43990041997176   -4.99199e-10   1.83523e-08 DIIS
   @RHF iter  14:  -703.43990042004566   -7.38964e-11   7.35983e-09 DIIS
   @RHF iter  15:  -703.43990042004702   -1.36424e-12   3.09160e-09 DIIS
   @RHF iter  16:  -703.43990042005692   -9.89075e-12   1.41566e-09 DIIS
   @RHF iter  17:  -703.43990042006317   -6.25278e-12   5.73850e-10 DIIS
   @RHF iter  18:  -703.43990042004839    1.47793e-11   1.79435e-10 DIIS
   @RHF iter  19:  -703.43990042005908   -1.06866e-11   8.99087e-11 DIIS
  Energy and wave function converged.

  ==> Post-Iterations <==

    Orbital Energies [Eh]
    ---------------------

    Doubly Occupied:

       1A    -15.619628     2A    -15.595194     3A    -15.526036
       4A    -11.290491     5A    -11.257207     6A    -11.253942
       7A    -11.246621     8A    -11.237503     9A    -11.221515
      10A    -11.220952    11A    -11.219929    12A    -11.219524
      13A    -11.219173    14A    -11.218800    15A    -11.210555
      16A    -11.209391    17A    -11.208238    18A     -1.339339
      19A     -1.291422    20A     -1.150817    21A     -1.121922
      22A     -1.068167    23A     -1.053814    24A     -0.991578
      25A     -0.982898    26A     -0.979560    27A     -0.925854
      28A     -0.864869    29A     -0.832079    30A     -0.808926
      31A     -0.797336    32A     -0.755586    33A     -0.748044
      34A     -0.738587    35A     -0.714362    36A     -0.655719
      37A     -0.634967    38A     -0.620480    39A     -0.601497
      40A     -0.596441    41A     -0.594228    42A     -0.587532
      43A     -0.586143    44A     -0.583043    45A     -0.580547
      46A     -0.559945    47A     -0.546989    48A     -0.534611
      49A     -0.518017    50A     -0.500393    51A     -0.496947
      52A     -0.488134    53A     -0.478338    54A     -0.463259
      55A     -0.454090    56A     -0.407206    57A     -0.374822
      58A     -0.366131    59A     -0.308040    60A     -0.287434
      61A     -0.266588

    Virtual:

      62A      0.134261    63A      0.174659    64A      0.177739
      65A      0.185053    66A      0.186572    67A      0.190857
      68A      0.197254    69A      0.211119    70A      0.221473
      71A      0.227122    72A      0.229893    73A      0.231842
      74A      0.240217    75A      0.250510    76A      0.262154
      77A      0.269833    78A      0.282366    79A      0.288119
      80A      0.295927    81A      0.299670    82A      0.316383
      83A      0.348279    84A      0.374185    85A      0.382599
      86A      0.394539    87A      0.400053    88A      0.413003
      89A      0.414381    90A      0.424494    91A      0.452150
      92A      0.458104    93A      0.477642    94A      0.489671
      95A      0.492773    96A      0.503760    97A      0.517711
      98A      0.519359    99A      0.601584   100A      0.603775
     101A      0.613338   102A      0.616886   103A      0.643127
     104A      0.650167   105A      0.654192   106A      0.660980
     107A      0.677521   108A      0.686132   109A      0.699044
     110A      0.707339   111A      0.711638   112A      0.714699
     113A      0.724750   114A      0.735783   115A      0.743485
     116A      0.748480   117A      0.751607   118A      0.752647
     119A      0.755138   120A      0.768731   121A      0.772942
     122A      0.783190   123A      0.793561   124A      0.799425
     125A      0.808105   126A      0.809962   127A      0.817917
     128A      0.839770   129A      0.845715   130A      0.855728
     131A      0.862991   132A      0.874447   133A      0.875894
     134A      0.886118   135A      0.891853   136A      0.898330
     137A      0.899892   138A      0.902581   139A      0.917275
     140A      0.921701   141A      0.926326   142A      0.939159
     143A      0.946052   144A      0.952806   145A      0.958451
     146A      0.966023   147A      0.970983   148A      0.980793
     149A      0.986330   150A      0.993422   151A      1.015837
     152A      1.022148   153A      1.039840   154A      1.053227
     155A      1.060947   156A      1.073504   157A      1.075895
     158A      1.097289   159A      1.107431   160A      1.117400
     161A      1.143717   162A      1.144015   163A      1.149520
     164A      1.152768   165A      1.167550   166A      1.176822
     167A      1.180255   168A      1.210215   169A      1.223429
     170A      1.234225   171A      1.239621   172A      1.241791
     173A      1.259119   174A      1.262491   175A      1.279978
     176A      1.287587   177A      1.297387   178A      1.300325
     179A      1.313840   180A      1.322851   181A      1.339620
     182A      1.342712   183A      1.350257   184A      1.369670
     185A      1.383724   186A      1.412222   187A      1.436444
     188A      1.446728   189A      1.456709   190A      1.462170
     191A      1.495269   192A      1.505982   193A      1.522429
     194A      1.540709   195A      1.554145   196A      1.585714
     197A      1.589942   198A      1.619109   199A      1.621104
     200A      1.641035   201A      1.656128   202A      1.659984
     203A      1.675297   204A      1.681221   205A      1.697620
     206A      1.711412   207A      1.716254   208A      1.748541
     209A      1.770133   210A      1.773705   211A      1.780280
     212A      1.782879   213A      1.799004   214A      1.813882
     215A      1.822866   216A      1.831136   217A      1.834192
     218A      1.840603   219A      1.881963   220A      1.892596
     221A      1.895745   222A      1.898629   223A      1.911399
     224A      1.915126   225A      1.920753   226A      1.929790
     227A      1.940840   228A      1.941853   229A      1.947690
     230A      1.955741   231A      1.964432   232A      1.974110
     233A      1.976582   234A      1.982952   235A      1.990943
     236A      2.006806   237A      2.014119   238A      2.016241
     239A      2.021087   240A      2.025879   241A      2.054847
     242A      2.065923   243A      2.074446   244A      2.083012
     245A      2.096765   246A      2.102514   247A      2.106567
     248A      2.115884   249A      2.123940   250A      2.125838
     251A      2.138646   252A      2.140953   253A      2.164184
     254A      2.174393   255A      2.181050   256A      2.191850
     257A      2.210456   258A      2.221376   259A      2.245495
     260A      2.263645   261A      2.271091   262A      2.284967
     263A      2.296216   264A      2.313665   265A      2.326943
     266A      2.335951   267A      2.352355   268A      2.367832
     269A      2.368447   270A      2.381300   271A      2.417099
     272A      2.424014   273A      2.441515   274A      2.451121
     275A      2.467657   276A      2.478930   277A      2.489365
     278A      2.522936   279A      2.549894   280A      2.566064
     281A      2.596473   282A      2.610431   283A      2.619820
     284A      2.626276   285A      2.648864   286A      2.674140
     287A      2.688937   288A      2.695273   289A      2.713099
     290A      2.748200   291A      2.758606   292A      2.773078
     293A      2.776981   294A      2.797182   295A      2.798431
     296A      2.809364   297A      2.818689   298A      2.829582
     299A      2.844799   300A      2.869440   301A      2.879780
     302A      2.896276   303A      2.900808   304A      2.919588
     305A      2.922875   306A      2.941728   307A      2.975365
     308A      2.989661   309A      3.021966   310A      3.046352
     311A      3.070437   312A      3.079844   313A      3.097021
     314A      3.136348   315A      3.165941   316A      3.226647
     317A      3.248497   318A      3.334286   319A      3.394597
     320A      3.477252   321A      3.757502   322A      3.790514
     323A      3.980620

    Final Occupation by Irrep:
              A
    DOCC [    61 ]

  @RHF Final Energy:  -703.43990042005908

   => Energetics <=

    Nuclear Repulsion Energy =           1049.8583985450645741
    One-Electron Energy =               -3038.1337996035017568
    Two-Electron Energy =                1284.8355006383781074
    Total Energy =                       -703.4399004200590753

Computation Completed

Properties will be evaluated at   0.000000,   0.000000,   0.000000 [a0]

Properties computed using the SCF density matrix

  Nuclear Dipole Moment: [e a0]
     X:    -1.0242      Y:    -3.8856      Z:   -10.0019

  Electronic Dipole Moment: [e a0]
     X:     0.0682      Y:     3.9820      Z:    10.4908

  Dipole Moment: [e a0]
     X:    -0.9560      Y:     0.0964      Z:     0.4889     Total:     1.0781

  Dipole Moment: [D]
     X:    -2.4299      Y:     0.2449      Z:     1.2427     Total:     2.7402

*** tstop() called on ds3 at Mon Apr 27 12:58:44 2020
Module time:
	user time   =     575.11 seconds =       9.59 minutes
	system time =     258.91 seconds =       4.32 minutes
	total time  =        842 seconds =      14.03 minutes
Total time:
	user time   =     575.11 seconds =       9.59 minutes
	system time =     258.91 seconds =       4.32 minutes
	total time  =        842 seconds =      14.03 minutes
                                     G D M A

                                 by Anthony Stone

                           version 2.2.06, 22 June 2011

               Distributed Multipoles from Gaussian wavefunctions

Starting at 12:58:44 on 27 Apr 2020

Using SCF density matrix from file ./SSI/SSI-035TRP-045HIE-1-dimer.test.3958.fchk

                         Distributed Multipole Analysis

Standard DMA

Positions and radii in angstrom
Multipole moments in atomic units, ea_0^k for rank k

C          x =  4.944056  y =  1.006470  z = -1.560964 angstrom
           Maximum rank =  0   Radius =  0.650 angstrom
                   Q00  =  -0.213363

C          x =  2.709056  y =  1.416470  z = -0.283964 angstrom
           Maximum rank =  0   Radius =  0.650 angstrom
                   Q00  =  -0.049483

C          x =  4.100056  y =  1.647470  z = -0.513964 angstrom
           Maximum rank =  0   Radius =  0.650 angstrom
                   Q00  =  -0.123838

C          x =  2.330056  y =  2.208470  z =  0.829036 angstrom
           Maximum rank =  0   Radius =  0.650 angstrom
                   Q00  =   0.297335

C          x =  4.502056  y =  2.535470  z =  0.442036 angstrom
           Maximum rank =  0   Radius =  0.650 angstrom
                   Q00  =   0.068155

C          x =  0.449056  y =  0.633470  z = -0.409964 angstrom
           Maximum rank =  0   Radius =  0.650 angstrom
                   Q00  =  -0.062300

C          x =  0.101056  y =  1.426470  z =  0.691036 angstrom
           Maximum rank =  0   Radius =  0.650 angstrom
                   Q00  =  -0.076251

C          x =  1.743056  y =  0.617470  z = -0.902964 angstrom
           Maximum rank =  0   Radius =  0.650 angstrom
                   Q00  =  -0.100812

C          x =  1.038056  y =  2.222470  z =  1.323036 angstrom
           Maximum rank =  0   Radius =  0.650 angstrom
                   Q00  =  -0.121999

N          x =  3.447056  y =  2.877470  z =  1.245036 angstrom
           Maximum rank =  0   Radius =  0.650 angstrom
                   Q00  =  -0.487598

H          x = -0.290944  y =  0.030470  z = -0.899964 angstrom
           Maximum rank =  0   Radius =  0.325 angstrom
                   Q00  =   0.058107

H          x = -0.924944  y =  1.428470  z =  1.041036 angstrom
           Maximum rank =  0   Radius =  0.325 angstrom
                   Q00  =   0.063507

H          x =  1.998056  y =  0.008470  z = -1.748964 angstrom
           Maximum rank =  0   Radius =  0.325 angstrom
                   Q00  =   0.063485

H          x =  0.771056  y =  2.851470  z =  2.162036 angstrom
           Maximum rank =  0   Radius =  0.325 angstrom
                   Q00  =   0.070090

H          x =  4.663056  y = -0.039530  z = -1.646964 angstrom
           Maximum rank =  0   Radius =  0.325 angstrom
                   Q00  =   0.102567

H          x =  5.975056  y =  1.025470  z = -1.203964 angstrom
           Maximum rank =  0   Radius =  0.325 angstrom
                   Q00  =   0.099276

H          x =  5.504056  y =  2.933470  z =  0.535036 angstrom
           Maximum rank =  0   Radius =  0.325 angstrom
                   Q00  =   0.097170

H          x =  3.493056  y =  3.552470  z =  2.000036 angstrom
           Maximum rank =  0   Radius =  0.325 angstrom
                   Q00  =   0.216663

H          x =  4.920346  y =  1.469920  z = -2.558284 angstrom
           Maximum rank =  0   Radius =  0.325 angstrom
                   Q00  =   0.097057

C          x = -2.338944  y = -1.624530  z = -1.310964 angstrom
           Maximum rank =  0   Radius =  0.650 angstrom
                   Q00  =  -0.033847

C          x = -2.791944  y = -2.024530  z = -2.710964 angstrom
           Maximum rank =  0   Radius =  0.650 angstrom
                   Q00  =  -0.235280

C          x = -3.252944  y = -2.085530  z = -0.211964 angstrom
           Maximum rank =  0   Radius =  0.650 angstrom
                   Q00  =   0.229135

C          x = -4.578944  y = -2.377530  z = -0.230964 angstrom
           Maximum rank =  0   Radius =  0.650 angstrom
                   Q00  =  -0.009240

C          x = -3.847944  y = -2.706530  z =  1.814036 angstrom
           Maximum rank =  0   Radius =  0.650 angstrom
                   Q00  =   0.460979

N          x = -2.815944  y = -2.298530  z =  1.082036 angstrom
           Maximum rank =  0   Radius =  0.650 angstrom
                   Q00  =  -0.779726

N          x = -4.926944  y = -2.761530  z =  1.043036 angstrom
           Maximum rank =  0   Radius =  0.650 angstrom
                   Q00  =  -0.482168

H          x = -1.352944  y = -2.045530  z = -1.123964 angstrom
           Maximum rank =  0   Radius =  0.325 angstrom
                   Q00  =   0.082143

H          x = -2.277944  y = -0.539530  z = -1.255964 angstrom
           Maximum rank =  0   Radius =  0.325 angstrom
                   Q00  =   0.074152

H          x = -2.997944  y = -3.092530  z = -2.693964 angstrom
           Maximum rank =  0   Radius =  0.325 angstrom
                   Q00  =   0.080653

H          x = -5.219944  y = -2.365530  z = -1.082964 angstrom
           Maximum rank =  0   Radius =  0.325 angstrom
                   Q00  =   0.101749

H          x = -3.816944  y = -2.969530  z =  2.867036 angstrom
           Maximum rank =  0   Radius =  0.325 angstrom
                   Q00  =   0.123393

H          x = -5.838944  y = -3.096530  z =  1.363036 angstrom
           Maximum rank =  0   Radius =  0.325 angstrom
                   Q00  =   0.221160

H          x = -1.990731  y = -1.805740  z = -3.432204 angstrom
           Maximum rank =  0   Radius =  0.325 angstrom
                   Q00  =   0.092630

H          x = -3.719242  y = -1.497330  z = -2.979624 angstrom
           Maximum rank =  0   Radius =  0.325 angstrom
                   Q00  =   0.076497

Total multipoles referred to origin at
           x =   0.000000,  y =    0.000000,  z =    0.000000 angstrom
                   Q00  =  -0.000000

Finished at 12:58:44 on 27 Apr 2020

  DMA results are available in the Python driver through the
	  variable('DMA DISTRIBUTED MULTIPOLES')
  and
	  variable('DMA TOTAL MULTIPOLES')
  commands.

    Psi4 stopped on: Monday, 27 April 2020 12:58PM
    Psi4 wall time for execution: 0:14:02.36

*** Psi4 exiting successfully. Buy a developer a beer!
