                               Psi4 1.3.2 release

  ==> Input File <==

--------------------------------------------------------------------------
import numpy as np
set {scf_type pk
basis cc-pvdz
d_convergence 10
gdma_switch   0
gdma_limit    0
gdma_origin   [ 0.0,  0.0,  0.0 ]
}
molecule test {
    units Angstrom
    -1 1
    --
    -1 1
    C               -2.208985862550533     1.614209077192188    -3.285825738607770
    C                0.763014137449467     0.631209077192189    -1.396825738607770
    C               -1.406985862550533     0.327209077192189    -1.162825738607770
    C               -1.203985862550533     1.059209077192189    -2.293825738607770
    N               -0.160985862550533     0.071209077192189    -0.619825738607770
    N                0.166014137449467     1.237209077192188    -2.428825738607769
    H                0.007014137449467    -0.414790922807811     0.262174261392230
    H                1.821014137449467     0.621209077192189    -1.205825738607770
    H               -2.361985862550533     0.033209077192189    -0.756825738607770
    H               -2.136985862550533     2.695209077192188    -3.255825738607770
    H               -3.189985862550533     1.327209077192189    -2.927825738607770
    H               -2.059295862550533     1.284459077192189    -4.324505738607770
    C                2.229014137449467    -1.401790922807812     1.970174261392230
    C                0.885014137449467    -1.136790922807811     2.622174261392230
    O               -0.102985862550533    -0.952790922807811     1.884174261392230
    O                0.818014137449467    -1.088790922807811     3.870174261392230
    H                2.917014137449467    -1.712790922807811     2.754174261392230
    H                2.620014137449467    -0.472790922807811     1.550174261392230
    H                2.192444137449467    -2.156350922807812     1.170609261392230

}
e, wfn = energy('scf', return_wfn=True)
gdma(wfn)
dmavals = variable('DMA DISTRIBUTED MULTIPOLES')
charges = np.array(dmavals)
print(charges)
np.save('SSI-124HIE-140GLU-1-dimer.npy', np.array(charges))--------------------------------------------------------------------------

*** tstart() called on ds3
*** at Tue Apr 28 02:58:35 2020

   => Loading Basis Set <=

    Name: CC-PVDZ
    Role: ORBITAL
    Keyword: BASIS
    atoms 1-4, 13-14  entry C          line   138 file /theoryfs2/ds/metcalf/miniconda2/envs/tf2gpu/share/psi4/basis/cc-pvdz.gbs
    atoms 5-6         entry N          line   168 file /theoryfs2/ds/metcalf/miniconda2/envs/tf2gpu/share/psi4/basis/cc-pvdz.gbs
    atoms 7-12, 17-19 entry H          line    22 file /theoryfs2/ds/metcalf/miniconda2/envs/tf2gpu/share/psi4/basis/cc-pvdz.gbs
    atoms 15-16       entry O          line   198 file /theoryfs2/ds/metcalf/miniconda2/envs/tf2gpu/share/psi4/basis/cc-pvdz.gbs

         ---------------------------------------------------------
                                   SCF
               by Justin Turney, Rob Parrish, Andy Simmonett
                          and Daniel G. A. Smith
                              RHF Reference
                        1 Threads,    500 MiB Core
         ---------------------------------------------------------

  ==> Geometry <==

    Molecular point group: c1
    Full point group: C1

    Geometry (in Angstrom), charge = -1, multiplicity = 1:

       Center              X                  Y                   Z               Mass
    ------------   -----------------  -----------------  -----------------  -----------------
         C           -2.208985862551     1.614209077192    -3.285825738608    12.000000000000
         C            0.763014137449     0.631209077192    -1.396825738608    12.000000000000
         C           -1.406985862551     0.327209077192    -1.162825738608    12.000000000000
         C           -1.203985862551     1.059209077192    -2.293825738608    12.000000000000
         N           -0.160985862551     0.071209077192    -0.619825738608    14.003074004430
         N            0.166014137449     1.237209077192    -2.428825738608    14.003074004430
         H            0.007014137449    -0.414790922808     0.262174261392     1.007825032230
         H            1.821014137449     0.621209077192    -1.205825738608     1.007825032230
         H           -2.361985862551     0.033209077192    -0.756825738608     1.007825032230
         H           -2.136985862551     2.695209077192    -3.255825738608     1.007825032230
         H           -3.189985862551     1.327209077192    -2.927825738608     1.007825032230
         H           -2.059295862551     1.284459077192    -4.324505738608     1.007825032230
         C            2.229014137449    -1.401790922808     1.970174261392    12.000000000000
         C            0.885014137449    -1.136790922808     2.622174261392    12.000000000000
         O           -0.102985862551    -0.952790922808     1.884174261392    15.994914619570
         O            0.818014137449    -1.088790922808     3.870174261392    15.994914619570
         H            2.917014137449    -1.712790922808     2.754174261392     1.007825032230
         H            2.620014137449    -0.472790922808     1.550174261392     1.007825032230
         H            2.192444137449    -2.156350922808     1.170609261392     1.007825032230

  Running in c1 symmetry.

  Rotational constants: A =      0.13448  B =      0.01554  C =      0.01423 [cm^-1]
  Rotational constants: A =   4031.72292  B =    465.91827  C =    426.61498 [MHz]
  Nuclear repulsion =  483.592694810331523

  Charge       = -1
  Multiplicity = 1
  Electrons    = 76
  Nalpha       = 38
  Nbeta        = 38

  ==> Algorithm <==

  SCF Algorithm Type is PK.
  DIIS enabled.
  MOM disabled.
  Fractional occupation disabled.
  Guess Type is SAD.
  Energy threshold   = 1.00e-06
  Density threshold  = 1.00e-10
  Integral threshold = 0.00e+00

  ==> Primary Basis <==

  Basis Set: CC-PVDZ
    Blend: CC-PVDZ
    Number of shells: 87
    Number of basis function: 185
    Number of Cartesian functions: 195
    Spherical Harmonics?: true
    Max angular momentum: 2

  ==> Pre-Iterations <==

   -------------------------------------------------------
    Irrep   Nso     Nmo     Nalpha   Nbeta   Ndocc  Nsocc
   -------------------------------------------------------
     A        185     185       0       0       0       0
   -------------------------------------------------------
    Total     185     185      38      38      38       0
   -------------------------------------------------------

  ==> Integral Setup <==

  Using integral reordering PK algorithm.
  Sizing the integral batches needed.
  Building batch lookup table.
   Calculation information:
      Number of atoms:                  19
      Number of AO shells:              87
      Number of primitives:            265
      Number of atomic orbitals:       195
      Number of basis functions:       185

      Integral cutoff                 1.00e-12
      Number of threads:                 1

	Batch   1 pq = [       0,    9405] index = [             0,44231715] size =     44231715
	Batch   2 pq = [    9405,   13301] index = [      44231715,88464951] size =     44233236
	Batch   3 pq = [   13301,   16290] index = [      88464951,132690195] size =     44225244
	Batch   4 pq = [   16290,   17205] index = [     132690195,148014615] size =     15324420
  Task number: 14
  Buffer size: 11059200
  Buffer per thread: 2
  We computed 5396489 shell quartets total.
  Whereas there are 7328706 unique shell quartets.

  ==> DiskJK: Disk-Based J/K Matrices <==

    J tasked:                  Yes
    K tasked:                  Yes
    wK tasked:                  No
    Memory [MiB]:              375
    Schwarz Cutoff:          1E-12

    OpenMP threads:              1

  Minimum eigenvalue in the overlap matrix is 1.2476246409E-03.
  Using Symmetric Orthogonalization.

  SCF Guess: Superposition of Atomic Densities via on-the-fly atomic UHF.

  ==> Iterations <==

                        Total Energy        Delta E     RMS |[F,P]|

   @RHF iter SAD:  -489.74105514562615   -4.89741e+02   0.00000e+00
   @RHF iter   1:  -490.85499008134093   -1.11393e+00   4.09967e-03 DIIS
   @RHF iter   2:  -491.07583055565743   -2.20840e-01   2.32111e-03 DIIS
   @RHF iter   3:  -491.14473813618315   -6.89076e-02   4.01304e-04 DIIS
   @RHF iter   4:  -491.14813839473948   -3.40026e-03   1.57611e-04 DIIS
   @RHF iter   5:  -491.14866512355150   -5.26729e-04   3.47818e-05 DIIS
   @RHF iter   6:  -491.14869279153828   -2.76680e-05   1.46368e-05 DIIS
   @RHF iter   7:  -491.14869823754725   -5.44601e-06   3.74296e-06 DIIS
   @RHF iter   8:  -491.14869909324455   -8.55697e-07   1.93651e-06 DIIS
   @RHF iter   9:  -491.14869931119074   -2.17946e-07   7.95452e-07 DIIS
   @RHF iter  10:  -491.14869935458324   -4.33925e-08   1.98671e-07 DIIS
   @RHF iter  11:  -491.14869935713102   -2.54778e-09   5.72788e-08 DIIS
   @RHF iter  12:  -491.14869935726938   -1.38357e-10   2.80780e-08 DIIS
   @RHF iter  13:  -491.14869935730241   -3.30260e-11   1.02402e-08 DIIS
   @RHF iter  14:  -491.14869935730576   -3.35376e-12   3.53213e-09 DIIS
   @RHF iter  15:  -491.14869935730621   -4.54747e-13   1.28879e-09 DIIS
   @RHF iter  16:  -491.14869935730576    4.54747e-13   4.45427e-10 DIIS
   @RHF iter  17:  -491.14869935730565    1.13687e-13   1.72724e-10 DIIS
   @RHF iter  18:  -491.14869935730621   -5.68434e-13   6.05863e-11 DIIS
  Energy and wave function converged.

  ==> Post-Iterations <==

    Orbital Energies [Eh]
    ---------------------

    Doubly Occupied:

       1A    -20.301996     2A    -20.289618     3A    -15.464660
       4A    -15.405668     5A    -11.163448     6A    -11.150039
       7A    -11.129119     8A    -11.125468     9A    -11.122622
      10A    -11.075991    11A     -1.200179    12A     -1.188578
      13A     -1.074985    14A     -1.015523    15A     -0.912057
      16A     -0.826149    17A     -0.825278    18A     -0.682389
      19A     -0.632053    20A     -0.612388    21A     -0.534585
      22A     -0.490754    23A     -0.480575    24A     -0.469118
      25A     -0.450595    26A     -0.440134    27A     -0.437631
      28A     -0.435226    29A     -0.420848    30A     -0.411041
      31A     -0.373580    32A     -0.338872    33A     -0.291367
      34A     -0.245606    35A     -0.221709    36A     -0.206288
      37A     -0.198650    38A     -0.186669

    Virtual:

      39A      0.292914    40A      0.301761    41A      0.320989
      42A      0.329907    43A      0.334927    44A      0.356445
      45A      0.378679    46A      0.386006    47A      0.398455
      48A      0.403312    49A      0.456814    50A      0.465353
      51A      0.479535    52A      0.521496    53A      0.547509
      54A      0.586196    55A      0.602769    56A      0.614720
      57A      0.675467    58A      0.712633    59A      0.731643
      60A      0.738297    61A      0.739136    62A      0.776810
      63A      0.807717    64A      0.812782    65A      0.825904
      66A      0.861285    67A      0.885216    68A      0.891368
      69A      0.902796    70A      0.922463    71A      0.932947
      72A      0.942932    73A      0.947903    74A      0.967826
      75A      0.983328    76A      0.999887    77A      1.008551
      78A      1.015418    79A      1.021912    80A      1.038207
      81A      1.063201    82A      1.073423    83A      1.076689
      84A      1.100899    85A      1.108134    86A      1.177551
      87A      1.188981    88A      1.211099    89A      1.212599
      90A      1.226036    91A      1.268152    92A      1.285837
      93A      1.287078    94A      1.319001    95A      1.323183
      96A      1.359077    97A      1.385829    98A      1.417610
      99A      1.435957   100A      1.451063   101A      1.486643
     102A      1.507749   103A      1.535172   104A      1.546783
     105A      1.570257   106A      1.577199   107A      1.602525
     108A      1.621587   109A      1.634867   110A      1.666095
     111A      1.703169   112A      1.710607   113A      1.734315
     114A      1.750549   115A      1.778727   116A      1.813691
     117A      1.818042   118A      1.826204   119A      1.890158
     120A      1.914064   121A      1.927706   122A      1.953763
     123A      2.001353   124A      2.014681   125A      2.033573
     126A      2.040540   127A      2.052373   128A      2.055991
     129A      2.075339   130A      2.090312   131A      2.107855
     132A      2.120814   133A      2.127073   134A      2.141979
     135A      2.180241   136A      2.202417   137A      2.233361
     138A      2.236271   139A      2.283207   140A      2.291624
     141A      2.319121   142A      2.328598   143A      2.378516
     144A      2.394306   145A      2.408593   146A      2.446841
     147A      2.475740   148A      2.508858   149A      2.536485
     150A      2.568672   151A      2.596837   152A      2.615884
     153A      2.636755   154A      2.662193   155A      2.713508
     156A      2.737921   157A      2.787129   158A      2.789797
     159A      2.859222   160A      2.864901   161A      2.894796
     162A      2.895808   163A      2.926541   164A      2.935270
     165A      2.957541   166A      2.979152   167A      2.991159
     168A      3.008902   169A      3.041312   170A      3.074295
     171A      3.188776   172A      3.222555   173A      3.258001
     174A      3.300066   175A      3.309647   176A      3.360003
     177A      3.426256   178A      3.580299   179A      3.620474
     180A      3.749668   181A      3.798896   182A      3.965022
     183A      4.043917   184A      4.093641   185A      4.173866

    Final Occupation by Irrep:
              A
    DOCC [    38 ]

  @RHF Final Energy:  -491.14869935730621

   => Energetics <=

    Nuclear Repulsion Energy =            483.5926948103315226
    One-Electron Energy =               -1641.8198736327046845
    Two-Electron Energy =                 667.0784794650669483
    Total Energy =                       -491.1486993573062136

Computation Completed

Properties will be evaluated at   0.000000,   0.000000,   0.000000 [a0]

Properties computed using the SCF density matrix

  Nuclear Dipole Moment: [e a0]
     X:    -0.1754      Y:     1.1156      Z:    -6.2761

  Electronic Dipole Moment: [e a0]
     X:    -0.1176      Y:    -0.4586      Z:     3.1582

  Dipole Moment: [e a0]
     X:    -0.2930      Y:     0.6571      Z:    -3.1179     Total:     3.1998

  Dipole Moment: [D]
     X:    -0.7447      Y:     1.6701      Z:    -7.9250     Total:     8.1332

*** tstop() called on ds3 at Tue Apr 28 02:59:39 2020
Module time:
	user time   =      43.94 seconds =       0.73 minutes
	system time =      21.88 seconds =       0.36 minutes
	total time  =         64 seconds =       1.07 minutes
Total time:
	user time   =      43.94 seconds =       0.73 minutes
	system time =      21.88 seconds =       0.36 minutes
	total time  =         64 seconds =       1.07 minutes
                                     G D M A

                                 by Anthony Stone

                           version 2.2.06, 22 June 2011

               Distributed Multipoles from Gaussian wavefunctions

Starting at 2:59:39 on 28 Apr 2020

Using SCF density matrix from file ./SSI/SSI-124HIE-140GLU-1-dimer.test.15547.fchk

                         Distributed Multipole Analysis

Standard DMA

Positions and radii in angstrom
Multipole moments in atomic units, ea_0^k for rank k

C          x = -2.208986  y =  1.614209  z = -3.285826 angstrom
           Maximum rank =  0   Radius =  0.650 angstrom
                   Q00  =  -0.186350

C          x =  0.763014  y =  0.631209  z = -1.396826 angstrom
           Maximum rank =  0   Radius =  0.650 angstrom
                   Q00  =   0.473723

C          x = -1.406986  y =  0.327209  z = -1.162826 angstrom
           Maximum rank =  0   Radius =  0.650 angstrom
                   Q00  =   0.059840

C          x = -1.203986  y =  1.059209  z = -2.293826 angstrom
           Maximum rank =  0   Radius =  0.650 angstrom
                   Q00  =   0.153703

N          x = -0.160986  y =  0.071209  z = -0.619826 angstrom
           Maximum rank =  0   Radius =  0.650 angstrom
                   Q00  =  -0.522212

N          x =  0.166014  y =  1.237209  z = -2.428826 angstrom
           Maximum rank =  0   Radius =  0.650 angstrom
                   Q00  =  -0.789492

H          x =  0.007014  y = -0.414791  z =  0.262174 angstrom
           Maximum rank =  0   Radius =  0.325 angstrom
                   Q00  =   0.337419

H          x =  1.821014  y =  0.621209  z = -1.205826 angstrom
           Maximum rank =  0   Radius =  0.325 angstrom
                   Q00  =   0.105822

H          x = -2.361986  y =  0.033209  z = -0.756826 angstrom
           Maximum rank =  0   Radius =  0.325 angstrom
                   Q00  =   0.079941

H          x = -2.136986  y =  2.695209  z = -3.255826 angstrom
           Maximum rank =  0   Radius =  0.325 angstrom
                   Q00  =   0.089922

H          x = -3.189986  y =  1.327209  z = -2.927826 angstrom
           Maximum rank =  0   Radius =  0.325 angstrom
                   Q00  =   0.082976

H          x = -2.059296  y =  1.284459  z = -4.324506 angstrom
           Maximum rank =  0   Radius =  0.325 angstrom
                   Q00  =   0.087970

C          x =  2.229014  y = -1.401791  z =  1.970174 angstrom
           Maximum rank =  0   Radius =  0.650 angstrom
                   Q00  =  -0.296503

C          x =  0.885014  y = -1.136791  z =  2.622174 angstrom
           Maximum rank =  0   Radius =  0.650 angstrom
                   Q00  =   0.952381

O          x = -0.102986  y = -0.952791  z =  1.884174 angstrom
           Maximum rank =  0   Radius =  0.650 angstrom
                   Q00  =  -0.944486

O          x =  0.818014  y = -1.088791  z =  3.870174 angstrom
           Maximum rank =  0   Radius =  0.650 angstrom
                   Q00  =  -0.904037

H          x =  2.917014  y = -1.712791  z =  2.754174 angstrom
           Maximum rank =  0   Radius =  0.325 angstrom
                   Q00  =   0.071150

H          x =  2.620014  y = -0.472791  z =  1.550174 angstrom
           Maximum rank =  0   Radius =  0.325 angstrom
                   Q00  =   0.080113

H          x =  2.192444  y = -2.156351  z =  1.170609 angstrom
           Maximum rank =  0   Radius =  0.325 angstrom
                   Q00  =   0.068121

Total multipoles referred to origin at
           x =   0.000000,  y =    0.000000,  z =    0.000000 angstrom
                   Q00  =  -1.000000

Finished at 2:59:39 on 28 Apr 2020

  DMA results are available in the Python driver through the
	  variable('DMA DISTRIBUTED MULTIPOLES')
  and
	  variable('DMA TOTAL MULTIPOLES')
  commands.

    Psi4 stopped on: Tuesday, 28 April 2020 02:59AM
    Psi4 wall time for execution: 0:01:04.25

*** Psi4 exiting successfully. Buy a developer a beer!
