                               Psi4 1.3.2 release

  ==> Input File <==

--------------------------------------------------------------------------
import numpy as np
set {scf_type pk
basis cc-pvdz
d_convergence 10
gdma_switch   0
gdma_limit    0
gdma_origin   [ 0.0,  0.0,  0.0 ]
}
molecule test {
    units Angstrom
    0 1
    --
    0 1
    C               -2.152306903492016    -0.480680452763484     1.406825829666182
    C               -0.742306903492015    -0.237680452763484    -0.675174170333818
    C               -1.510306903492016     0.363319547236516     0.320825829666182
    C               -0.135306903492016     0.521319547236516    -1.670174170333818
    C               -1.658306903492015     1.751319547236516     0.301825829666182
    C               -0.293306903492016     1.898319547236516    -1.686174170333818
    C               -1.056306903492016     2.517319547236516    -0.699174170333818
    O                0.309693096507984     2.621319547236516    -2.677174170333818
    H               -0.618306903492015    -1.313680452763484    -0.682174170333818
    H                0.456693096507984     0.043319547236516    -2.438174170333818
    H               -1.874306903492015    -0.071680452763484     2.379825829666182
    H               -1.746306903492016    -1.491680452763484     1.350825829666182
    H               -2.237306903492016     2.241319547236516     1.074825829666182
    H               -1.164306903492015     3.588319547236516    -0.697174170333818
    H                0.149693096507984     3.566319547236516    -2.575174170333818
    H               -3.249253903492016    -0.539660452763484     1.350000829666183
    C                1.495693096507984    -1.466680452763484     2.578825829666182
    C                1.591693096507985    -2.157680452763484     1.235825829666183
    O                0.826693096507985    -3.074680452763484     0.952825829666182
    N                2.534693096507985    -1.732680452763484     0.396825829666182
    H                0.694693096507985    -1.911680452763484     3.170825829666182
    H                1.255693096507984    -0.417680452763484     2.399825829666182
    H                2.613693096507984    -2.180680452763484    -0.505174170333818
    H                3.132693096507984    -0.958680452763484     0.640825829666182
    H                2.446973096507984    -1.538340452763484     3.126487829666182

}
e, wfn = energy('scf', return_wfn=True)
gdma(wfn)
dmavals = variable('DMA DISTRIBUTED MULTIPOLES')
charges = np.array(dmavals)
print(charges)
np.save('SSI-011TYR-102GLN-1-dimer.npy', np.array(charges))--------------------------------------------------------------------------

*** tstart() called on ds3
*** at Mon Apr 27 07:02:00 2020

   => Loading Basis Set <=

    Name: CC-PVDZ
    Role: ORBITAL
    Keyword: BASIS
    atoms 1-7, 17-18  entry C          line   138 file /theoryfs2/ds/metcalf/miniconda2/envs/tf2gpu/share/psi4/basis/cc-pvdz.gbs
    atoms 8, 19       entry O          line   198 file /theoryfs2/ds/metcalf/miniconda2/envs/tf2gpu/share/psi4/basis/cc-pvdz.gbs
    atoms 9-16, 21-25 entry H          line    22 file /theoryfs2/ds/metcalf/miniconda2/envs/tf2gpu/share/psi4/basis/cc-pvdz.gbs
    atoms 20          entry N          line   168 file /theoryfs2/ds/metcalf/miniconda2/envs/tf2gpu/share/psi4/basis/cc-pvdz.gbs

         ---------------------------------------------------------
                                   SCF
               by Justin Turney, Rob Parrish, Andy Simmonett
                          and Daniel G. A. Smith
                              RHF Reference
                        1 Threads,    500 MiB Core
         ---------------------------------------------------------

  ==> Geometry <==

    Molecular point group: c1
    Full point group: C1

    Geometry (in Angstrom), charge = 0, multiplicity = 1:

       Center              X                  Y                   Z               Mass
    ------------   -----------------  -----------------  -----------------  -----------------
         C           -2.152306903492    -0.480680452763     1.406825829666    12.000000000000
         C           -0.742306903492    -0.237680452763    -0.675174170334    12.000000000000
         C           -1.510306903492     0.363319547237     0.320825829666    12.000000000000
         C           -0.135306903492     0.521319547237    -1.670174170334    12.000000000000
         C           -1.658306903492     1.751319547237     0.301825829666    12.000000000000
         C           -0.293306903492     1.898319547237    -1.686174170334    12.000000000000
         C           -1.056306903492     2.517319547237    -0.699174170334    12.000000000000
         O            0.309693096508     2.621319547237    -2.677174170334    15.994914619570
         H           -0.618306903492    -1.313680452763    -0.682174170334     1.007825032230
         H            0.456693096508     0.043319547237    -2.438174170334     1.007825032230
         H           -1.874306903492    -0.071680452763     2.379825829666     1.007825032230
         H           -1.746306903492    -1.491680452763     1.350825829666     1.007825032230
         H           -2.237306903492     2.241319547237     1.074825829666     1.007825032230
         H           -1.164306903492     3.588319547237    -0.697174170334     1.007825032230
         H            0.149693096508     3.566319547237    -2.575174170334     1.007825032230
         H           -3.249253903492    -0.539660452763     1.350000829666     1.007825032230
         C            1.495693096508    -1.466680452763     2.578825829666    12.000000000000
         C            1.591693096508    -2.157680452763     1.235825829666    12.000000000000
         O            0.826693096508    -3.074680452763     0.952825829666    15.994914619570
         N            2.534693096508    -1.732680452763     0.396825829666    14.003074004430
         H            0.694693096508    -1.911680452763     3.170825829666     1.007825032230
         H            1.255693096508    -0.417680452763     2.399825829666     1.007825032230
         H            2.613693096508    -2.180680452763    -0.505174170334     1.007825032230
         H            3.132693096508    -0.958680452763     0.640825829666     1.007825032230
         H            2.446973096508    -1.538340452763     3.126487829666     1.007825032230

  Running in c1 symmetry.

  Rotational constants: A =      0.04294  B =      0.01647  C =      0.01361 [cm^-1]
  Rotational constants: A =   1287.17206  B =    493.79042  C =    407.90203 [MHz]
  Nuclear repulsion =  666.924011927063475

  Charge       = 0
  Multiplicity = 1
  Electrons    = 90
  Nalpha       = 45
  Nbeta        = 45

  ==> Algorithm <==

  SCF Algorithm Type is PK.
  DIIS enabled.
  MOM disabled.
  Fractional occupation disabled.
  Guess Type is SAD.
  Energy threshold   = 1.00e-06
  Density threshold  = 1.00e-10
  Integral threshold = 0.00e+00

  ==> Primary Basis <==

  Basis Set: CC-PVDZ
    Blend: CC-PVDZ
    Number of shells: 111
    Number of basis function: 233
    Number of Cartesian functions: 245
    Spherical Harmonics?: true
    Max angular momentum: 2

  ==> Pre-Iterations <==

   -------------------------------------------------------
    Irrep   Nso     Nmo     Nalpha   Nbeta   Ndocc  Nsocc
   -------------------------------------------------------
     A        233     233       0       0       0       0
   -------------------------------------------------------
    Total     233     233      45      45      45       0
   -------------------------------------------------------

  ==> Integral Setup <==

  Using integral reordering PK algorithm.
  Sizing the integral batches needed.
  Building batch lookup table.
   Calculation information:
      Number of atoms:                  25
      Number of AO shells:             111
      Number of primitives:            329
      Number of atomic orbitals:       245
      Number of basis functions:       233

      Integral cutoff                 1.00e-12
      Number of threads:                 1

	Batch   1 pq = [       0,    9405] index = [             0,44231715] size =     44231715
	Batch   2 pq = [    9405,   13301] index = [      44231715,88464951] size =     44233236
	Batch   3 pq = [   13301,   16290] index = [      88464951,132690195] size =     44225244
	Batch   4 pq = [   16290,   18810] index = [     132690195,176917455] size =     44227260
	Batch   5 pq = [   18810,   21030] index = [     176917455,221140965] size =     44223510
	Batch   6 pq = [   21030,   23037] index = [     221140965,265363203] size =     44222238
	Batch   7 pq = [   23037,   24883] index = [     265363203,309594286] size =     44231083
	Batch   8 pq = [   24883,   26601] index = [     309594286,353819901] size =     44225615
	Batch   9 pq = [   26601,   27261] index = [     353819901,371594691] size =     17774790
  Task number: 34
  Buffer size: 11059200
  Buffer per thread: 2
  We computed 18887111 shell quartets total.
  Whereas there are 19322436 unique shell quartets.

  ==> DiskJK: Disk-Based J/K Matrices <==

    J tasked:                  Yes
    K tasked:                  Yes
    wK tasked:                  No
    Memory [MiB]:              375
    Schwarz Cutoff:          1E-12

    OpenMP threads:              1

  Minimum eigenvalue in the overlap matrix is 3.2033647920E-04.
  Using Symmetric Orthogonalization.

  SCF Guess: Superposition of Atomic Densities via on-the-fly atomic UHF.

  ==> Iterations <==

                        Total Energy        Delta E     RMS |[F,P]|

   @RHF iter SAD:  -551.23187469638867   -5.51232e+02   0.00000e+00
   @RHF iter   1:  -552.30067530018891   -1.06880e+00   3.21064e-03 DIIS
   @RHF iter   2:  -552.55710642437487   -2.56431e-01   1.66811e-03 DIIS
   @RHF iter   3:  -552.61648173531205   -5.93753e-02   3.84375e-04 DIIS
   @RHF iter   4:  -552.62116372295827   -4.68199e-03   1.54830e-04 DIIS
   @RHF iter   5:  -552.62193813317799   -7.74410e-04   2.41013e-05 DIIS
   @RHF iter   6:  -552.62197649712903   -3.83640e-05   1.13396e-05 DIIS
   @RHF iter   7:  -552.62198308003144   -6.58290e-06   4.15060e-06 DIIS
   @RHF iter   8:  -552.62198442962426   -1.34959e-06   1.64545e-06 DIIS
   @RHF iter   9:  -552.62198461224841   -1.82624e-07   6.36121e-07 DIIS
   @RHF iter  10:  -552.62198464064898   -2.84006e-08   2.22523e-07 DIIS
   @RHF iter  11:  -552.62198464474989   -4.10091e-09   7.09539e-08 DIIS
   @RHF iter  12:  -552.62198464525079   -5.00904e-10   3.75661e-08 DIIS
   @RHF iter  13:  -552.62198464539108   -1.40290e-10   1.64747e-08 DIIS
   @RHF iter  14:  -552.62198464542985   -3.87672e-11   7.12333e-09 DIIS
   @RHF iter  15:  -552.62198464543678   -6.93490e-12   2.55488e-09 DIIS
   @RHF iter  16:  -552.62198464543576    1.02318e-12   8.49053e-10 DIIS
   @RHF iter  17:  -552.62198464543951   -3.75167e-12   3.16840e-10 DIIS
   @RHF iter  18:  -552.62198464544042   -9.09495e-13   8.62964e-11 DIIS
  Energy and wave function converged.

  ==> Post-Iterations <==

    Orbital Energies [Eh]
    ---------------------

    Doubly Occupied:

       1A    -20.583466     2A    -20.506806     3A    -15.587551
       4A    -11.348396     5A    -11.297445     6A    -11.239931
       7A    -11.238307     8A    -11.232699     9A    -11.232059
      10A    -11.230557    11A    -11.226064    12A    -11.221307
      13A     -1.397958    14A     -1.369920    15A     -1.214724
      16A     -1.147815    17A     -1.032641    18A     -1.014788
      19A     -0.998724    20A     -0.921453    21A     -0.842129
      22A     -0.798963    23A     -0.797393    24A     -0.728998
      25A     -0.725595    26A     -0.664520    27A     -0.654816
      28A     -0.637775    29A     -0.614428    30A     -0.603369
      31A     -0.584599    32A     -0.582760    33A     -0.570532
      34A     -0.564833    35A     -0.562118    36A     -0.555982
      37A     -0.521515    38A     -0.521070    39A     -0.492175
      40A     -0.481466    41A     -0.465224    42A     -0.411109
      43A     -0.405138    44A     -0.335855    45A     -0.300927

    Virtual:

      46A      0.131546    47A      0.156341    48A      0.164858
      49A      0.179955    50A      0.192397    51A      0.195987
      52A      0.208632    53A      0.226472    54A      0.239658
      55A      0.253062    56A      0.258127    57A      0.266975
      58A      0.270002    59A      0.288155    60A      0.299028
      61A      0.323377    62A      0.373450    63A      0.376697
      64A      0.384977    65A      0.424761    66A      0.457375
      67A      0.476343    68A      0.491010    69A      0.500795
      70A      0.515409    71A      0.541195    72A      0.592150
      73A      0.617972    74A      0.634399    75A      0.654361
      76A      0.659101    77A      0.681496    78A      0.687301
      79A      0.697678    80A      0.708103    81A      0.714390
      82A      0.720138    83A      0.730063    84A      0.734096
      85A      0.741647    86A      0.744943    87A      0.773086
      88A      0.775919    89A      0.782443    90A      0.791637
      91A      0.808496    92A      0.844463    93A      0.847318
      94A      0.857234    95A      0.873214    96A      0.881061
      97A      0.885808    98A      0.894801    99A      0.899286
     100A      0.903456   101A      0.912143   102A      0.926786
     103A      0.936315   104A      0.943203   105A      0.961160
     106A      0.974196   107A      0.995828   108A      1.006710
     109A      1.017417   110A      1.032580   111A      1.040494
     112A      1.065010   113A      1.081421   114A      1.116336
     115A      1.137096   116A      1.141175   117A      1.146528
     118A      1.158021   119A      1.176508   120A      1.209366
     121A      1.241559   122A      1.250758   123A      1.273140
     124A      1.286560   125A      1.288462   126A      1.312409
     127A      1.316092   128A      1.337745   129A      1.341979
     130A      1.359663   131A      1.365786   132A      1.376625
     133A      1.397332   134A      1.419376   135A      1.446047
     136A      1.471186   137A      1.500982   138A      1.506014
     139A      1.513056   140A      1.536075   141A      1.559330
     142A      1.615402   143A      1.630019   144A      1.654304
     145A      1.663780   146A      1.690115   147A      1.691982
     148A      1.735805   149A      1.746393   150A      1.759778
     151A      1.782191   152A      1.800630   153A      1.810932
     154A      1.818704   155A      1.856457   156A      1.870041
     157A      1.885217   158A      1.886974   159A      1.897920
     160A      1.909329   161A      1.923085   162A      1.926274
     163A      1.935595   164A      1.940698   165A      1.951848
     166A      1.962250   167A      1.970846   168A      1.989400
     169A      1.998955   170A      2.007750   171A      2.033104
     172A      2.042165   173A      2.055244   174A      2.072376
     175A      2.078587   176A      2.084656   177A      2.112371
     178A      2.134647   179A      2.145702   180A      2.150487
     181A      2.188962   182A      2.201907   183A      2.220033
     184A      2.229850   185A      2.257071   186A      2.265904
     187A      2.277126   188A      2.307884   189A      2.365212
     190A      2.372066   191A      2.403545   192A      2.446705
     193A      2.453745   194A      2.464482   195A      2.479759
     196A      2.502573   197A      2.510986   198A      2.532900
     199A      2.535572   200A      2.570605   201A      2.592358
     202A      2.611402   203A      2.617385   204A      2.640728
     205A      2.708570   206A      2.743456   207A      2.754164
     208A      2.781190   209A      2.797291   210A      2.810410
     211A      2.819288   212A      2.857669   213A      2.880557
     214A      2.901539   215A      2.964559   216A      3.006060
     217A      3.010734   218A      3.087969   219A      3.095287
     220A      3.123619   221A      3.141698   222A      3.248588
     223A      3.283576   224A      3.290466   225A      3.344997
     226A      3.515492   227A      3.528745   228A      3.569165
     229A      3.677844   230A      3.861065   231A      3.905608
     232A      3.960030   233A      4.194884

    Final Occupation by Irrep:
              A
    DOCC [    45 ]

  @RHF Final Energy:  -552.62198464544042

   => Energetics <=

    Nuclear Repulsion Energy =            666.9240119270634750
    One-Electron Energy =               -2076.1601943800797017
    Two-Electron Energy =                 856.6141978075758061
    Total Energy =                       -552.6219846454404205

Computation Completed

Properties will be evaluated at   0.000000,   0.000000,   0.000000 [a0]

Properties computed using the SCF density matrix

  Nuclear Dipole Moment: [e a0]
     X:    -0.1328      Y:    -0.9201      Z:     8.0486

  Electronic Dipole Moment: [e a0]
     X:     1.0549      Y:     2.3684      Z:    -7.5720

  Dipole Moment: [e a0]
     X:     0.9220      Y:     1.4483      Z:     0.4767     Total:     1.7818

  Dipole Moment: [D]
     X:     2.3436      Y:     3.6813      Z:     1.2115     Total:     4.5290

*** tstop() called on ds3 at Mon Apr 27 07:06:37 2020
Module time:
	user time   =     147.16 seconds =       2.45 minutes
	system time =      55.14 seconds =       0.92 minutes
	total time  =        277 seconds =       4.62 minutes
Total time:
	user time   =     147.16 seconds =       2.45 minutes
	system time =      55.14 seconds =       0.92 minutes
	total time  =        277 seconds =       4.62 minutes
                                     G D M A

                                 by Anthony Stone

                           version 2.2.06, 22 June 2011

               Distributed Multipoles from Gaussian wavefunctions

Starting at 7:6:37 on 27 Apr 2020

Using SCF density matrix from file ./SSI/SSI-011TYR-102GLN-1-dimer.test.17416.fchk

                         Distributed Multipole Analysis

Standard DMA

Positions and radii in angstrom
Multipole moments in atomic units, ea_0^k for rank k

C          x = -2.152307  y = -0.480680  z =  1.406826 angstrom
           Maximum rank =  0   Radius =  0.650 angstrom
                   Q00  =  -0.197292

C          x = -0.742307  y = -0.237680  z = -0.675174 angstrom
           Maximum rank =  0   Radius =  0.650 angstrom
                   Q00  =   0.060381

C          x = -1.510307  y =  0.363320  z =  0.320826 angstrom
           Maximum rank =  0   Radius =  0.650 angstrom
                   Q00  =  -0.148902

C          x = -0.135307  y =  0.521320  z = -1.670174 angstrom
           Maximum rank =  0   Radius =  0.650 angstrom
                   Q00  =  -0.113519

C          x = -1.658307  y =  1.751320  z =  0.301826 angstrom
           Maximum rank =  0   Radius =  0.650 angstrom
                   Q00  =  -0.063236

C          x = -0.293307  y =  1.898320  z = -1.686174 angstrom
           Maximum rank =  0   Radius =  0.650 angstrom
                   Q00  =   0.315727

C          x = -1.056307  y =  2.517320  z = -0.699174 angstrom
           Maximum rank =  0   Radius =  0.650 angstrom
                   Q00  =  -0.176805

O          x =  0.309693  y =  2.621320  z = -2.677174 angstrom
           Maximum rank =  0   Radius =  0.650 angstrom
                   Q00  =  -0.672590

H          x = -0.618307  y = -1.313680  z = -0.682174 angstrom
           Maximum rank =  0   Radius =  0.325 angstrom
                   Q00  =   0.081757

H          x =  0.456693  y =  0.043320  z = -2.438174 angstrom
           Maximum rank =  0   Radius =  0.325 angstrom
                   Q00  =   0.073743

H          x = -1.874307  y = -0.071680  z =  2.379826 angstrom
           Maximum rank =  0   Radius =  0.325 angstrom
                   Q00  =   0.086669

H          x = -1.746307  y = -1.491680  z =  1.350826 angstrom
           Maximum rank =  0   Radius =  0.325 angstrom
                   Q00  =   0.109870

H          x = -2.237307  y =  2.241320  z =  1.074826 angstrom
           Maximum rank =  0   Radius =  0.325 angstrom
                   Q00  =   0.066856

H          x = -1.164307  y =  3.588320  z = -0.697174 angstrom
           Maximum rank =  0   Radius =  0.325 angstrom
                   Q00  =   0.070239

H          x =  0.149693  y =  3.566320  z = -2.575174 angstrom
           Maximum rank =  0   Radius =  0.325 angstrom
                   Q00  =   0.404033

H          x = -3.249254  y = -0.539660  z =  1.350001 angstrom
           Maximum rank =  0   Radius =  0.325 angstrom
                   Q00  =   0.100531

C          x =  1.495693  y = -1.466680  z =  2.578826 angstrom
           Maximum rank =  0   Radius =  0.650 angstrom
                   Q00  =  -0.267778

C          x =  1.591693  y = -2.157680  z =  1.235826 angstrom
           Maximum rank =  0   Radius =  0.650 angstrom
                   Q00  =   0.828152

O          x =  0.826693  y = -3.074680  z =  0.952826 angstrom
           Maximum rank =  0   Radius =  0.650 angstrom
                   Q00  =  -0.793023

N          x =  2.534693  y = -1.732680  z =  0.396826 angstrom
           Maximum rank =  0   Radius =  0.650 angstrom
                   Q00  =  -0.542121

H          x =  0.694693  y = -1.911680  z =  3.170826 angstrom
           Maximum rank =  0   Radius =  0.325 angstrom
                   Q00  =   0.129420

H          x =  1.255693  y = -0.417680  z =  2.399826 angstrom
           Maximum rank =  0   Radius =  0.325 angstrom
                   Q00  =   0.111315

H          x =  2.613693  y = -2.180680  z = -0.505174 angstrom
           Maximum rank =  0   Radius =  0.325 angstrom
                   Q00  =   0.221686

H          x =  3.132693  y = -0.958680  z =  0.640826 angstrom
           Maximum rank =  0   Radius =  0.325 angstrom
                   Q00  =   0.208051

H          x =  2.446973  y = -1.538340  z =  3.126488 angstrom
           Maximum rank =  0   Radius =  0.325 angstrom
                   Q00  =   0.106835

Total multipoles referred to origin at
           x =   0.000000,  y =    0.000000,  z =    0.000000 angstrom
                   Q00  =  -0.000000

Finished at 7:6:37 on 27 Apr 2020

  DMA results are available in the Python driver through the
	  variable('DMA DISTRIBUTED MULTIPOLES')
  and
	  variable('DMA TOTAL MULTIPOLES')
  commands.

    Psi4 stopped on: Monday, 27 April 2020 07:06AM
    Psi4 wall time for execution: 0:04:36.94

*** Psi4 exiting successfully. Buy a developer a beer!
