                               Psi4 1.3.2 release

  ==> Input File <==

--------------------------------------------------------------------------
import numpy as np
set {scf_type pk
basis cc-pvdz
d_convergence 10
gdma_switch   0
gdma_limit    0
gdma_origin   [ 0.0,  0.0,  0.0 ]
}
molecule test {
    units Angstrom
    0 1
    --
    0 1
    C                0.224080169867524    -1.673357844181121    -2.857320470467936
    C               -0.021919830132476    -0.600357844181121     0.739679529532065
    C                0.690080169867524    -0.636357844181121    -0.470320470467935
    C               -0.096919830132476    -1.371357844181121    -1.413320470467935
    C               -1.205919830132476    -1.744357844181121    -0.758320470467935
    C                0.432080169867524     0.070642155818879     1.854679529532065
    C                1.649080169867524     0.690642155818879     1.748679529532065
    C                1.901080169867524     0.052642155818879    -0.553320470467935
    C                2.379080169867525     0.678642155818879     0.565679529532065
    N               -1.170919830132476    -1.287357844181121     0.523679529532065
    H               -1.939919830132476    -1.388357844181122     1.176679529532064
    H               -0.156919830132476     0.156642155818879     2.753679529532064
    H               -2.026919830132476    -2.304357844181121    -1.198320470467936
    H                2.045080169867524     1.225642155818879     2.601679529532065
    H                2.451080169867524     0.077642155818879    -1.480320470467935
    H                0.604080169867524    -0.767357844181121    -3.330320470467935
    H               -0.705919830132476    -1.909357844181121    -3.366320470467936
    H                3.328080169867524     1.192642155818879     0.522679529532065
    H                0.939492169867524    -2.497948844181122    -2.992358070467935
    C               -2.375919830132476     2.114642155818879    -0.029320470467935
    C               -1.591919830132476     3.127642155818878     0.810679529532065
    H               -2.754919830132476     2.588642155818879    -0.935320470467935
    H               -1.725919830132476     1.292642155818879    -0.317320470467935
    H               -3.206919830132476     1.702642155818879     0.541679529532065
    H               -1.365919830132476     2.665642155818879     1.772679529532065
    H               -2.182056830132475     4.039993155818878     0.982009529532065
    H               -0.643061830132476     3.369550455818878     0.309532529532065

}
e, wfn = energy('scf', return_wfn=True)
gdma(wfn)
dmavals = variable('DMA DISTRIBUTED MULTIPOLES')
charges = np.array(dmavals)
print(charges)
np.save('SSI-010TRP-081VAL-1-dimer.npy', np.array(charges))--------------------------------------------------------------------------

*** tstart() called on ds3
*** at Mon Apr 27 12:39:52 2020

   => Loading Basis Set <=

    Name: CC-PVDZ
    Role: ORBITAL
    Keyword: BASIS
    atoms 1-9, 20-21   entry C          line   138 file /theoryfs2/ds/metcalf/miniconda2/envs/tf2gpu/share/psi4/basis/cc-pvdz.gbs
    atoms 10           entry N          line   168 file /theoryfs2/ds/metcalf/miniconda2/envs/tf2gpu/share/psi4/basis/cc-pvdz.gbs
    atoms 11-19, 22-27 entry H          line    22 file /theoryfs2/ds/metcalf/miniconda2/envs/tf2gpu/share/psi4/basis/cc-pvdz.gbs

         ---------------------------------------------------------
                                   SCF
               by Justin Turney, Rob Parrish, Andy Simmonett
                          and Daniel G. A. Smith
                              RHF Reference
                        1 Threads,    500 MiB Core
         ---------------------------------------------------------

  ==> Geometry <==

    Molecular point group: c1
    Full point group: C1

    Geometry (in Angstrom), charge = 0, multiplicity = 1:

       Center              X                  Y                   Z               Mass
    ------------   -----------------  -----------------  -----------------  -----------------
         C            0.224080169868    -1.673357844181    -2.857320470468    12.000000000000
         C           -0.021919830132    -0.600357844181     0.739679529532    12.000000000000
         C            0.690080169868    -0.636357844181    -0.470320470468    12.000000000000
         C           -0.096919830132    -1.371357844181    -1.413320470468    12.000000000000
         C           -1.205919830132    -1.744357844181    -0.758320470468    12.000000000000
         C            0.432080169868     0.070642155819     1.854679529532    12.000000000000
         C            1.649080169868     0.690642155819     1.748679529532    12.000000000000
         C            1.901080169868     0.052642155819    -0.553320470468    12.000000000000
         C            2.379080169868     0.678642155819     0.565679529532    12.000000000000
         N           -1.170919830132    -1.287357844181     0.523679529532    14.003074004430
         H           -1.939919830132    -1.388357844181     1.176679529532     1.007825032230
         H           -0.156919830132     0.156642155819     2.753679529532     1.007825032230
         H           -2.026919830132    -2.304357844181    -1.198320470468     1.007825032230
         H            2.045080169868     1.225642155819     2.601679529532     1.007825032230
         H            2.451080169868     0.077642155819    -1.480320470468     1.007825032230
         H            0.604080169868    -0.767357844181    -3.330320470468     1.007825032230
         H           -0.705919830132    -1.909357844181    -3.366320470468     1.007825032230
         H            3.328080169868     1.192642155819     0.522679529532     1.007825032230
         H            0.939492169868    -2.497948844181    -2.992358070468     1.007825032230
         C           -2.375919830132     2.114642155819    -0.029320470468    12.000000000000
         C           -1.591919830132     3.127642155819     0.810679529532    12.000000000000
         H           -2.754919830132     2.588642155819    -0.935320470468     1.007825032230
         H           -1.725919830132     1.292642155819    -0.317320470468     1.007825032230
         H           -3.206919830132     1.702642155819     0.541679529532     1.007825032230
         H           -1.365919830132     2.665642155819     1.772679529532     1.007825032230
         H           -2.182056830132     4.039993155819     0.982009529532     1.007825032230
         H           -0.643061830132     3.369550455819     0.309532529532     1.007825032230

  Running in c1 symmetry.

  Rotational constants: A =      0.03362  B =      0.02559  C =      0.01944 [cm^-1]
  Rotational constants: A =   1008.01271  B =    767.16764  C =    582.88097 [MHz]
  Nuclear repulsion =  677.640506466705688

  Charge       = 0
  Multiplicity = 1
  Electrons    = 88
  Nalpha       = 44
  Nbeta        = 44

  ==> Algorithm <==

  SCF Algorithm Type is PK.
  DIIS enabled.
  MOM disabled.
  Fractional occupation disabled.
  Guess Type is SAD.
  Energy threshold   = 1.00e-06
  Density threshold  = 1.00e-10
  Integral threshold = 0.00e+00

  ==> Primary Basis <==

  Basis Set: CC-PVDZ
    Blend: CC-PVDZ
    Number of shells: 117
    Number of basis function: 243
    Number of Cartesian functions: 255
    Spherical Harmonics?: true
    Max angular momentum: 2

  ==> Pre-Iterations <==

   -------------------------------------------------------
    Irrep   Nso     Nmo     Nalpha   Nbeta   Ndocc  Nsocc
   -------------------------------------------------------
     A        243     243       0       0       0       0
   -------------------------------------------------------
    Total     243     243      44      44      44       0
   -------------------------------------------------------

  ==> Integral Setup <==

  Using integral reordering PK algorithm.
  Sizing the integral batches needed.
  Building batch lookup table.
   Calculation information:
      Number of atoms:                  27
      Number of AO shells:             117
      Number of primitives:            339
      Number of atomic orbitals:       255
      Number of basis functions:       243

      Integral cutoff                 1.00e-12
      Number of threads:                 1

	Batch   1 pq = [       0,    9405] index = [             0,44231715] size =     44231715
	Batch   2 pq = [    9405,   13301] index = [      44231715,88464951] size =     44233236
	Batch   3 pq = [   13301,   16290] index = [      88464951,132690195] size =     44225244
	Batch   4 pq = [   16290,   18810] index = [     132690195,176917455] size =     44227260
	Batch   5 pq = [   18810,   21030] index = [     176917455,221140965] size =     44223510
	Batch   6 pq = [   21030,   23037] index = [     221140965,265363203] size =     44222238
	Batch   7 pq = [   23037,   24883] index = [     265363203,309594286] size =     44231083
	Batch   8 pq = [   24883,   26601] index = [     309594286,353819901] size =     44225615
	Batch   9 pq = [   26601,   28214] index = [     353819901,398029005] size =     44209104
	Batch  10 pq = [   28214,   29646] index = [     398029005,439457481] size =     41428476
  Task number: 40
  Buffer size: 11059200
  Buffer per thread: 2
  We computed 25827382 shell quartets total.
  Whereas there are 23829156 unique shell quartets.
     8.39 percent of shell quartets recomputed by reordering.

  ==> DiskJK: Disk-Based J/K Matrices <==

    J tasked:                  Yes
    K tasked:                  Yes
    wK tasked:                  No
    Memory [MiB]:              375
    Schwarz Cutoff:          1E-12

    OpenMP threads:              1

  Minimum eigenvalue in the overlap matrix is 2.2309643727E-04.
  Using Symmetric Orthogonalization.

  SCF Guess: Superposition of Atomic Densities via on-the-fly atomic UHF.

  ==> Iterations <==

                        Total Energy        Delta E     RMS |[F,P]|

   @RHF iter SAD:  -479.28761289351695   -4.79288e+02   0.00000e+00
   @RHF iter   1:  -479.48288419525983   -1.95271e-01   2.64438e-03 DIIS
   @RHF iter   2:  -479.71918599035075   -2.36302e-01   1.18238e-03 DIIS
   @RHF iter   3:  -479.76257183722760   -4.33858e-02   2.99610e-04 DIIS
   @RHF iter   4:  -479.76630798497138   -3.73615e-03   1.35410e-04 DIIS
   @RHF iter   5:  -479.76691629519053   -6.08310e-04   2.01438e-05 DIIS
   @RHF iter   6:  -479.76694418664835   -2.78915e-05   9.20944e-06 DIIS
   @RHF iter   7:  -479.76694977433448   -5.58769e-06   3.64193e-06 DIIS
   @RHF iter   8:  -479.76695124733698   -1.47300e-06   1.44384e-06 DIIS
   @RHF iter   9:  -479.76695153939437   -2.92057e-07   6.24620e-07 DIIS
   @RHF iter  10:  -479.76695159485064   -5.54563e-08   2.80797e-07 DIIS
   @RHF iter  11:  -479.76695160855235   -1.37017e-08   1.09037e-07 DIIS
   @RHF iter  12:  -479.76695161050077   -1.94842e-09   3.49252e-08 DIIS
   @RHF iter  13:  -479.76695161063128   -1.30512e-10   9.66341e-09 DIIS
   @RHF iter  14:  -479.76695161064532   -1.40403e-11   4.23934e-09 DIIS
   @RHF iter  15:  -479.76695161064811   -2.78533e-12   1.50554e-09 DIIS
   @RHF iter  16:  -479.76695161064583    2.27374e-12   7.46728e-10 DIIS
   @RHF iter  17:  -479.76695161064441    1.42109e-12   3.48190e-10 DIIS
   @RHF iter  18:  -479.76695161064760   -3.18323e-12   1.37405e-10 DIIS
   @RHF iter  19:  -479.76695161064288    4.71800e-12   4.46941e-11 DIIS
  Energy and wave function converged.

  ==> Post-Iterations <==

    Orbital Energies [Eh]
    ---------------------

    Doubly Occupied:

       1A    -15.599310     2A    -11.259324     3A    -11.259112
       4A    -11.227154     5A    -11.227098     6A    -11.226640
       7A    -11.225156     8A    -11.216259     9A    -11.215930
      10A    -11.213688    11A    -11.210443    12A    -11.207077
      13A     -1.305749    14A     -1.136761    15A     -1.076374
      16A     -1.008531    17A     -1.002908    18A     -0.991342
      19A     -0.933079    20A     -0.843177    21A     -0.828272
      22A     -0.805602    23A     -0.756780    24A     -0.722779
      25A     -0.664406    26A     -0.643713    27A     -0.606366
      28A     -0.603387    29A     -0.593829    30A     -0.589265
      31A     -0.583053    32A     -0.566800    33A     -0.555384
      34A     -0.535178    35A     -0.526850    36A     -0.494401
      37A     -0.490336    38A     -0.478292    39A     -0.477079
      40A     -0.473230    41A     -0.465185    42A     -0.376106
      43A     -0.297718    44A     -0.278333

    Virtual:

      45A      0.128824    46A      0.167735    47A      0.175286
      48A      0.187438    49A      0.195225    50A      0.210276
      51A      0.224649    52A      0.227497    53A      0.234821
      54A      0.254969    55A      0.263464    56A      0.269018
      57A      0.270871    58A      0.272426    59A      0.289174
      60A      0.295230    61A      0.310742    62A      0.317779
      63A      0.377662    64A      0.386929    65A      0.405716
      66A      0.414210    67A      0.422587    68A      0.454799
      69A      0.476308    70A      0.484634    71A      0.502247
      72A      0.530213    73A      0.578939    74A      0.592580
      75A      0.599938    76A      0.605706    77A      0.628979
      78A      0.638919    79A      0.649300    80A      0.664111
      81A      0.676036    82A      0.683933    83A      0.698915
      84A      0.720640    85A      0.727000    86A      0.736407
      87A      0.741042    88A      0.745533    89A      0.766230
      90A      0.770955    91A      0.780112    92A      0.783256
      93A      0.794690    94A      0.812880    95A      0.832656
      96A      0.841103    97A      0.858303    98A      0.870359
      99A      0.876501   100A      0.885226   101A      0.889303
     102A      0.894825   103A      0.897655   104A      0.906770
     105A      0.914319   106A      0.922376   107A      0.932300
     108A      0.947229   109A      0.948393   110A      0.953988
     111A      0.959327   112A      0.979221   113A      0.994001
     114A      1.006570   115A      1.017132   116A      1.030041
     117A      1.069267   118A      1.087948   119A      1.104922
     120A      1.126037   121A      1.134015   122A      1.150160
     123A      1.151827   124A      1.160878   125A      1.173259
     126A      1.179733   127A      1.211717   128A      1.225345
     129A      1.234759   130A      1.247146   131A      1.260255
     132A      1.278615   133A      1.298754   134A      1.307710
     135A      1.316621   136A      1.337343   137A      1.350686
     138A      1.367169   139A      1.375347   140A      1.418049
     141A      1.443360   142A      1.490014   143A      1.497683
     144A      1.523574   145A      1.548999   146A      1.574900
     147A      1.590477   148A      1.603890   149A      1.639528
     150A      1.642643   151A      1.658194   152A      1.688353
     153A      1.691268   154A      1.706007   155A      1.728258
     156A      1.748421   157A      1.767944   158A      1.787380
     159A      1.804488   160A      1.823639   161A      1.839689
     162A      1.848735   163A      1.871898   164A      1.883749
     165A      1.890862   166A      1.904946   167A      1.908963
     168A      1.914792   169A      1.924478   170A      1.932086
     171A      1.937948   172A      1.950124   173A      1.953822
     174A      1.956686   175A      1.959682   176A      1.965486
     177A      1.970286   178A      1.988008   179A      1.995897
     180A      2.005843   181A      2.026912   182A      2.039100
     183A      2.062368   184A      2.084349   185A      2.087171
     186A      2.098335   187A      2.117933   188A      2.121555
     189A      2.127261   190A      2.131492   191A      2.153804
     192A      2.163077   193A      2.179252   194A      2.184207
     195A      2.201033   196A      2.241016   197A      2.257965
     198A      2.291304   199A      2.306534   200A      2.311482
     201A      2.323938   202A      2.327639   203A      2.344185
     204A      2.369533   205A      2.404390   206A      2.421410
     207A      2.459741   208A      2.465321   209A      2.476004
     210A      2.489471   211A      2.552292   212A      2.581485
     213A      2.599912   214A      2.609201   215A      2.627439
     216A      2.647541   217A      2.679645   218A      2.694617
     219A      2.723131   220A      2.776983   221A      2.777329
     222A      2.780498   223A      2.802498   224A      2.807644
     225A      2.820370   226A      2.843440   227A      2.859498
     228A      2.876722   229A      2.880417   230A      2.889754
     231A      2.935920   232A      2.969331   233A      2.983252
     234A      2.996542   235A      3.050309   236A      3.099681
     237A      3.108267   238A      3.158045   239A      3.224736
     240A      3.334063   241A      3.411768   242A      3.769108
     243A      3.999687

    Final Occupation by Irrep:
              A
    DOCC [    44 ]

  @RHF Final Energy:  -479.76695161064288

   => Energetics <=

    Nuclear Repulsion Energy =            677.6405064667056877
    One-Electron Energy =               -1993.2200077156344378
    Two-Electron Energy =                 835.8125496382859865
    Total Energy =                       -479.7669516106428773

Computation Completed

Properties will be evaluated at   0.000000,   0.000000,   0.000000 [a0]

Properties computed using the SCF density matrix

  Nuclear Dipole Moment: [e a0]
     X:    -6.8782      Y:     8.8575      Z:    -2.7761

  Electronic Dipole Moment: [e a0]
     X:     6.2061      Y:    -9.1700      Z:     2.8932

  Dipole Moment: [e a0]
     X:    -0.6721      Y:    -0.3126      Z:     0.1170     Total:     0.7504

  Dipole Moment: [D]
     X:    -1.7084      Y:    -0.7944      Z:     0.2975     Total:     1.9074

*** tstop() called on ds3 at Mon Apr 27 12:45:33 2020
Module time:
	user time   =     230.89 seconds =       3.85 minutes
	system time =      84.43 seconds =       1.41 minutes
	total time  =        341 seconds =       5.68 minutes
Total time:
	user time   =     230.89 seconds =       3.85 minutes
	system time =      84.43 seconds =       1.41 minutes
	total time  =        341 seconds =       5.68 minutes
                                     G D M A

                                 by Anthony Stone

                           version 2.2.06, 22 June 2011

               Distributed Multipoles from Gaussian wavefunctions

Starting at 12:45:33 on 27 Apr 2020

Using SCF density matrix from file ./SSI/SSI-010TRP-081VAL-1-dimer.test.3662.fchk

                         Distributed Multipole Analysis

Standard DMA

Positions and radii in angstrom
Multipole moments in atomic units, ea_0^k for rank k

C          x =  0.224080  y = -1.673358  z = -2.857320 angstrom
           Maximum rank =  0   Radius =  0.650 angstrom
                   Q00  =  -0.212092

C          x = -0.021920  y = -0.600358  z =  0.739680 angstrom
           Maximum rank =  0   Radius =  0.650 angstrom
                   Q00  =   0.252178

C          x =  0.690080  y = -0.636358  z = -0.470320 angstrom
           Maximum rank =  0   Radius =  0.650 angstrom
                   Q00  =  -0.053272

C          x = -0.096920  y = -1.371358  z = -1.413320 angstrom
           Maximum rank =  0   Radius =  0.650 angstrom
                   Q00  =  -0.130415

C          x = -1.205920  y = -1.744358  z = -0.758320 angstrom
           Maximum rank =  0   Radius =  0.650 angstrom
                   Q00  =   0.075309

C          x =  0.432080  y =  0.070642  z =  1.854680 angstrom
           Maximum rank =  0   Radius =  0.650 angstrom
                   Q00  =  -0.118932

C          x =  1.649080  y =  0.690642  z =  1.748680 angstrom
           Maximum rank =  0   Radius =  0.650 angstrom
                   Q00  =  -0.002606

C          x =  1.901080  y =  0.052642  z = -0.553320 angstrom
           Maximum rank =  0   Radius =  0.650 angstrom
                   Q00  =  -0.090272

C          x =  2.379080  y =  0.678642  z =  0.565680 angstrom
           Maximum rank =  0   Radius =  0.650 angstrom
                   Q00  =  -0.098485

N          x = -1.170920  y = -1.287358  z =  0.523680 angstrom
           Maximum rank =  0   Radius =  0.650 angstrom
                   Q00  =  -0.488131

H          x = -1.939920  y = -1.388358  z =  1.176680 angstrom
           Maximum rank =  0   Radius =  0.325 angstrom
                   Q00  =   0.214679

H          x = -0.156920  y =  0.156642  z =  2.753680 angstrom
           Maximum rank =  0   Radius =  0.325 angstrom
                   Q00  =   0.071510

H          x = -2.026920  y = -2.304358  z = -1.198320 angstrom
           Maximum rank =  0   Radius =  0.325 angstrom
                   Q00  =   0.098721

H          x =  2.045080  y =  1.225642  z =  2.601680 angstrom
           Maximum rank =  0   Radius =  0.325 angstrom
                   Q00  =   0.060617

H          x =  2.451080  y =  0.077642  z = -1.480320 angstrom
           Maximum rank =  0   Radius =  0.325 angstrom
                   Q00  =   0.067631

H          x =  0.604080  y = -0.767358  z = -3.330320 angstrom
           Maximum rank =  0   Radius =  0.325 angstrom
                   Q00  =   0.100642

H          x = -0.705920  y = -1.909358  z = -3.366320 angstrom
           Maximum rank =  0   Radius =  0.325 angstrom
                   Q00  =   0.103196

H          x =  3.328080  y =  1.192642  z =  0.522680 angstrom
           Maximum rank =  0   Radius =  0.325 angstrom
                   Q00  =   0.056180

H          x =  0.939492  y = -2.497949  z = -2.992358 angstrom
           Maximum rank =  0   Radius =  0.325 angstrom
                   Q00  =   0.101036

C          x = -2.375920  y =  2.114642  z = -0.029320 angstrom
           Maximum rank =  0   Radius =  0.650 angstrom
                   Q00  =  -0.249893

C          x = -1.591920  y =  3.127642  z =  0.810680 angstrom
           Maximum rank =  0   Radius =  0.650 angstrom
                   Q00  =  -0.224961

H          x = -2.754920  y =  2.588642  z = -0.935320 angstrom
           Maximum rank =  0   Radius =  0.325 angstrom
                   Q00  =   0.075213

H          x = -1.725920  y =  1.292642  z = -0.317320 angstrom
           Maximum rank =  0   Radius =  0.325 angstrom
                   Q00  =   0.094040

H          x = -3.206920  y =  1.702642  z =  0.541680 angstrom
           Maximum rank =  0   Radius =  0.325 angstrom
                   Q00  =   0.064224

H          x = -1.365920  y =  2.665642  z =  1.772680 angstrom
           Maximum rank =  0   Radius =  0.325 angstrom
                   Q00  =   0.075489

H          x = -2.182057  y =  4.039993  z =  0.982010 angstrom
           Maximum rank =  0   Radius =  0.325 angstrom
                   Q00  =   0.071952

H          x = -0.643062  y =  3.369550  z =  0.309533 angstrom
           Maximum rank =  0   Radius =  0.325 angstrom
                   Q00  =   0.086444

Total multipoles referred to origin at
           x =   0.000000,  y =    0.000000,  z =    0.000000 angstrom
                   Q00  =  -0.000000

Finished at 12:45:33 on 27 Apr 2020

  DMA results are available in the Python driver through the
	  variable('DMA DISTRIBUTED MULTIPOLES')
  and
	  variable('DMA TOTAL MULTIPOLES')
  commands.

    Psi4 stopped on: Monday, 27 April 2020 12:45PM
    Psi4 wall time for execution: 0:05:41.36

*** Psi4 exiting successfully. Buy a developer a beer!
