                               Psi4 1.3.2 release

  ==> Input File <==

--------------------------------------------------------------------------
import numpy as np
set {scf_type pk
basis cc-pvdz
d_convergence 10
gdma_switch   0
gdma_limit    0
gdma_origin   [ 0.0,  0.0,  0.0 ]
}
molecule test {
    units Angstrom
    0 1
    --
    0 1
    C               -1.804531102184707     0.998455826677480     1.294129059465699
    C               -2.370531102184707     2.196455826677479     2.036129059465699
    H               -1.706531102184707     1.222455826677479     0.230129059465699
    H               -0.826531102184707     0.740455826677480     1.700129059465699
    H               -2.451531102184706     0.130455826677480     1.419129059465699
    H               -2.515531102184707     1.942455826677480     3.085129059465699
    H               -3.328751102184706     2.522895826677479     1.605729059465699
    H               -1.623391102184707     2.999565826677479     1.953719059465699
    C                0.515468897815293     0.557455826677480    -2.483870940534301
    C                0.310468897815293    -1.642544173322520     0.398129059465699
    C                0.724468897815293    -0.227544173322520    -1.223870940534301
    C                1.700468897815293    -0.093544173322520    -0.285870940534301
    N               -0.164531102184707    -1.175544173322520    -0.758870940534301
    N                1.435468897815293    -0.997544173322520     0.711129059465699
    H               -0.142531102184707    -2.429544173322521     0.990129059465699
    H                2.015468897815293    -1.187544173322520     1.521129059465699
    H                2.531468897815294     0.593455826677480    -0.324870940534301
    H                1.304468897815293     1.304455826677480    -2.542870940534301
    H               -0.432531102184707     1.090455826677480    -2.404870940534301
    H                0.521198897815293    -0.034074173322520    -3.411270940534301

}
e, wfn = energy('scf', return_wfn=True)
gdma(wfn)
dmavals = variable('DMA DISTRIBUTED MULTIPOLES')
charges = np.array(dmavals)
print(charges)
np.save('SSI-062THR-102HIE-1-dimer.npy', np.array(charges))--------------------------------------------------------------------------

*** tstart() called on ds3
*** at Tue Apr 28 20:46:47 2020

   => Loading Basis Set <=

    Name: CC-PVDZ
    Role: ORBITAL
    Keyword: BASIS
    atoms 1-2, 9-12  entry C          line   138 file /theoryfs2/ds/metcalf/miniconda2/envs/tf2gpu/share/psi4/basis/cc-pvdz.gbs
    atoms 3-8, 15-20 entry H          line    22 file /theoryfs2/ds/metcalf/miniconda2/envs/tf2gpu/share/psi4/basis/cc-pvdz.gbs
    atoms 13-14      entry N          line   168 file /theoryfs2/ds/metcalf/miniconda2/envs/tf2gpu/share/psi4/basis/cc-pvdz.gbs

         ---------------------------------------------------------
                                   SCF
               by Justin Turney, Rob Parrish, Andy Simmonett
                          and Daniel G. A. Smith
                              RHF Reference
                        1 Threads,    500 MiB Core
         ---------------------------------------------------------

  ==> Geometry <==

    Molecular point group: c1
    Full point group: C1

    Geometry (in Angstrom), charge = 0, multiplicity = 1:

       Center              X                  Y                   Z               Mass
    ------------   -----------------  -----------------  -----------------  -----------------
         C           -1.804531102185     0.998455826677     1.294129059466    12.000000000000
         C           -2.370531102185     2.196455826677     2.036129059466    12.000000000000
         H           -1.706531102185     1.222455826677     0.230129059466     1.007825032230
         H           -0.826531102185     0.740455826677     1.700129059466     1.007825032230
         H           -2.451531102185     0.130455826677     1.419129059466     1.007825032230
         H           -2.515531102185     1.942455826677     3.085129059466     1.007825032230
         H           -3.328751102185     2.522895826677     1.605729059466     1.007825032230
         H           -1.623391102185     2.999565826677     1.953719059466     1.007825032230
         C            0.515468897815     0.557455826677    -2.483870940534    12.000000000000
         C            0.310468897815    -1.642544173323     0.398129059466    12.000000000000
         C            0.724468897815    -0.227544173323    -1.223870940534    12.000000000000
         C            1.700468897815    -0.093544173323    -0.285870940534    12.000000000000
         N           -0.164531102185    -1.175544173323    -0.758870940534    14.003074004430
         N            1.435468897815    -0.997544173323     0.711129059466    14.003074004430
         H           -0.142531102185    -2.429544173323     0.990129059466     1.007825032230
         H            2.015468897815    -1.187544173323     1.521129059466     1.007825032230
         H            2.531468897815     0.593455826677    -0.324870940534     1.007825032230
         H            1.304468897815     1.304455826677    -2.542870940534     1.007825032230
         H           -0.432531102185     1.090455826677    -2.404870940534     1.007825032230
         H            0.521198897815    -0.034074173323    -3.411270940534     1.007825032230

  Running in c1 symmetry.

  Rotational constants: A =      0.08336  B =      0.03526  C =      0.02969 [cm^-1]
  Rotational constants: A =   2498.99216  B =   1057.01226  C =    889.96720 [MHz]
  Nuclear repulsion =  361.540705913557417

  Charge       = 0
  Multiplicity = 1
  Electrons    = 62
  Nalpha       = 31
  Nbeta        = 31

  ==> Algorithm <==

  SCF Algorithm Type is PK.
  DIIS enabled.
  MOM disabled.
  Fractional occupation disabled.
  Guess Type is SAD.
  Energy threshold   = 1.00e-06
  Density threshold  = 1.00e-10
  Integral threshold = 0.00e+00

  ==> Primary Basis <==

  Basis Set: CC-PVDZ
    Blend: CC-PVDZ
    Number of shells: 84
    Number of basis function: 172
    Number of Cartesian functions: 180
    Spherical Harmonics?: true
    Max angular momentum: 2

  ==> Pre-Iterations <==

   -------------------------------------------------------
    Irrep   Nso     Nmo     Nalpha   Nbeta   Ndocc  Nsocc
   -------------------------------------------------------
     A        172     172       0       0       0       0
   -------------------------------------------------------
    Total     172     172      31      31      31       0
   -------------------------------------------------------

  ==> Integral Setup <==

  Using integral reordering PK algorithm.
  Sizing the integral batches needed.
  Building batch lookup table.
   Calculation information:
      Number of atoms:                  20
      Number of AO shells:              84
      Number of primitives:            236
      Number of atomic orbitals:       180
      Number of basis functions:       172

      Integral cutoff                 1.00e-12
      Number of threads:                 1

	Batch   1 pq = [       0,    9405] index = [             0,44231715] size =     44231715
	Batch   2 pq = [    9405,   13301] index = [      44231715,88464951] size =     44233236
	Batch   3 pq = [   13301,   14878] index = [      88464951,110684881] size =     22219930
  Task number: 11
  Buffer size: 11059200
  Buffer per thread: 2
  We computed 5701455 shell quartets total.
  Whereas there are 6374235 unique shell quartets.

  ==> DiskJK: Disk-Based J/K Matrices <==

    J tasked:                  Yes
    K tasked:                  Yes
    wK tasked:                  No
    Memory [MiB]:              375
    Schwarz Cutoff:          1E-12

    OpenMP threads:              1

  Minimum eigenvalue in the overlap matrix is 1.2165172431E-03.
  Using Symmetric Orthogonalization.

  SCF Guess: Superposition of Atomic Densities via on-the-fly atomic UHF.

  ==> Iterations <==

                        Total Energy        Delta E     RMS |[F,P]|

   @RHF iter SAD:  -342.21379430616628   -3.42214e+02   0.00000e+00
   @RHF iter   1:  -342.88610412137297   -6.72310e-01   3.37271e-03 DIIS
   @RHF iter   2:  -343.05945336480170   -1.73349e-01   1.71507e-03 DIIS
   @RHF iter   3:  -343.10065178969023   -4.11984e-02   4.41799e-04 DIIS
   @RHF iter   4:  -343.10419789306985   -3.54610e-03   1.84397e-04 DIIS
   @RHF iter   5:  -343.10477903435532   -5.81141e-04   2.68325e-05 DIIS
   @RHF iter   6:  -343.10480017448975   -2.11401e-05   1.16487e-05 DIIS
   @RHF iter   7:  -343.10480369194852   -3.51746e-06   4.10577e-06 DIIS
   @RHF iter   8:  -343.10480446500827   -7.73060e-07   1.66749e-06 DIIS
   @RHF iter   9:  -343.10480463454269   -1.69534e-07   5.95661e-07 DIIS
   @RHF iter  10:  -343.10480465123834   -1.66957e-08   1.85476e-07 DIIS
   @RHF iter  11:  -343.10480465307342   -1.83508e-09   7.91369e-08 DIIS
   @RHF iter  12:  -343.10480465333058   -2.57160e-10   3.29103e-08 DIIS
   @RHF iter  13:  -343.10480465337542   -4.48495e-11   9.08600e-09 DIIS
   @RHF iter  14:  -343.10480465338134   -5.91172e-12   3.34591e-09 DIIS
   @RHF iter  15:  -343.10480465338071    6.25278e-13   1.35211e-09 DIIS
   @RHF iter  16:  -343.10480465338202   -1.30740e-12   4.22809e-10 DIIS
   @RHF iter  17:  -343.10480465338361   -1.59162e-12   1.23837e-10 DIIS
   @RHF iter  18:  -343.10480465338168    1.93268e-12   4.72934e-11 DIIS
  Energy and wave function converged.

  ==> Post-Iterations <==

    Orbital Energies [Eh]
    ---------------------

    Doubly Occupied:

       1A    -15.622434     2A    -15.530037     3A    -11.293932
       4A    -11.250268     5A    -11.241719     6A    -11.224226
       7A    -11.209955     8A    -11.202537     9A     -1.340363
      10A     -1.154441    11A     -1.030375    12A     -1.010323
      13A     -0.940143    14A     -0.824239    15A     -0.819656
      16A     -0.761830    17A     -0.741453    18A     -0.609957
      19A     -0.605128    20A     -0.594296    21A     -0.590108
      22A     -0.587469    23A     -0.551665    24A     -0.543070
      25A     -0.520441    26A     -0.490295    27A     -0.475675
      28A     -0.471776    29A     -0.412775    30A     -0.378055
      31A     -0.308541

    Virtual:

      32A      0.169491    33A      0.188272    34A      0.188388
      35A      0.203083    36A      0.221216    37A      0.224520
      38A      0.231217    39A      0.263175    40A      0.265465
      41A      0.268366    42A      0.284316    43A      0.289348
      44A      0.297736    45A      0.354213    46A      0.380292
      47A      0.398098    48A      0.408321    49A      0.428302
      50A      0.482070    51A      0.497808    52A      0.591644
      53A      0.596718    54A      0.606139    55A      0.618053
      56A      0.630786    57A      0.634951    58A      0.659937
      59A      0.679937    60A      0.687028    61A      0.725814
      62A      0.752269    63A      0.762761    64A      0.790081
      65A      0.810655    66A      0.817987    67A      0.840791
      68A      0.856521    69A      0.882819    70A      0.894673
      71A      0.900307    72A      0.902980    73A      0.909134
      74A      0.916471    75A      0.923907    76A      0.937171
      77A      0.944681    78A      0.957876    79A      0.965703
      80A      0.994654    81A      1.015028    82A      1.024743
      83A      1.066239    84A      1.100493    85A      1.106795
      86A      1.122929    87A      1.131734    88A      1.155134
      89A      1.157615    90A      1.191790    91A      1.257261
      92A      1.264111    93A      1.294538    94A      1.324550
      95A      1.330893    96A      1.345903    97A      1.427911
      98A      1.439870    99A      1.479871   100A      1.485900
     101A      1.497449   102A      1.525493   103A      1.569857
     104A      1.582453   105A      1.602399   106A      1.649616
     107A      1.685346   108A      1.691180   109A      1.706662
     110A      1.735692   111A      1.774385   112A      1.807543
     113A      1.818133   114A      1.860612   115A      1.876303
     116A      1.884994   117A      1.907101   118A      1.921776
     119A      1.932035   120A      1.947809   121A      1.952584
     122A      1.963520   123A      1.969675   124A      1.983027
     125A      1.985954   126A      1.994060   127A      2.004764
     128A      2.018009   129A      2.069872   130A      2.103433
     131A      2.121273   132A      2.124495   133A      2.130153
     134A      2.145054   135A      2.172590   136A      2.211413
     137A      2.233171   138A      2.305994   139A      2.319051
     140A      2.345457   141A      2.360561   142A      2.400622
     143A      2.437337   144A      2.458892   145A      2.473814
     146A      2.479312   147A      2.490094   148A      2.544593
     149A      2.576506   150A      2.587153   151A      2.604163
     152A      2.682687   153A      2.741619   154A      2.756379
     155A      2.773678   156A      2.778916   157A      2.790196
     158A      2.805662   159A      2.822009   160A      2.850938
     161A      2.866583   162A      2.881001   163A      2.901936
     164A      2.919127   165A      2.965175   166A      2.983194
     167A      2.985721   168A      3.063886   169A      3.158525
     170A      3.240351   171A      3.461930   172A      3.792566

    Final Occupation by Irrep:
              A
    DOCC [    31 ]

  @RHF Final Energy:  -343.10480465338168

   => Energetics <=

    Nuclear Repulsion Energy =            361.5407059135574173
    One-Electron Energy =               -1180.6166575637098504
    Two-Electron Energy =                 475.9711469967707558
    Total Energy =                       -343.1048046533816773

Computation Completed

Properties will be evaluated at   0.000000,   0.000000,   0.000000 [a0]

Properties computed using the SCF density matrix

  Nuclear Dipole Moment: [e a0]
     X:    -6.2423      Y:     8.3456      Z:     3.5825

  Electronic Dipole Moment: [e a0]
     X:     7.2890      Y:    -8.3486      Z:    -2.7041

  Dipole Moment: [e a0]
     X:     1.0467      Y:    -0.0030      Z:     0.8784     Total:     1.3664

  Dipole Moment: [D]
     X:     2.6604      Y:    -0.0077      Z:     2.2328     Total:     3.4732

*** tstop() called on ds3 at Tue Apr 28 20:47:46 2020
Module time:
	user time   =      42.36 seconds =       0.71 minutes
	system time =      17.87 seconds =       0.30 minutes
	total time  =         59 seconds =       0.98 minutes
Total time:
	user time   =      42.36 seconds =       0.71 minutes
	system time =      17.87 seconds =       0.30 minutes
	total time  =         59 seconds =       0.98 minutes
                                     G D M A

                                 by Anthony Stone

                           version 2.2.06, 22 June 2011

               Distributed Multipoles from Gaussian wavefunctions

Starting at 20:47:46 on 28 Apr 2020

Using SCF density matrix from file ./SSI/SSI-062THR-102HIE-1-dimer.test.28260.fchk

                         Distributed Multipole Analysis

Standard DMA

Positions and radii in angstrom
Multipole moments in atomic units, ea_0^k for rank k

C          x = -1.804531  y =  0.998456  z =  1.294129 angstrom
           Maximum rank =  0   Radius =  0.650 angstrom
                   Q00  =  -0.216760

C          x = -2.370531  y =  2.196456  z =  2.036129 angstrom
           Maximum rank =  0   Radius =  0.650 angstrom
                   Q00  =  -0.236959

H          x = -1.706531  y =  1.222456  z =  0.230129 angstrom
           Maximum rank =  0   Radius =  0.325 angstrom
                   Q00  =   0.085866

H          x = -0.826531  y =  0.740456  z =  1.700129 angstrom
           Maximum rank =  0   Radius =  0.325 angstrom
                   Q00  =   0.065306

H          x = -2.451531  y =  0.130456  z =  1.419129 angstrom
           Maximum rank =  0   Radius =  0.325 angstrom
                   Q00  =   0.072708

H          x = -2.515531  y =  1.942456  z =  3.085129 angstrom
           Maximum rank =  0   Radius =  0.325 angstrom
                   Q00  =   0.074358

H          x = -3.328751  y =  2.522896  z =  1.605729 angstrom
           Maximum rank =  0   Radius =  0.325 angstrom
                   Q00  =   0.078740

H          x = -1.623391  y =  2.999566  z =  1.953719 angstrom
           Maximum rank =  0   Radius =  0.325 angstrom
                   Q00  =   0.070366

C          x =  0.515469  y =  0.557456  z = -2.483871 angstrom
           Maximum rank =  0   Radius =  0.650 angstrom
                   Q00  =  -0.192559

C          x =  0.310469  y = -1.642544  z =  0.398129 angstrom
           Maximum rank =  0   Radius =  0.650 angstrom
                   Q00  =   0.458824

C          x =  0.724469  y = -0.227544  z = -1.223871 angstrom
           Maximum rank =  0   Radius =  0.650 angstrom
                   Q00  =   0.226915

C          x =  1.700469  y = -0.093544  z = -0.285871 angstrom
           Maximum rank =  0   Radius =  0.650 angstrom
                   Q00  =  -0.006087

N          x = -0.164531  y = -1.175544  z = -0.758871 angstrom
           Maximum rank =  0   Radius =  0.650 angstrom
                   Q00  =  -0.761069

N          x =  1.435469  y = -0.997544  z =  0.711129 angstrom
           Maximum rank =  0   Radius =  0.650 angstrom
                   Q00  =  -0.473436

H          x = -0.142531  y = -2.429544  z =  0.990129 angstrom
           Maximum rank =  0   Radius =  0.325 angstrom
                   Q00  =   0.122205

H          x =  2.015469  y = -1.187544  z =  1.521129 angstrom
           Maximum rank =  0   Radius =  0.325 angstrom
                   Q00  =   0.224168

H          x =  2.531469  y =  0.593456  z = -0.324871 angstrom
           Maximum rank =  0   Radius =  0.325 angstrom
                   Q00  =   0.100323

H          x =  1.304469  y =  1.304456  z = -2.542871 angstrom
           Maximum rank =  0   Radius =  0.325 angstrom
                   Q00  =   0.089897

H          x = -0.432531  y =  1.090456  z = -2.404871 angstrom
           Maximum rank =  0   Radius =  0.325 angstrom
                   Q00  =   0.107698

H          x =  0.521199  y = -0.034074  z = -3.411271 angstrom
           Maximum rank =  0   Radius =  0.325 angstrom
                   Q00  =   0.109494

Total multipoles referred to origin at
           x =   0.000000,  y =    0.000000,  z =    0.000000 angstrom
                   Q00  =  -0.000000

Finished at 20:47:46 on 28 Apr 2020

  DMA results are available in the Python driver through the
	  variable('DMA DISTRIBUTED MULTIPOLES')
  and
	  variable('DMA TOTAL MULTIPOLES')
  commands.

    Psi4 stopped on: Tuesday, 28 April 2020 08:47PM
    Psi4 wall time for execution: 0:00:58.84

*** Psi4 exiting successfully. Buy a developer a beer!
