                               Psi4 1.3.2 release

  ==> Input File <==

--------------------------------------------------------------------------
import numpy as np
set {scf_type pk
basis cc-pvdz
d_convergence 10
gdma_switch   0
gdma_limit    0
gdma_origin   [ 0.0,  0.0,  0.0 ]
}
molecule test {
    units Angstrom
    0 1
    --
    0 1
    C                0.696903129208977    -1.304480526835604    -0.776674878747087
    C                0.324903129208977    -2.454480526835604    -1.731674878747087
    C               -0.495096870791023    -0.579480526835604    -0.183674878747087
    C               -1.314096870791023    -1.217480526835604     0.749325121252913
    C               -0.799096870791023     0.732519473164396    -0.525674878747087
    C               -2.419096870791023    -0.573480526835604     1.359325121252913
    C               -1.916096870791023     1.385519473164396     0.097325121252913
    C               -2.716096870791023     0.740519473164396     1.032325121252913
    H                1.290903129208977    -1.679480526835604     0.058325121252913
    H                1.283903129208977    -0.568480526835604    -1.326674878747087
    H               -0.213096870791023    -3.221480526835604    -1.168674878747087
    H               -1.072096870791023    -2.239480526835604     0.999325121252913
    H               -0.187096870791023     1.244519473164396    -1.259674878747087
    H               -3.035096870791023    -1.087480526835604     2.082325121252913
    H               -2.178096870791022     2.384519473164396    -0.133674878747087
    H               -3.551096870791023     1.253519473164396     1.491325121252913
    H                1.247813129208977    -2.872380526835604    -2.160114878747087
    H               -0.318326870791023    -2.065980526835605    -2.534994878747087
    C                2.987903129208977     1.481519473164396    -0.199674878747087
    C                4.357903129208978     1.726519473164396     0.448325121252913
    H                2.589903129208977     2.418519473164396    -0.585674878747087
    H                3.093903129208977     0.772519473164396    -1.019674878747087
    H                2.300903129208978     1.072519473164396     0.539325121252913
    H                5.042903129208977     2.118519473164396    -0.300674878747087
    H                4.752903129208977     0.783519473164396     0.823325121252913
    H                4.335023129208977     2.434419473164396     1.289955121252913

}
e, wfn = energy('scf', return_wfn=True)
gdma(wfn)
dmavals = variable('DMA DISTRIBUTED MULTIPOLES')
charges = np.array(dmavals)
print(charges)
np.save('SSI-078PHE-215ILE-1-dimer.npy', np.array(charges))--------------------------------------------------------------------------

*** tstart() called on ds3
*** at Sun Apr 26 20:47:11 2020

   => Loading Basis Set <=

    Name: CC-PVDZ
    Role: ORBITAL
    Keyword: BASIS
    atoms 1-8, 19-20  entry C          line   138 file /theoryfs2/ds/metcalf/miniconda2/envs/tf2gpu/share/psi4/basis/cc-pvdz.gbs
    atoms 9-18, 21-26 entry H          line    22 file /theoryfs2/ds/metcalf/miniconda2/envs/tf2gpu/share/psi4/basis/cc-pvdz.gbs

         ---------------------------------------------------------
                                   SCF
               by Justin Turney, Rob Parrish, Andy Simmonett
                          and Daniel G. A. Smith
                              RHF Reference
                        1 Threads,    500 MiB Core
         ---------------------------------------------------------

  ==> Geometry <==

    Molecular point group: c1
    Full point group: C1

    Geometry (in Angstrom), charge = 0, multiplicity = 1:

       Center              X                  Y                   Z               Mass
    ------------   -----------------  -----------------  -----------------  -----------------
         C            0.696903129209    -1.304480526836    -0.776674878747    12.000000000000
         C            0.324903129209    -2.454480526836    -1.731674878747    12.000000000000
         C           -0.495096870791    -0.579480526836    -0.183674878747    12.000000000000
         C           -1.314096870791    -1.217480526836     0.749325121253    12.000000000000
         C           -0.799096870791     0.732519473164    -0.525674878747    12.000000000000
         C           -2.419096870791    -0.573480526836     1.359325121253    12.000000000000
         C           -1.916096870791     1.385519473164     0.097325121253    12.000000000000
         C           -2.716096870791     0.740519473164     1.032325121253    12.000000000000
         H            1.290903129209    -1.679480526836     0.058325121253     1.007825032230
         H            1.283903129209    -0.568480526836    -1.326674878747     1.007825032230
         H           -0.213096870791    -3.221480526836    -1.168674878747     1.007825032230
         H           -1.072096870791    -2.239480526836     0.999325121253     1.007825032230
         H           -0.187096870791     1.244519473164    -1.259674878747     1.007825032230
         H           -3.035096870791    -1.087480526836     2.082325121253     1.007825032230
         H           -2.178096870791     2.384519473164    -0.133674878747     1.007825032230
         H           -3.551096870791     1.253519473164     1.491325121253     1.007825032230
         H            1.247813129209    -2.872380526836    -2.160114878747     1.007825032230
         H           -0.318326870791    -2.065980526836    -2.534994878747     1.007825032230
         C            2.987903129209     1.481519473164    -0.199674878747    12.000000000000
         C            4.357903129209     1.726519473164     0.448325121253    12.000000000000
         H            2.589903129209     2.418519473164    -0.585674878747     1.007825032230
         H            3.093903129209     0.772519473164    -1.019674878747     1.007825032230
         H            2.300903129209     1.072519473164     0.539325121253     1.007825032230
         H            5.042903129209     2.118519473164    -0.300674878747     1.007825032230
         H            4.752903129209     0.783519473164     0.823325121253     1.007825032230
         H            4.335023129209     2.434419473164     1.289955121253     1.007825032230

  Running in c1 symmetry.

  Rotational constants: A =      0.04765  B =      0.02089  C =      0.01639 [cm^-1]
  Rotational constants: A =   1428.60355  B =    626.27678  C =    491.48605 [MHz]
  Nuclear repulsion =  486.093669350717505

  Charge       = 0
  Multiplicity = 1
  Electrons    = 76
  Nalpha       = 38
  Nbeta        = 38

  ==> Algorithm <==

  SCF Algorithm Type is PK.
  DIIS enabled.
  MOM disabled.
  Fractional occupation disabled.
  Guess Type is SAD.
  Energy threshold   = 1.00e-06
  Density threshold  = 1.00e-10
  Integral threshold = 0.00e+00

  ==> Primary Basis <==

  Basis Set: CC-PVDZ
    Blend: CC-PVDZ
    Number of shells: 108
    Number of basis function: 220
    Number of Cartesian functions: 230
    Spherical Harmonics?: true
    Max angular momentum: 2

  ==> Pre-Iterations <==

   -------------------------------------------------------
    Irrep   Nso     Nmo     Nalpha   Nbeta   Ndocc  Nsocc
   -------------------------------------------------------
     A        220     220       0       0       0       0
   -------------------------------------------------------
    Total     220     220      38      38      38       0
   -------------------------------------------------------

  ==> Integral Setup <==

  Using integral reordering PK algorithm.
  Sizing the integral batches needed.
  Building batch lookup table.
   Calculation information:
      Number of atoms:                  26
      Number of AO shells:             108
      Number of primitives:            300
      Number of atomic orbitals:       230
      Number of basis functions:       220

      Integral cutoff                 1.00e-12
      Number of threads:                 1

	Batch   1 pq = [       0,    9405] index = [             0,44231715] size =     44231715
	Batch   2 pq = [    9405,   13301] index = [      44231715,88464951] size =     44233236
	Batch   3 pq = [   13301,   16290] index = [      88464951,132690195] size =     44225244
	Batch   4 pq = [   16290,   18810] index = [     132690195,176917455] size =     44227260
	Batch   5 pq = [   18810,   21030] index = [     176917455,221140965] size =     44223510
	Batch   6 pq = [   21030,   23037] index = [     221140965,265363203] size =     44222238
	Batch   7 pq = [   23037,   24310] index = [     265363203,295500205] size =     30137002
  Task number: 27
  Buffer size: 11059200
  Buffer per thread: 2
  We computed 15193511 shell quartets total.
  Whereas there are 17325441 unique shell quartets.

  ==> DiskJK: Disk-Based J/K Matrices <==

    J tasked:                  Yes
    K tasked:                  Yes
    wK tasked:                  No
    Memory [MiB]:              375
    Schwarz Cutoff:          1E-12

    OpenMP threads:              1

  Minimum eigenvalue in the overlap matrix is 3.2319178281E-04.
  Using Symmetric Orthogonalization.

  SCF Guess: Superposition of Atomic Densities via on-the-fly atomic UHF.

  ==> Iterations <==

                        Total Energy        Delta E     RMS |[F,P]|

   @RHF iter SAD:  -386.75651834830899   -3.86757e+02   0.00000e+00
   @RHF iter   1:  -387.77823417257969   -1.02172e+00   2.68545e-03 DIIS
   @RHF iter   2:  -387.98921822670729   -2.10984e-01   1.10203e-03 DIIS
   @RHF iter   3:  -388.02158932031006   -3.23711e-02   2.44444e-04 DIIS
   @RHF iter   4:  -388.02438884677616   -2.79953e-03   5.09379e-05 DIIS
   @RHF iter   5:  -388.02447053198404   -8.16852e-05   2.03139e-05 DIIS
   @RHF iter   6:  -388.02448358173211   -1.30497e-05   4.02906e-06 DIIS
   @RHF iter   7:  -388.02448436390495   -7.82173e-07   1.42748e-06 DIIS
   @RHF iter   8:  -388.02448447954509   -1.15640e-07   5.62378e-07 DIIS
   @RHF iter   9:  -388.02448452101044   -4.14653e-08   2.92919e-07 DIIS
   @RHF iter  10:  -388.02448453348364   -1.24732e-08   1.35540e-07 DIIS
   @RHF iter  11:  -388.02448453570008   -2.21644e-09   3.71838e-08 DIIS
   @RHF iter  12:  -388.02448453582002   -1.19940e-10   1.46748e-08 DIIS
   @RHF iter  13:  -388.02448453583310   -1.30740e-11   5.18753e-09 DIIS
   @RHF iter  14:  -388.02448453583384   -7.38964e-13   1.67892e-09 DIIS
   @RHF iter  15:  -388.02448453583418   -3.41061e-13   7.89941e-10 DIIS
   @RHF iter  16:  -388.02448453583457   -3.97904e-13   3.57160e-10 DIIS
   @RHF iter  17:  -388.02448453583406    5.11591e-13   1.15348e-10 DIIS
   @RHF iter  18:  -388.02448453583565   -1.59162e-12   3.67877e-11 DIIS
  Energy and wave function converged.

  ==> Post-Iterations <==

    Orbital Energies [Eh]
    ---------------------

    Doubly Occupied:

       1A    -11.237575     2A    -11.237481     3A    -11.236340
       4A    -11.235195     5A    -11.231690     6A    -11.230629
       7A    -11.230389     8A    -11.225819     9A    -11.217336
      10A    -11.216482    11A     -1.147562    12A     -1.062094
      13A     -1.016320    14A     -0.999638    15A     -0.983490
      16A     -0.860205    17A     -0.839126    18A     -0.829220
      19A     -0.778533    20A     -0.689129    21A     -0.636897
      22A     -0.634712    23A     -0.598666    24A     -0.595313
      25A     -0.593548    26A     -0.583637    27A     -0.571199
      28A     -0.539934    29A     -0.519334    30A     -0.506048
      31A     -0.498241    32A     -0.486487    33A     -0.484313
      34A     -0.477205    35A     -0.473056    36A     -0.466449
      37A     -0.326659    38A     -0.321365

    Virtual:

      39A      0.130261    40A      0.142552    41A      0.177637
      42A      0.190509    43A      0.202478    44A      0.207594
      45A      0.230799    46A      0.235113    47A      0.239724
      48A      0.254629    49A      0.263349    50A      0.265133
      51A      0.274825    52A      0.283654    53A      0.288310
      54A      0.301199    55A      0.314733    56A      0.338631
      57A      0.346067    58A      0.387571    59A      0.400155
      60A      0.423044    61A      0.447909    62A      0.471758
      63A      0.484614    64A      0.497628    65A      0.569801
      66A      0.575195    67A      0.594398    68A      0.595729
      69A      0.598173    70A      0.614108    71A      0.643020
      72A      0.656212    73A      0.684072    74A      0.691395
      75A      0.698653    76A      0.718940    77A      0.737467
      78A      0.739211    79A      0.747909    80A      0.749976
      81A      0.758776    82A      0.760804    83A      0.774228
      84A      0.799624    85A      0.819441    86A      0.845358
      87A      0.862756    88A      0.870222    89A      0.874929
      90A      0.886935    91A      0.889865    92A      0.893431
      93A      0.895712    94A      0.898962    95A      0.902198
      96A      0.903327    97A      0.918541    98A      0.923052
      99A      0.930778   100A      0.937507   101A      0.957772
     102A      0.970276   103A      0.974961   104A      0.989897
     105A      0.993265   106A      1.001067   107A      1.037682
     108A      1.073513   109A      1.115191   110A      1.127232
     111A      1.129945   112A      1.143224   113A      1.148903
     114A      1.170397   115A      1.186816   116A      1.212325
     117A      1.232080   118A      1.247764   119A      1.251868
     120A      1.256342   121A      1.291539   122A      1.302076
     123A      1.310933   124A      1.328298   125A      1.396459
     126A      1.425717   127A      1.450222   128A      1.472513
     129A      1.480905   130A      1.511700   131A      1.541025
     132A      1.572133   133A      1.593832   134A      1.617570
     135A      1.675437   136A      1.685285   137A      1.694390
     138A      1.701974   139A      1.718164   140A      1.740321
     141A      1.757724   142A      1.767826   143A      1.816402
     144A      1.838903   145A      1.857991   146A      1.875741
     147A      1.880268   148A      1.886666   149A      1.889569
     150A      1.897549   151A      1.903332   152A      1.913155
     153A      1.921019   154A      1.936143   155A      1.938090
     156A      1.941639   157A      1.946531   158A      1.950205
     159A      1.952987   160A      1.958587   161A      1.967217
     162A      1.973526   163A      1.987581   164A      1.998852
     165A      2.014036   166A      2.039446   167A      2.041659
     168A      2.056704   169A      2.063222   170A      2.083075
     171A      2.087128   172A      2.113964   173A      2.124507
     174A      2.144101   175A      2.155817   176A      2.160165
     177A      2.179604   178A      2.193592   179A      2.238246
     180A      2.260245   181A      2.272518   182A      2.303256
     183A      2.304604   184A      2.317062   185A      2.323758
     186A      2.351508   187A      2.362202   188A      2.450169
     189A      2.465268   190A      2.467958   191A      2.478752
     192A      2.483328   193A      2.529443   194A      2.538142
     195A      2.555351   196A      2.577580   197A      2.581204
     198A      2.643197   199A      2.748487   200A      2.754823
     201A      2.764078   202A      2.770210   203A      2.771507
     204A      2.796730   205A      2.811976   206A      2.838194
     207A      2.860397   208A      2.865716   209A      2.873910
     210A      2.911518   211A      2.939668   212A      2.958585
     213A      2.962487   214A      2.982225   215A      3.031147
     216A      3.057479   217A      3.150712   218A      3.185655
     219A      3.302976   220A      3.934547

    Final Occupation by Irrep:
              A
    DOCC [    38 ]

  @RHF Final Energy:  -388.02448453583565

   => Energetics <=

    Nuclear Repulsion Energy =            486.0936693507175050
    One-Electron Energy =               -1486.6016763341960996
    Two-Electron Energy =                 612.4835224476429403
    Total Energy =                       -388.0244845358356542

Computation Completed

Properties will be evaluated at   0.000000,   0.000000,   0.000000 [a0]

Properties computed using the SCF density matrix

  Nuclear Dipole Moment: [e a0]
     X:    14.4213      Y:     0.7011      Z:    -3.0055

  Electronic Dipole Moment: [e a0]
     X:   -14.3323      Y:    -0.7598      Z:     2.9634

  Dipole Moment: [e a0]
     X:     0.0890      Y:    -0.0588      Z:    -0.0421     Total:     0.1147

  Dipole Moment: [D]
     X:     0.2262      Y:    -0.1494      Z:    -0.1069     Total:     0.2914

*** tstop() called on ds3 at Sun Apr 26 20:49:58 2020
Module time:
	user time   =     122.32 seconds =       2.04 minutes
	system time =      52.03 seconds =       0.87 minutes
	total time  =        167 seconds =       2.78 minutes
Total time:
	user time   =     122.32 seconds =       2.04 minutes
	system time =      52.03 seconds =       0.87 minutes
	total time  =        167 seconds =       2.78 minutes
                                     G D M A

                                 by Anthony Stone

                           version 2.2.06, 22 June 2011

               Distributed Multipoles from Gaussian wavefunctions

Starting at 20:49:58 on 26 Apr 2020

Using SCF density matrix from file ./SSI/SSI-078PHE-215ILE-1-dimer.test.10196.fchk

                         Distributed Multipole Analysis

Standard DMA

Positions and radii in angstrom
Multipole moments in atomic units, ea_0^k for rank k

C          x =  0.696903  y = -1.304481  z = -0.776675 angstrom
           Maximum rank =  0   Radius =  0.650 angstrom
                   Q00  =  -0.043738

C          x =  0.324903  y = -2.454481  z = -1.731675 angstrom
           Maximum rank =  0   Radius =  0.650 angstrom
                   Q00  =  -0.234138

C          x = -0.495097  y = -0.579481  z = -0.183675 angstrom
           Maximum rank =  0   Radius =  0.650 angstrom
                   Q00  =  -0.109536

C          x = -1.314097  y = -1.217481  z =  0.749325 angstrom
           Maximum rank =  0   Radius =  0.650 angstrom
                   Q00  =  -0.008175

C          x = -0.799097  y =  0.732519  z = -0.525675 angstrom
           Maximum rank =  0   Radius =  0.650 angstrom
                   Q00  =  -0.095170

C          x = -2.419097  y = -0.573481  z =  1.359325 angstrom
           Maximum rank =  0   Radius =  0.650 angstrom
                   Q00  =  -0.081692

C          x = -1.916097  y =  1.385519  z =  0.097325 angstrom
           Maximum rank =  0   Radius =  0.650 angstrom
                   Q00  =  -0.049971

C          x = -2.716097  y =  0.740519  z =  1.032325 angstrom
           Maximum rank =  0   Radius =  0.650 angstrom
                   Q00  =  -0.088039

H          x =  1.290903  y = -1.679481  z =  0.058325 angstrom
           Maximum rank =  0   Radius =  0.325 angstrom
                   Q00  =   0.071634

H          x =  1.283903  y = -0.568481  z = -1.326675 angstrom
           Maximum rank =  0   Radius =  0.325 angstrom
                   Q00  =   0.068687

H          x = -0.213097  y = -3.221481  z = -1.168675 angstrom
           Maximum rank =  0   Radius =  0.325 angstrom
                   Q00  =   0.083741

H          x = -1.072097  y = -2.239481  z =  0.999325 angstrom
           Maximum rank =  0   Radius =  0.325 angstrom
                   Q00  =   0.054988

H          x = -0.187097  y =  1.244519  z = -1.259675 angstrom
           Maximum rank =  0   Radius =  0.325 angstrom
                   Q00  =   0.065564

H          x = -3.035097  y = -1.087481  z =  2.082325 angstrom
           Maximum rank =  0   Radius =  0.325 angstrom
                   Q00  =   0.065603

H          x = -2.178097  y =  2.384519  z = -0.133675 angstrom
           Maximum rank =  0   Radius =  0.325 angstrom
                   Q00  =   0.064330

H          x = -3.551097  y =  1.253519  z =  1.491325 angstrom
           Maximum rank =  0   Radius =  0.325 angstrom
                   Q00  =   0.063894

H          x =  1.247813  y = -2.872381  z = -2.160115 angstrom
           Maximum rank =  0   Radius =  0.325 angstrom
                   Q00  =   0.084749

H          x = -0.318327  y = -2.065981  z = -2.534995 angstrom
           Maximum rank =  0   Radius =  0.325 angstrom
                   Q00  =   0.086578

C          x =  2.987903  y =  1.481519  z = -0.199675 angstrom
           Maximum rank =  0   Radius =  0.650 angstrom
                   Q00  =  -0.239744

C          x =  4.357903  y =  1.726519  z =  0.448325 angstrom
           Maximum rank =  0   Radius =  0.650 angstrom
                   Q00  =  -0.241794

H          x =  2.589903  y =  2.418519  z = -0.585675 angstrom
           Maximum rank =  0   Radius =  0.325 angstrom
                   Q00  =   0.079876

H          x =  3.093903  y =  0.772519  z = -1.019675 angstrom
           Maximum rank =  0   Radius =  0.325 angstrom
                   Q00  =   0.076397

H          x =  2.300903  y =  1.072519  z =  0.539325 angstrom
           Maximum rank =  0   Radius =  0.325 angstrom
                   Q00  =   0.088393

H          x =  5.042903  y =  2.118519  z = -0.300675 angstrom
           Maximum rank =  0   Radius =  0.325 angstrom
                   Q00  =   0.077595

H          x =  4.752903  y =  0.783519  z =  0.823325 angstrom
           Maximum rank =  0   Radius =  0.325 angstrom
                   Q00  =   0.078012

H          x =  4.335023  y =  2.434419  z =  1.289955 angstrom
           Maximum rank =  0   Radius =  0.325 angstrom
                   Q00  =   0.081957

Total multipoles referred to origin at
           x =   0.000000,  y =    0.000000,  z =    0.000000 angstrom
                   Q00  =  -0.000000

Finished at 20:49:58 on 26 Apr 2020

  DMA results are available in the Python driver through the
	  variable('DMA DISTRIBUTED MULTIPOLES')
  and
	  variable('DMA TOTAL MULTIPOLES')
  commands.

    Psi4 stopped on: Sunday, 26 April 2020 08:49PM
    Psi4 wall time for execution: 0:02:46.88

*** Psi4 exiting successfully. Buy a developer a beer!
