                               Psi4 1.3.2 release

  ==> Input File <==

--------------------------------------------------------------------------
import numpy as np
set {scf_type pk
basis cc-pvdz
d_convergence 10
gdma_switch   0
gdma_limit    0
gdma_origin   [ 0.0,  0.0,  0.0 ]
}
molecule test {
    units Angstrom
    0 1
    --
    0 1
    C                2.067855259521833     0.346368798865856     0.440087682488170
    C                2.484855259521833    -1.076631201134144     0.043087682488170
    H                2.933855259521833     1.009368798865856     0.459087682488170
    H                1.333855259521833     0.750368798865856    -0.251912317511830
    H                1.600855259521833     0.350368798865856     1.426087682488170
    H                1.626855259521833    -1.735631201134144     0.177087682488170
    H                3.312985259521833    -1.417161201134144     0.682029482488170
    H                2.795945259521833    -1.114621201134144    -1.011322317511830
    C               -1.534144740478167     0.250368798865856    -0.108912317511830
    C               -3.016144740478167     0.478368798865856    -0.372912317511830
    H               -1.344144740478167     0.207368798865856     0.965087682488170
    H               -1.218144740478167    -0.686631201134144    -0.568912317511830
    H               -0.962144740478167     1.068368798865856    -0.548912317511830
    H               -3.161144740478167     0.523368798865856    -1.448912317511830
    H               -3.332044740478167     1.423218798865856     0.093422482488170
    H               -3.615554740478167    -0.360231201134144     0.011085982488170

}
e, wfn = energy('scf', return_wfn=True)
gdma(wfn)
dmavals = variable('DMA DISTRIBUTED MULTIPOLES')
charges = np.array(dmavals)
print(charges)
np.save('SSI-011ILE-042LEU-1-dimer.npy', np.array(charges))--------------------------------------------------------------------------

*** tstart() called on ds3
*** at Mon Apr 27 22:55:03 2020

   => Loading Basis Set <=

    Name: CC-PVDZ
    Role: ORBITAL
    Keyword: BASIS
    atoms 1-2, 9-10  entry C          line   138 file /theoryfs2/ds/metcalf/miniconda2/envs/tf2gpu/share/psi4/basis/cc-pvdz.gbs
    atoms 3-8, 11-16 entry H          line    22 file /theoryfs2/ds/metcalf/miniconda2/envs/tf2gpu/share/psi4/basis/cc-pvdz.gbs

         ---------------------------------------------------------
                                   SCF
               by Justin Turney, Rob Parrish, Andy Simmonett
                          and Daniel G. A. Smith
                              RHF Reference
                        1 Threads,    500 MiB Core
         ---------------------------------------------------------

  ==> Geometry <==

    Molecular point group: c1
    Full point group: C1

    Geometry (in Angstrom), charge = 0, multiplicity = 1:

       Center              X                  Y                   Z               Mass
    ------------   -----------------  -----------------  -----------------  -----------------
         C            2.067855259522     0.346368798866     0.440087682488    12.000000000000
         C            2.484855259522    -1.076631201134     0.043087682488    12.000000000000
         H            2.933855259522     1.009368798866     0.459087682488     1.007825032230
         H            1.333855259522     0.750368798866    -0.251912317512     1.007825032230
         H            1.600855259522     0.350368798866     1.426087682488     1.007825032230
         H            1.626855259522    -1.735631201134     0.177087682488     1.007825032230
         H            3.312985259522    -1.417161201134     0.682029482488     1.007825032230
         H            2.795945259522    -1.114621201134    -1.011322317512     1.007825032230
         C           -1.534144740478     0.250368798866    -0.108912317512    12.000000000000
         C           -3.016144740478     0.478368798866    -0.372912317512    12.000000000000
         H           -1.344144740478     0.207368798866     0.965087682488     1.007825032230
         H           -1.218144740478    -0.686631201134    -0.568912317512     1.007825032230
         H           -0.962144740478     1.068368798866    -0.548912317512     1.007825032230
         H           -3.161144740478     0.523368798866    -1.448912317512     1.007825032230
         H           -3.332044740478     1.423218798866     0.093422482488     1.007825032230
         H           -3.615554740478    -0.360231201134     0.011085982488     1.007825032230

  Running in c1 symmetry.

  Rotational constants: A =      0.58537  B =      0.04729  C =      0.04526 [cm^-1]
  Rotational constants: A =  17549.01460  B =   1417.78308  C =   1356.84795 [MHz]
  Nuclear repulsion =  122.236875518635273

  Charge       = 0
  Multiplicity = 1
  Electrons    = 36
  Nalpha       = 18
  Nbeta        = 18

  ==> Algorithm <==

  SCF Algorithm Type is PK.
  DIIS enabled.
  MOM disabled.
  Fractional occupation disabled.
  Guess Type is SAD.
  Energy threshold   = 1.00e-06
  Density threshold  = 1.00e-10
  Integral threshold = 0.00e+00

  ==> Primary Basis <==

  Basis Set: CC-PVDZ
    Blend: CC-PVDZ
    Number of shells: 60
    Number of basis function: 116
    Number of Cartesian functions: 120
    Spherical Harmonics?: true
    Max angular momentum: 2

  ==> Pre-Iterations <==

   -------------------------------------------------------
    Irrep   Nso     Nmo     Nalpha   Nbeta   Ndocc  Nsocc
   -------------------------------------------------------
     A        116     116       0       0       0       0
   -------------------------------------------------------
    Total     116     116      18      18      18       0
   -------------------------------------------------------

  ==> Integral Setup <==

  Using integral reordering PK algorithm.
  Sizing the integral batches needed.
  Building batch lookup table.
   Calculation information:
      Number of atoms:                  16
      Number of AO shells:              60
      Number of primitives:            148
      Number of atomic orbitals:       120
      Number of basis functions:       116

      Integral cutoff                 1.00e-12
      Number of threads:                 1

	Batch   1 pq = [       0,    6786] index = [             0,23028291] size =     23028291
  Task number: 3
  Buffer size: 11059200
  Buffer per thread: 2
  We computed 1422904 shell quartets total.
  Whereas there are 1675365 unique shell quartets.

  ==> DiskJK: Disk-Based J/K Matrices <==

    J tasked:                  Yes
    K tasked:                  Yes
    wK tasked:                  No
    Memory [MiB]:              375
    Schwarz Cutoff:          1E-12

    OpenMP threads:              1

  Minimum eigenvalue in the overlap matrix is 6.3670808621E-03.
  Using Symmetric Orthogonalization.

  SCF Guess: Superposition of Atomic Densities via on-the-fly atomic UHF.

  ==> Iterations <==

                        Total Energy        Delta E     RMS |[F,P]|

   @RHF iter SAD:  -157.35020114754536   -1.57350e+02   0.00000e+00
   @RHF iter   1:  -158.30731093705640   -9.57110e-01   4.21446e-03 DIIS
   @RHF iter   2:  -158.44096434142415   -1.33653e-01   1.79615e-03 DIIS
   @RHF iter   3:  -158.46438709718842   -2.34228e-02   3.49749e-04 DIIS
   @RHF iter   4:  -158.46621806777284   -1.83097e-03   3.84558e-05 DIIS
   @RHF iter   5:  -158.46624124772188   -2.31799e-05   6.34884e-06 DIIS
   @RHF iter   6:  -158.46624185043976   -6.02718e-07   9.39761e-07 DIIS
   @RHF iter   7:  -158.46624185978308   -9.34332e-09   2.89787e-07 DIIS
   @RHF iter   8:  -158.46624186049161   -7.08525e-10   4.06938e-08 DIIS
   @RHF iter   9:  -158.46624186051537   -2.37605e-11   8.55374e-09 DIIS
   @RHF iter  10:  -158.46624186051679   -1.42109e-12   2.14919e-09 DIIS
   @RHF iter  11:  -158.46624186051659    1.98952e-13   6.41427e-10 DIIS
   @RHF iter  12:  -158.46624186051639    1.98952e-13   1.88457e-10 DIIS
   @RHF iter  13:  -158.46624186051690   -5.11591e-13   2.64289e-11 DIIS
  Energy and wave function converged.

  ==> Post-Iterations <==

    Orbital Energies [Eh]
    ---------------------

    Doubly Occupied:

       1A    -11.219280     2A    -11.218664     3A    -11.217119
       4A    -11.214924     5A     -1.021097     6A     -1.014463
       7A     -0.839189     8A     -0.833689     9A     -0.601530
      10A     -0.600130    11A     -0.596848    12A     -0.591929
      13A     -0.504883    14A     -0.496911    15A     -0.488859
      16A     -0.487510    17A     -0.483138    18A     -0.478974

    Virtual:

      19A      0.173022    20A      0.194592    21A      0.225407
      22A      0.232188    23A      0.238250    24A      0.259374
      25A      0.268596    26A      0.275133    27A      0.281545
      28A      0.297059    29A      0.311937    30A      0.350202
      31A      0.392511    32A      0.402982    33A      0.565253
      34A      0.589716    35A      0.599474    36A      0.600443
      37A      0.610666    38A      0.637892    39A      0.685831
      40A      0.688351    41A      0.696821    42A      0.763502
      43A      0.842404    44A      0.861824    45A      0.887609
      46A      0.891123    47A      0.893165    48A      0.898509
      49A      0.900254    50A      0.908630    51A      0.914291
      52A      0.933799    53A      0.945523    54A      0.957790
      55A      0.979645    56A      1.001696    57A      1.123399
      58A      1.127541    59A      1.128774    60A      1.145834
      61A      1.222652    62A      1.262556    63A      1.469138
      64A      1.476172    65A      1.485313    66A      1.489571
      67A      1.578112    68A      1.586207    69A      1.676949
      70A      1.684596    71A      1.690720    72A      1.705649
      73A      1.842389    74A      1.865712    75A      1.869712
      76A      1.880048    77A      1.895647    78A      1.921169
      79A      1.934256    80A      1.943481    81A      1.945542
      82A      1.948125    83A      1.950832    84A      1.954736
      85A      1.962538    86A      1.969696    87A      1.972938
      88A      2.060482    89A      2.098639    90A      2.108216
      91A      2.115181    92A      2.122626    93A      2.293473
      94A      2.297691    95A      2.322612    96A      2.349289
      97A      2.451479    98A      2.455647    99A      2.457788
     100A      2.470408   101A      2.557912   102A      2.567302
     103A      2.573773   104A      2.580290   105A      2.761488
     106A      2.764588   107A      2.787070   108A      2.789840
     109A      2.846577   110A      2.847365   111A      2.856963
     112A      2.866241   113A      2.945920   114A      2.955298
     115A      2.968663   116A      2.971813

    Final Occupation by Irrep:
              A
    DOCC [    18 ]

  @RHF Final Energy:  -158.46624186051690

   => Energetics <=

    Nuclear Repulsion Energy =            122.2368755186352729
    One-Electron Energy =                -453.5879605843471154
    Two-Electron Energy =                 172.8848432051949544
    Total Energy =                       -158.4662418605169023

Computation Completed

Properties will be evaluated at   0.000000,   0.000000,   0.000000 [a0]

Properties computed using the SCF density matrix

  Nuclear Dipole Moment: [e a0]
     X:    -0.0270      Y:     0.0170      Z:    -0.0151

  Electronic Dipole Moment: [e a0]
     X:     0.0063      Y:    -0.0097      Z:     0.0053

  Dipole Moment: [e a0]
     X:    -0.0207      Y:     0.0073      Z:    -0.0097     Total:     0.0240

  Dipole Moment: [D]
     X:    -0.0526      Y:     0.0186      Z:    -0.0248     Total:     0.0610

*** tstop() called on ds3 at Mon Apr 27 22:55:14 2020
Module time:
	user time   =       7.66 seconds =       0.13 minutes
	system time =       2.77 seconds =       0.05 minutes
	total time  =         11 seconds =       0.18 minutes
Total time:
	user time   =       7.66 seconds =       0.13 minutes
	system time =       2.77 seconds =       0.05 minutes
	total time  =         11 seconds =       0.18 minutes
                                     G D M A

                                 by Anthony Stone

                           version 2.2.06, 22 June 2011

               Distributed Multipoles from Gaussian wavefunctions

Starting at 22:55:14 on 27 Apr 2020

Using SCF density matrix from file ./SSI/SSI-011ILE-042LEU-1-dimer.test.2383.fchk

                         Distributed Multipole Analysis

Standard DMA

Positions and radii in angstrom
Multipole moments in atomic units, ea_0^k for rank k

C          x =  2.067855  y =  0.346369  z =  0.440088 angstrom
           Maximum rank =  0   Radius =  0.650 angstrom
                   Q00  =  -0.237001

C          x =  2.484855  y = -1.076631  z =  0.043088 angstrom
           Maximum rank =  0   Radius =  0.650 angstrom
                   Q00  =  -0.243492

H          x =  2.933855  y =  1.009369  z =  0.459088 angstrom
           Maximum rank =  0   Radius =  0.325 angstrom
                   Q00  =   0.077618

H          x =  1.333855  y =  0.750369  z = -0.251912 angstrom
           Maximum rank =  0   Radius =  0.325 angstrom
                   Q00  =   0.085208

H          x =  1.600855  y =  0.350369  z =  1.426088 angstrom
           Maximum rank =  0   Radius =  0.325 angstrom
                   Q00  =   0.078335

H          x =  1.626855  y = -1.735631  z =  0.177088 angstrom
           Maximum rank =  0   Radius =  0.325 angstrom
                   Q00  =   0.079493

H          x =  3.312985  y = -1.417161  z =  0.682029 angstrom
           Maximum rank =  0   Radius =  0.325 angstrom
                   Q00  =   0.079565

H          x =  2.795945  y = -1.114621  z = -1.011322 angstrom
           Maximum rank =  0   Radius =  0.325 angstrom
                   Q00  =   0.079458

C          x = -1.534145  y =  0.250369  z = -0.108912 angstrom
           Maximum rank =  0   Radius =  0.650 angstrom
                   Q00  =  -0.243304

C          x = -3.016145  y =  0.478369  z = -0.372912 angstrom
           Maximum rank =  0   Radius =  0.650 angstrom
                   Q00  =  -0.226571

H          x = -1.344145  y =  0.207369  z =  0.965088 angstrom
           Maximum rank =  0   Radius =  0.325 angstrom
                   Q00  =   0.079313

H          x = -1.218145  y = -0.686631  z = -0.568912 angstrom
           Maximum rank =  0   Radius =  0.325 angstrom
                   Q00  =   0.078178

H          x = -0.962145  y =  1.068369  z = -0.548912 angstrom
           Maximum rank =  0   Radius =  0.325 angstrom
                   Q00  =   0.076819

H          x = -3.161145  y =  0.523369  z = -1.448912 angstrom
           Maximum rank =  0   Radius =  0.325 angstrom
                   Q00  =   0.078385

H          x = -3.332045  y =  1.423219  z =  0.093422 angstrom
           Maximum rank =  0   Radius =  0.325 angstrom
                   Q00  =   0.079326

H          x = -3.615555  y = -0.360231  z =  0.011086 angstrom
           Maximum rank =  0   Radius =  0.325 angstrom
                   Q00  =   0.078672

Total multipoles referred to origin at
           x =   0.000000,  y =    0.000000,  z =    0.000000 angstrom
                   Q00  =  -0.000000

Finished at 22:55:14 on 27 Apr 2020

  DMA results are available in the Python driver through the
	  variable('DMA DISTRIBUTED MULTIPOLES')
  and
	  variable('DMA TOTAL MULTIPOLES')
  commands.

    Psi4 stopped on: Monday, 27 April 2020 10:55PM
    Psi4 wall time for execution: 0:00:10.56

*** Psi4 exiting successfully. Buy a developer a beer!
