                               Psi4 1.3.2 release

  ==> Input File <==

--------------------------------------------------------------------------
import numpy as np
set {scf_type pk
basis cc-pvdz
d_convergence 10
gdma_switch   0
gdma_limit    0
gdma_origin   [ 0.0,  0.0,  0.0 ]
}
molecule test {
    units Angstrom
    0 1
    --
    0 1
    C                1.037703007503810     3.220602000339266    -0.060818256109821
    C                0.430703007503810     4.224602000339266    -1.079818256109822
    H                2.122703007503810     3.292602000339266    -0.074818256109821
    H                0.696703007503810     3.457602000339266     0.947181743890179
    H                0.738703007503810     2.205602000339266    -0.317818256109821
    H                0.884703007503810     5.188602000339266    -0.857818256109821
    H                0.638553007503810     3.982697000339266    -2.132568256109821
    H               -0.646866992496190     4.322303000339266    -0.881558256109821
    C               -1.470296992496190    -0.921397999660734    -2.518818256109821
    C               -0.476296992496190    -0.059397999660734     1.070181743890178
    C               -1.090296992496190    -0.029397999660734    -0.194818256109821
    C                0.415703007503810    -1.090397999660734     1.408181743890179
    C               -0.802296992496190    -0.995397999660734    -1.158818256109821
    C                0.699703007503810    -2.082397999660734     0.459181743890179
    C                0.084703007503810    -2.031397999660734    -0.825818256109821
    O                0.927703007503810    -1.129397999660734     2.687181743890179
    H               -0.718296992496190     0.705602000339266     1.794181743890178
    H               -1.777296992496190     0.773602000339266    -0.425818256109821
    H                0.627703007503810    -0.389397999660734     3.221181743890178
    H                1.370703007503810    -2.890397999660734     0.715181743890179
    H               -2.305296992496190    -0.223397999660734    -2.451818256109821
    H               -1.898296992496190    -1.897397999660734    -2.753818256109822
    H                0.296703007503810    -2.812397999660734    -1.543818256109821
    H               -0.814736992496190    -0.594337999660734    -3.339349256109822

}
e, wfn = energy('scf', return_wfn=True)
gdma(wfn)
dmavals = variable('DMA DISTRIBUTED MULTIPOLES')
charges = np.array(dmavals)
print(charges)
np.save('SSI-003VAL-064TYR-1-dimer.npy', np.array(charges))--------------------------------------------------------------------------

*** tstart() called on ds3
*** at Tue Apr 28 14:11:09 2020

   => Loading Basis Set <=

    Name: CC-PVDZ
    Role: ORBITAL
    Keyword: BASIS
    atoms 1-2, 9-15  entry C          line   138 file /theoryfs2/ds/metcalf/miniconda2/envs/tf2gpu/share/psi4/basis/cc-pvdz.gbs
    atoms 3-8, 17-24 entry H          line    22 file /theoryfs2/ds/metcalf/miniconda2/envs/tf2gpu/share/psi4/basis/cc-pvdz.gbs
    atoms 16         entry O          line   198 file /theoryfs2/ds/metcalf/miniconda2/envs/tf2gpu/share/psi4/basis/cc-pvdz.gbs

         ---------------------------------------------------------
                                   SCF
               by Justin Turney, Rob Parrish, Andy Simmonett
                          and Daniel G. A. Smith
                              RHF Reference
                        1 Threads,    500 MiB Core
         ---------------------------------------------------------

  ==> Geometry <==

    Molecular point group: c1
    Full point group: C1

    Geometry (in Angstrom), charge = 0, multiplicity = 1:

       Center              X                  Y                   Z               Mass
    ------------   -----------------  -----------------  -----------------  -----------------
         C            1.037703007504     3.220602000339    -0.060818256110    12.000000000000
         C            0.430703007504     4.224602000339    -1.079818256110    12.000000000000
         H            2.122703007504     3.292602000339    -0.074818256110     1.007825032230
         H            0.696703007504     3.457602000339     0.947181743890     1.007825032230
         H            0.738703007504     2.205602000339    -0.317818256110     1.007825032230
         H            0.884703007504     5.188602000339    -0.857818256110     1.007825032230
         H            0.638553007504     3.982697000339    -2.132568256110     1.007825032230
         H           -0.646866992496     4.322303000339    -0.881558256110     1.007825032230
         C           -1.470296992496    -0.921397999661    -2.518818256110    12.000000000000
         C           -0.476296992496    -0.059397999661     1.070181743890    12.000000000000
         C           -1.090296992496    -0.029397999661    -0.194818256110    12.000000000000
         C            0.415703007504    -1.090397999661     1.408181743890    12.000000000000
         C           -0.802296992496    -0.995397999661    -1.158818256110    12.000000000000
         C            0.699703007504    -2.082397999661     0.459181743890    12.000000000000
         C            0.084703007504    -2.031397999661    -0.825818256110    12.000000000000
         O            0.927703007504    -1.129397999661     2.687181743890    15.994914619570
         H           -0.718296992496     0.705602000339     1.794181743890     1.007825032230
         H           -1.777296992496     0.773602000339    -0.425818256110     1.007825032230
         H            0.627703007504    -0.389397999661     3.221181743890     1.007825032230
         H            1.370703007504    -2.890397999661     0.715181743890     1.007825032230
         H           -2.305296992496    -0.223397999661    -2.451818256110     1.007825032230
         H           -1.898296992496    -1.897397999661    -2.753818256110     1.007825032230
         H            0.296703007504    -2.812397999661    -1.543818256110     1.007825032230
         H           -0.814736992496    -0.594337999661    -3.339349256110     1.007825032230

  Running in c1 symmetry.

  Rotational constants: A =      0.04135  B =      0.02477  C =      0.01705 [cm^-1]
  Rotational constants: A =   1239.72144  B =    742.67620  C =    511.18276 [MHz]
  Nuclear repulsion =  489.030504663868498

  Charge       = 0
  Multiplicity = 1
  Electrons    = 76
  Nalpha       = 38
  Nbeta        = 38

  ==> Algorithm <==

  SCF Algorithm Type is PK.
  DIIS enabled.
  MOM disabled.
  Fractional occupation disabled.
  Guess Type is SAD.
  Energy threshold   = 1.00e-06
  Density threshold  = 1.00e-10
  Integral threshold = 0.00e+00

  ==> Primary Basis <==

  Basis Set: CC-PVDZ
    Blend: CC-PVDZ
    Number of shells: 102
    Number of basis function: 210
    Number of Cartesian functions: 220
    Spherical Harmonics?: true
    Max angular momentum: 2

  ==> Pre-Iterations <==

   -------------------------------------------------------
    Irrep   Nso     Nmo     Nalpha   Nbeta   Ndocc  Nsocc
   -------------------------------------------------------
     A        210     210       0       0       0       0
   -------------------------------------------------------
    Total     210     210      38      38      38       0
   -------------------------------------------------------

  ==> Integral Setup <==

  Using integral reordering PK algorithm.
  Sizing the integral batches needed.
  Building batch lookup table.
   Calculation information:
      Number of atoms:                  24
      Number of AO shells:             102
      Number of primitives:            290
      Number of atomic orbitals:       220
      Number of basis functions:       210

      Integral cutoff                 1.00e-12
      Number of threads:                 1

	Batch   1 pq = [       0,    9405] index = [             0,44231715] size =     44231715
	Batch   2 pq = [    9405,   13301] index = [      44231715,88464951] size =     44233236
	Batch   3 pq = [   13301,   16290] index = [      88464951,132690195] size =     44225244
	Batch   4 pq = [   16290,   18810] index = [     132690195,176917455] size =     44227260
	Batch   5 pq = [   18810,   21030] index = [     176917455,221140965] size =     44223510
	Batch   6 pq = [   21030,   22155] index = [     221140965,245433090] size =     24292125
  Task number: 23
  Buffer size: 11059200
  Buffer per thread: 2
  We computed 11510968 shell quartets total.
  Whereas there are 13799631 unique shell quartets.

  ==> DiskJK: Disk-Based J/K Matrices <==

    J tasked:                  Yes
    K tasked:                  Yes
    wK tasked:                  No
    Memory [MiB]:              375
    Schwarz Cutoff:          1E-12

    OpenMP threads:              1

  Minimum eigenvalue in the overlap matrix is 3.5429318828E-04.
  Using Symmetric Orthogonalization.

  SCF Guess: Superposition of Atomic Densities via on-the-fly atomic UHF.

  ==> Iterations <==

                        Total Energy        Delta E     RMS |[F,P]|

   @RHF iter SAD:  -422.45048276199987   -4.22450e+02   0.00000e+00
   @RHF iter   1:  -423.60387360048679   -1.15339e+00   2.93292e-03 DIIS
   @RHF iter   2:  -423.81399603417947   -2.10122e-01   1.23845e-03 DIIS
   @RHF iter   3:  -423.84767104072756   -3.36750e-02   2.88983e-04 DIIS
   @RHF iter   4:  -423.85053856883439   -2.86753e-03   1.24337e-04 DIIS
   @RHF iter   5:  -423.85093715932885   -3.98590e-04   2.03014e-05 DIIS
   @RHF iter   6:  -423.85095453871673   -1.73794e-05   6.53085e-06 DIIS
   @RHF iter   7:  -423.85095622182325   -1.68311e-06   2.17960e-06 DIIS
   @RHF iter   8:  -423.85095646692594   -2.45103e-07   7.95168e-07 DIIS
   @RHF iter   9:  -423.85095650595798   -3.90320e-08   3.04069e-07 DIIS
   @RHF iter  10:  -423.85095651276254   -6.80456e-09   1.25337e-07 DIIS
   @RHF iter  11:  -423.85095651484841   -2.08587e-09   5.81321e-08 DIIS
   @RHF iter  12:  -423.85095651526780   -4.19391e-10   2.76907e-08 DIIS
   @RHF iter  13:  -423.85095651534743   -7.96376e-11   8.59364e-09 DIIS
   @RHF iter  14:  -423.85095651535357   -6.13909e-12   2.39130e-09 DIIS
   @RHF iter  15:  -423.85095651535312    4.54747e-13   8.28625e-10 DIIS
   @RHF iter  16:  -423.85095651535403   -9.09495e-13   3.18853e-10 DIIS
   @RHF iter  17:  -423.85095651535187    2.16005e-12   1.43792e-10 DIIS
   @RHF iter  18:  -423.85095651535335   -1.47793e-12   7.27127e-11 DIIS
  Energy and wave function converged.

  ==> Post-Iterations <==

    Orbital Energies [Eh]
    ---------------------

    Doubly Occupied:

       1A    -20.582963     2A    -11.304700     3A    -11.245202
       4A    -11.241461     5A    -11.238774     6A    -11.238186
       7A    -11.236657     8A    -11.230565     9A    -11.219831
      10A    -11.214499    11A     -1.393474    12A     -1.144510
      13A     -1.035790    14A     -1.011931    15A     -1.009682
      16A     -0.926659    17A     -0.842434    18A     -0.836900
      19A     -0.800425    20A     -0.729218    21A     -0.665245
      22A     -0.642123    23A     -0.606390    24A     -0.594720
      25A     -0.593489    26A     -0.582743    27A     -0.582138
      28A     -0.570214    29A     -0.567257    30A     -0.525123
      31A     -0.498052    32A     -0.496355    33A     -0.486292
      34A     -0.485519    35A     -0.483190    36A     -0.462393
      37A     -0.333459    38A     -0.304627

    Virtual:

      39A      0.123804    40A      0.152630    41A      0.167380
      42A      0.181210    43A      0.200125    44A      0.214233
      45A      0.223105    46A      0.235944    47A      0.254122
      48A      0.257160    49A      0.267932    50A      0.274563
      51A      0.277435    52A      0.281398    53A      0.296995
      54A      0.327500    55A      0.364029    56A      0.366758
      57A      0.390872    58A      0.422572    59A      0.447718
      60A      0.475512    61A      0.489021    62A      0.507810
      63A      0.591326    64A      0.599053    65A      0.602154
      66A      0.613464    67A      0.630951    68A      0.641330
      69A      0.656085    70A      0.671839    71A      0.684382
      72A      0.699158    73A      0.701075    74A      0.715215
      75A      0.731998    76A      0.740682    77A      0.752796
      78A      0.769787    79A      0.774240    80A      0.789541
      81A      0.812890    82A      0.819498    83A      0.845372
      84A      0.855185    85A      0.871798    86A      0.882153
      87A      0.882906    88A      0.884370    89A      0.892547
      90A      0.895716    91A      0.900329    92A      0.914475
      93A      0.918644    94A      0.928086    95A      0.935756
      96A      0.939519    97A      0.944897    98A      0.959713
      99A      0.996987   100A      1.007295   101A      1.038525
     102A      1.066001   103A      1.109352   104A      1.122579
     105A      1.131014   106A      1.133751   107A      1.146320
     108A      1.181090   109A      1.193878   110A      1.233453
     111A      1.243263   112A      1.252868   113A      1.260272
     114A      1.283254   115A      1.301367   116A      1.305425
     117A      1.326100   118A      1.337951   119A      1.356271
     120A      1.385286   121A      1.460356   122A      1.473213
     123A      1.488097   124A      1.501091   125A      1.533852
     126A      1.543240   127A      1.579734   128A      1.602520
     129A      1.623559   130A      1.677240   131A      1.684820
     132A      1.689474   133A      1.708597   134A      1.723382
     135A      1.741170   136A      1.777683   137A      1.796648
     138A      1.802391   139A      1.853610   140A      1.861034
     141A      1.869404   142A      1.872473   143A      1.887307
     144A      1.893182   145A      1.897245   146A      1.905095
     147A      1.914330   148A      1.932085   149A      1.938275
     150A      1.940132   151A      1.955163   152A      1.959299
     153A      1.964957   154A      1.965576   155A      1.983613
     156A      1.990485   157A      2.018233   158A      2.038233
     159A      2.047854   160A      2.054811   161A      2.067261
     162A      2.089502   163A      2.125100   164A      2.128642
     165A      2.156723   166A      2.162886   167A      2.192866
     168A      2.207509   169A      2.245832   170A      2.259740
     171A      2.285315   172A      2.304259   173A      2.309393
     174A      2.337894   175A      2.357560   176A      2.404770
     177A      2.437606   178A      2.455910   179A      2.468292
     180A      2.470587   181A      2.484716   182A      2.516314
     183A      2.520988   184A      2.554349   185A      2.589396
     186A      2.598871   187A      2.627709   188A      2.721340
     189A      2.765496   190A      2.765930   191A      2.776989
     192A      2.793671   193A      2.806790   194A      2.832140
     195A      2.844119   196A      2.860171   197A      2.887380
     198A      2.934084   199A      2.938822   200A      2.966986
     201A      2.989148   202A      3.055783   203A      3.099766
     204A      3.242929   205A      3.252188   206A      3.339174
     207A      3.552523   208A      3.631221   209A      3.944933
     210A      4.173758

    Final Occupation by Irrep:
              A
    DOCC [    38 ]

  @RHF Final Energy:  -423.85095651535335

   => Energetics <=

    Nuclear Repulsion Energy =            489.0305046638684985
    One-Electron Energy =               -1543.8365414615923328
    Two-Electron Energy =                 630.9550802823705453
    Total Energy =                       -423.8509565153533458

Computation Completed

Properties will be evaluated at   0.000000,   0.000000,   0.000000 [a0]

Properties computed using the SCF density matrix

  Nuclear Dipole Moment: [e a0]
     X:    -0.7308      Y:    14.1703      Z:    -7.5820

  Electronic Dipole Moment: [e a0]
     X:     0.3763      Y:   -13.7827      Z:     7.5076

  Dipole Moment: [e a0]
     X:    -0.3545      Y:     0.3876      Z:    -0.0744     Total:     0.5305

  Dipole Moment: [D]
     X:    -0.9010      Y:     0.9851      Z:    -0.1891     Total:     1.3483

*** tstop() called on ds3 at Tue Apr 28 14:13:19 2020
Module time:
	user time   =      90.71 seconds =       1.51 minutes
	system time =      45.45 seconds =       0.76 minutes
	total time  =        130 seconds =       2.17 minutes
Total time:
	user time   =      90.71 seconds =       1.51 minutes
	system time =      45.45 seconds =       0.76 minutes
	total time  =        130 seconds =       2.17 minutes
                                     G D M A

                                 by Anthony Stone

                           version 2.2.06, 22 June 2011

               Distributed Multipoles from Gaussian wavefunctions

Starting at 14:13:19 on 28 Apr 2020

Using SCF density matrix from file ./SSI/SSI-003VAL-064TYR-1-dimer.test.4379.fchk

                         Distributed Multipole Analysis

Standard DMA

Positions and radii in angstrom
Multipole moments in atomic units, ea_0^k for rank k

C          x =  1.037703  y =  3.220602  z = -0.060818 angstrom
           Maximum rank =  0   Radius =  0.650 angstrom
                   Q00  =  -0.242976

C          x =  0.430703  y =  4.224602  z = -1.079818 angstrom
           Maximum rank =  0   Radius =  0.650 angstrom
                   Q00  =  -0.245992

H          x =  2.122703  y =  3.292602  z = -0.074818 angstrom
           Maximum rank =  0   Radius =  0.325 angstrom
                   Q00  =   0.080224

H          x =  0.696703  y =  3.457602  z =  0.947182 angstrom
           Maximum rank =  0   Radius =  0.325 angstrom
                   Q00  =   0.073582

H          x =  0.738703  y =  2.205602  z = -0.317818 angstrom
           Maximum rank =  0   Radius =  0.325 angstrom
                   Q00  =   0.096444

H          x =  0.884703  y =  5.188602  z = -0.857818 angstrom
           Maximum rank =  0   Radius =  0.325 angstrom
                   Q00  =   0.075139

H          x =  0.638553  y =  3.982697  z = -2.132568 angstrom
           Maximum rank =  0   Radius =  0.325 angstrom
                   Q00  =   0.086739

H          x = -0.646867  y =  4.322303  z = -0.881558 angstrom
           Maximum rank =  0   Radius =  0.325 angstrom
                   Q00  =   0.075250

C          x = -1.470297  y = -0.921398  z = -2.518818 angstrom
           Maximum rank =  0   Radius =  0.650 angstrom
                   Q00  =  -0.200430

C          x = -0.476297  y = -0.059398  z =  1.070182 angstrom
           Maximum rank =  0   Radius =  0.650 angstrom
                   Q00  =  -0.158658

C          x = -1.090297  y = -0.029398  z = -0.194818 angstrom
           Maximum rank =  0   Radius =  0.650 angstrom
                   Q00  =   0.025429

C          x =  0.415703  y = -1.090398  z =  1.408182 angstrom
           Maximum rank =  0   Radius =  0.650 angstrom
                   Q00  =   0.266403

C          x = -0.802297  y = -0.995398  z = -1.158818 angstrom
           Maximum rank =  0   Radius =  0.650 angstrom
                   Q00  =  -0.133655

C          x =  0.699703  y = -2.082398  z =  0.459182 angstrom
           Maximum rank =  0   Radius =  0.650 angstrom
                   Q00  =  -0.121883

C          x =  0.084703  y = -2.031398  z = -0.825818 angstrom
           Maximum rank =  0   Radius =  0.650 angstrom
                   Q00  =  -0.025868

O          x =  0.927703  y = -1.129398  z =  2.687182 angstrom
           Maximum rank =  0   Radius =  0.650 angstrom
                   Q00  =  -0.652077

H          x = -0.718297  y =  0.705602  z =  1.794182 angstrom
           Maximum rank =  0   Radius =  0.325 angstrom
                   Q00  =   0.072148

H          x = -1.777297  y =  0.773602  z = -0.425818 angstrom
           Maximum rank =  0   Radius =  0.325 angstrom
                   Q00  =   0.071857

H          x =  0.627703  y = -0.389398  z =  3.221182 angstrom
           Maximum rank =  0   Radius =  0.325 angstrom
                   Q00  =   0.408741

H          x =  1.370703  y = -2.890398  z =  0.715182 angstrom
           Maximum rank =  0   Radius =  0.325 angstrom
                   Q00  =   0.085210

H          x = -2.305297  y = -0.223398  z = -2.451818 angstrom
           Maximum rank =  0   Radius =  0.325 angstrom
                   Q00  =   0.094894

H          x = -1.898297  y = -1.897398  z = -2.753818 angstrom
           Maximum rank =  0   Radius =  0.325 angstrom
                   Q00  =   0.098378

H          x =  0.296703  y = -2.812398  z = -1.543818 angstrom
           Maximum rank =  0   Radius =  0.325 angstrom
                   Q00  =   0.068431

H          x = -0.814737  y = -0.594338  z = -3.339349 angstrom
           Maximum rank =  0   Radius =  0.325 angstrom
                   Q00  =   0.102669

Total multipoles referred to origin at
           x =   0.000000,  y =    0.000000,  z =    0.000000 angstrom
                   Q00  =  -0.000000

Finished at 14:13:19 on 28 Apr 2020

  DMA results are available in the Python driver through the
	  variable('DMA DISTRIBUTED MULTIPOLES')
  and
	  variable('DMA TOTAL MULTIPOLES')
  commands.

    Psi4 stopped on: Tuesday, 28 April 2020 02:13PM
    Psi4 wall time for execution: 0:02:10.29

*** Psi4 exiting successfully. Buy a developer a beer!
