                               Psi4 1.3.2 release

  ==> Input File <==

--------------------------------------------------------------------------
import numpy as np
set {scf_type pk
basis cc-pvdz
d_convergence 10
gdma_switch   0
gdma_limit    0
gdma_origin   [ 0.0,  0.0,  0.0 ]
}
molecule test {
    units Angstrom
    0 1
    --
    0 1
    C                1.946220292534750    -4.254357730965244     0.426853916730305
    C                0.774220292534751    -0.571357730965243     2.337853916730305
    C                0.047220292534751    -1.741357730965243     2.555853916730305
    C                1.892220292534751    -0.599357730965243     1.509853916730305
    C                0.438220292534751    -2.933357730965243     1.950853916730305
    C                2.269220292534750    -1.796357730965243     0.887853916730305
    C                1.547220292534751    -2.966357730965243     1.103853916730305
    H                0.467220292534751     0.352642269034757     2.806853916730305
    H               -0.815779707465249    -1.732357730965243     3.204853916730305
    H                2.460220292534750     0.303642269034757     1.336853916730305
    H               -0.129779707465249    -3.834357730965243     2.128853916730305
    H                3.127220292534751    -1.806357730965243     0.228853916730305
    H                1.734220292534751    -5.090357730965243     1.095853916730305
    H                3.024220292534750    -4.239357730965243     0.256853916730305
    H                1.440635072534751    -4.422168730965244    -0.535546083269695
    C                1.528220292534751     0.799642269034757    -2.147146083269696
    C               -0.644779707465249     0.601642269034757    -0.849146083269695
    C                0.167220292534751     1.331642269034757    -1.724146083269695
    C               -1.884779707465249     1.098642269034757    -0.440146083269695
    C               -2.315779707465250     2.342642269034757    -0.900146083269695
    C               -0.278779707465249     2.581642269034757    -2.169146083269695
    C               -1.512779707465249     3.088642269034756    -1.761146083269695
    O               -3.525779707465249     2.820642269034757    -0.505146083269695
    H               -0.307779707465249    -0.360357730965243    -0.482146083269695
    H               -2.502779707465250     0.523642269034757     0.233853916730305
    H                2.065220292534751     0.511642269034757    -1.245146083269695
    H                2.087220292534751     1.608642269034757    -2.618146083269695
    H                0.340220292534751     3.169642269034757    -2.833146083269695
    H               -3.991779707465250     2.195642269034757     0.057853916730305
    H               -1.851779707465249     4.054642269034757    -2.104146083269695
    H                1.503131712534751    -0.065555730965243    -2.825976083269695

}
e, wfn = energy('scf', return_wfn=True)
gdma(wfn)
dmavals = variable('DMA DISTRIBUTED MULTIPOLES')
charges = np.array(dmavals)
print(charges)
np.save('SSI-070PHE-120TYR-1-dimer.npy', np.array(charges))--------------------------------------------------------------------------

*** tstart() called on ds3
*** at Sun Apr 26 20:30:50 2020

   => Loading Basis Set <=

    Name: CC-PVDZ
    Role: ORBITAL
    Keyword: BASIS
    atoms 1-7, 16-22  entry C          line   138 file /theoryfs2/ds/metcalf/miniconda2/envs/tf2gpu/share/psi4/basis/cc-pvdz.gbs
    atoms 8-15, 24-31 entry H          line    22 file /theoryfs2/ds/metcalf/miniconda2/envs/tf2gpu/share/psi4/basis/cc-pvdz.gbs
    atoms 23          entry O          line   198 file /theoryfs2/ds/metcalf/miniconda2/envs/tf2gpu/share/psi4/basis/cc-pvdz.gbs

         ---------------------------------------------------------
                                   SCF
               by Justin Turney, Rob Parrish, Andy Simmonett
                          and Daniel G. A. Smith
                              RHF Reference
                        1 Threads,    500 MiB Core
         ---------------------------------------------------------

  ==> Geometry <==

    Molecular point group: c1
    Full point group: C1

    Geometry (in Angstrom), charge = 0, multiplicity = 1:

       Center              X                  Y                   Z               Mass
    ------------   -----------------  -----------------  -----------------  -----------------
         C            1.946220292535    -4.254357730965     0.426853916730    12.000000000000
         C            0.774220292535    -0.571357730965     2.337853916730    12.000000000000
         C            0.047220292535    -1.741357730965     2.555853916730    12.000000000000
         C            1.892220292535    -0.599357730965     1.509853916730    12.000000000000
         C            0.438220292535    -2.933357730965     1.950853916730    12.000000000000
         C            2.269220292535    -1.796357730965     0.887853916730    12.000000000000
         C            1.547220292535    -2.966357730965     1.103853916730    12.000000000000
         H            0.467220292535     0.352642269035     2.806853916730     1.007825032230
         H           -0.815779707465    -1.732357730965     3.204853916730     1.007825032230
         H            2.460220292535     0.303642269035     1.336853916730     1.007825032230
         H           -0.129779707465    -3.834357730965     2.128853916730     1.007825032230
         H            3.127220292535    -1.806357730965     0.228853916730     1.007825032230
         H            1.734220292535    -5.090357730965     1.095853916730     1.007825032230
         H            3.024220292535    -4.239357730965     0.256853916730     1.007825032230
         H            1.440635072535    -4.422168730965    -0.535546083270     1.007825032230
         C            1.528220292535     0.799642269035    -2.147146083270    12.000000000000
         C           -0.644779707465     0.601642269035    -0.849146083270    12.000000000000
         C            0.167220292535     1.331642269035    -1.724146083270    12.000000000000
         C           -1.884779707465     1.098642269035    -0.440146083270    12.000000000000
         C           -2.315779707465     2.342642269035    -0.900146083270    12.000000000000
         C           -0.278779707465     2.581642269035    -2.169146083270    12.000000000000
         C           -1.512779707465     3.088642269035    -1.761146083270    12.000000000000
         O           -3.525779707465     2.820642269035    -0.505146083270    15.994914619570
         H           -0.307779707465    -0.360357730965    -0.482146083270     1.007825032230
         H           -2.502779707465     0.523642269035     0.233853916730     1.007825032230
         H            2.065220292535     0.511642269035    -1.245146083270     1.007825032230
         H            2.087220292535     1.608642269035    -2.618146083270     1.007825032230
         H            0.340220292535     3.169642269035    -2.833146083270     1.007825032230
         H           -3.991779707465     2.195642269035     0.057853916730     1.007825032230
         H           -1.851779707465     4.054642269035    -2.104146083270     1.007825032230
         H            1.503131712535    -0.065555730965    -2.825976083270     1.007825032230

  Running in c1 symmetry.

  Rotational constants: A =      0.03387  B =      0.00927  C =      0.00811 [cm^-1]
  Rotational constants: A =   1015.26785  B =    277.95805  C =    243.09436 [MHz]
  Nuclear repulsion =  885.023147270499180

  Charge       = 0
  Multiplicity = 1
  Electrons    = 108
  Nalpha       = 54
  Nbeta        = 54

  ==> Algorithm <==

  SCF Algorithm Type is PK.
  DIIS enabled.
  MOM disabled.
  Fractional occupation disabled.
  Guess Type is SAD.
  Energy threshold   = 1.00e-06
  Density threshold  = 1.00e-10
  Integral threshold = 0.00e+00

  ==> Primary Basis <==

  Basis Set: CC-PVDZ
    Blend: CC-PVDZ
    Number of shells: 138
    Number of basis function: 290
    Number of Cartesian functions: 305
    Spherical Harmonics?: true
    Max angular momentum: 2

  ==> Pre-Iterations <==

   -------------------------------------------------------
    Irrep   Nso     Nmo     Nalpha   Nbeta   Ndocc  Nsocc
   -------------------------------------------------------
     A        290     290       0       0       0       0
   -------------------------------------------------------
    Total     290     290      54      54      54       0
   -------------------------------------------------------

  ==> Integral Setup <==

  Using integral reordering PK algorithm.
  Sizing the integral batches needed.
  Building batch lookup table.
   Calculation information:
      Number of atoms:                  31
      Number of AO shells:             138
      Number of primitives:            410
      Number of atomic orbitals:       305
      Number of basis functions:       290

      Integral cutoff                 1.00e-12
      Number of threads:                 1

	Batch   1 pq = [       0,    9405] index = [             0,44231715] size =     44231715
	Batch   2 pq = [    9405,   13301] index = [      44231715,88464951] size =     44233236
	Batch   3 pq = [   13301,   16290] index = [      88464951,132690195] size =     44225244
	Batch   4 pq = [   16290,   18810] index = [     132690195,176917455] size =     44227260
	Batch   5 pq = [   18810,   21030] index = [     176917455,221140965] size =     44223510
	Batch   6 pq = [   21030,   23037] index = [     221140965,265363203] size =     44222238
	Batch   7 pq = [   23037,   24883] index = [     265363203,309594286] size =     44231083
	Batch   8 pq = [   24883,   26601] index = [     309594286,353819901] size =     44225615
	Batch   9 pq = [   26601,   28214] index = [     353819901,398029005] size =     44209104
	Batch  10 pq = [   28214,   29740] index = [     398029005,442248670] size =     44219665
	Batch  11 pq = [   29740,   31191] index = [     442248670,486454836] size =     44206166
	Batch  12 pq = [   31191,   32578] index = [     486454836,530679331] size =     44224495
	Batch  13 pq = [   32578,   33908] index = [     530679331,574893186] size =     44213855
	Batch  14 pq = [   33908,   35188] index = [     574893186,619115266] size =     44222080
	Batch  15 pq = [   35188,   36423] index = [     619115266,663335676] size =     44220410
	Batch  16 pq = [   36423,   37617] index = [     663335676,707538153] size =     44202477
	Batch  17 pq = [   37617,   38775] index = [     707538153,751769700] size =     44231547
	Batch  18 pq = [   38775,   39899] index = [     751769700,795985050] size =     44215350
	Batch  19 pq = [   39899,   40992] index = [     795985050,840192528] size =     44207478
	Batch  20 pq = [   40992,   42057] index = [     840192528,884416653] size =     44224125
	Batch  21 pq = [   42057,   42195] index = [     884416653,890230110] size =      5813457
  Task number: 81
  Buffer size: 11059200
  Buffer per thread: 2
  We computed 43751139 shell quartets total.
  Whereas there are 45998436 unique shell quartets.

  ==> DiskJK: Disk-Based J/K Matrices <==

    J tasked:                  Yes
    K tasked:                  Yes
    wK tasked:                  No
    Memory [MiB]:              375
    Schwarz Cutoff:          1E-12

    OpenMP threads:              1

  Minimum eigenvalue in the overlap matrix is 3.1393468438E-04.
  Using Symmetric Orthogonalization.

  SCF Guess: Superposition of Atomic Densities via on-the-fly atomic UHF.

  ==> Iterations <==

                        Total Energy        Delta E     RMS |[F,P]|

   @RHF iter SAD:  -613.12848072302472   -6.13128e+02   0.00000e+00
   @RHF iter   1:  -614.06582887758623   -9.37348e-01   2.35871e-03 DIIS
   @RHF iter   2:  -614.33886052849743   -2.73032e-01   9.72056e-04 DIIS
   @RHF iter   3:  -614.37944181033140   -4.05813e-02   2.33095e-04 DIIS
   @RHF iter   4:  -614.38299287868381   -3.55107e-03   9.06155e-05 DIIS
   @RHF iter   5:  -614.38339637162778   -4.03493e-04   1.74347e-05 DIIS
   @RHF iter   6:  -614.38341811041812   -2.17388e-05   5.83702e-06 DIIS
   @RHF iter   7:  -614.38342072847536   -2.61806e-06   1.85777e-06 DIIS
   @RHF iter   8:  -614.38342114847842   -4.20003e-07   7.46234e-07 DIIS
   @RHF iter   9:  -614.38342123834514   -8.98667e-08   3.71126e-07 DIIS
   @RHF iter  10:  -614.38342126108319   -2.27380e-08   1.65238e-07 DIIS
   @RHF iter  11:  -614.38342126818179   -7.09861e-09   5.94699e-08 DIIS
   @RHF iter  12:  -614.38342126887494   -6.93149e-10   2.59809e-08 DIIS
   @RHF iter  13:  -614.38342126896134   -8.64020e-11   6.77883e-09 DIIS
   @RHF iter  14:  -614.38342126896555   -4.20641e-12   2.09913e-09 DIIS
   @RHF iter  15:  -614.38342126896350    2.04636e-12   6.56833e-10 DIIS
   @RHF iter  16:  -614.38342126896828   -4.77485e-12   2.63114e-10 DIIS
   @RHF iter  17:  -614.38342126896737    9.09495e-13   1.08678e-10 DIIS
   @RHF iter  18:  -614.38342126896509    2.27374e-12   4.88351e-11 DIIS
  Energy and wave function converged.

  ==> Post-Iterations <==

    Orbital Energies [Eh]
    ---------------------

    Doubly Occupied:

       1A    -20.579101     2A    -11.295160     3A    -11.245321
       4A    -11.240262     5A    -11.240125     6A    -11.235866
       7A    -11.235512     8A    -11.235345     9A    -11.234573
      10A    -11.233296    11A    -11.232337    12A    -11.229109
      13A    -11.227652    14A    -11.225012    15A    -11.223955
      16A     -1.397570    17A     -1.156117    18A     -1.141985
      19A     -1.047648    20A     -1.028967    21A     -1.014945
      22A     -1.010620    23A     -0.934545    24A     -0.920418
      25A     -0.838108    26A     -0.829100    27A     -0.799339
      28A     -0.796736    29A     -0.726945    30A     -0.694476
      31A     -0.661466    32A     -0.635961    33A     -0.634610
      34A     -0.634140    35A     -0.601135    36A     -0.587007
      37A     -0.582217    38A     -0.581861    39A     -0.578711
      40A     -0.566080    41A     -0.564035    42A     -0.560942
      43A     -0.538290    44A     -0.522547    45A     -0.493336
      46A     -0.490893    47A     -0.489024    48A     -0.485172
      49A     -0.474982    50A     -0.460793    51A     -0.336845
      52A     -0.334007    53A     -0.323960    54A     -0.295551

    Virtual:

      55A      0.126396    56A      0.134456    57A      0.139847
      58A      0.160954    59A      0.174354    60A      0.182391
      61A      0.198007    62A      0.202687    63A      0.206243
      64A      0.230914    65A      0.234079    66A      0.244437
      67A      0.251668    68A      0.260519    69A      0.263289
      70A      0.274441    71A      0.286052    72A      0.295344
      73A      0.297918    74A      0.331142    75A      0.360560
      76A      0.372559    77A      0.375043    78A      0.384736
      79A      0.429660    80A      0.444773    81A      0.456993
      82A      0.460805    83A      0.476175    84A      0.489435
      85A      0.492728    86A      0.498542    87A      0.514410
      88A      0.558556    89A      0.592986    90A      0.613791
      91A      0.622884    92A      0.636606    93A      0.651576
      94A      0.655855    95A      0.670940    96A      0.676024
      97A      0.686114    98A      0.696764    99A      0.703290
     100A      0.709816   101A      0.718661   102A      0.726911
     103A      0.734653   104A      0.737593   105A      0.740708
     106A      0.745525   107A      0.753237   108A      0.758650
     109A      0.768911   110A      0.771183   111A      0.776456
     112A      0.788471   113A      0.798181   114A      0.802602
     115A      0.818142   116A      0.828801   117A      0.845394
     118A      0.848789   119A      0.858439   120A      0.864809
     121A      0.872151   122A      0.879681   123A      0.887741
     124A      0.892543   125A      0.895323   126A      0.898120
     127A      0.904350   128A      0.911722   129A      0.921241
     130A      0.922254   131A      0.932175   132A      0.938956
     133A      0.941329   134A      0.965238   135A      0.974530
     136A      0.988952   137A      0.998305   138A      1.009685
     139A      1.027469   140A      1.056219   141A      1.079416
     142A      1.101872   143A      1.111996   144A      1.122197
     145A      1.135768   146A      1.140970   147A      1.149308
     148A      1.152442   149A      1.158683   150A      1.175318
     151A      1.196230   152A      1.207572   153A      1.234133
     154A      1.236393   155A      1.241360   156A      1.250986
     157A      1.256322   158A      1.270680   159A      1.275614
     160A      1.286961   161A      1.289621   162A      1.304500
     163A      1.312505   164A      1.313266   165A      1.318586
     166A      1.319800   167A      1.342924   168A      1.361279
     169A      1.368688   170A      1.400498   171A      1.410839
     172A      1.490610   173A      1.500232   174A      1.508917
     175A      1.527063   176A      1.534480   177A      1.556373
     178A      1.557864   179A      1.600351   180A      1.622704
     181A      1.634173   182A      1.678867   183A      1.691686
     184A      1.694626   185A      1.704269   186A      1.725392
     187A      1.738206   188A      1.743459   189A      1.750794
     190A      1.772202   191A      1.784397   192A      1.801751
     193A      1.805045   194A      1.811448   195A      1.820697
     196A      1.856336   197A      1.876452   198A      1.884386
     199A      1.888642   200A      1.894661   201A      1.905506
     202A      1.908984   203A      1.912260   204A      1.915829
     205A      1.919320   206A      1.927855   207A      1.931281
     208A      1.940869   209A      1.947958   210A      1.953137
     211A      1.958103   212A      1.968577   213A      1.975884
     214A      1.985097   215A      1.992124   216A      2.013471
     217A      2.025811   218A      2.037159   219A      2.050658
     220A      2.060721   221A      2.065656   222A      2.066899
     223A      2.072966   224A      2.077231   225A      2.106383
     226A      2.127711   227A      2.142842   228A      2.150662
     229A      2.154291   230A      2.158239   231A      2.168681
     232A      2.174111   233A      2.195086   234A      2.205647
     235A      2.227138   236A      2.253486   237A      2.264275
     238A      2.273937   239A      2.279954   240A      2.289618
     241A      2.295331   242A      2.306526   243A      2.319910
     244A      2.330960   245A      2.356052   246A      2.370510
     247A      2.407767   248A      2.462024   249A      2.466535
     250A      2.471894   251A      2.485965   252A      2.489458
     253A      2.511743   254A      2.533798   255A      2.535916
     256A      2.542441   257A      2.608061   258A      2.614750
     259A      2.648064   260A      2.737331   261A      2.746270
     262A      2.754920   263A      2.762275   264A      2.775960
     265A      2.786255   266A      2.796500   267A      2.806784
     268A      2.822559   269A      2.844671   270A      2.865803
     271A      2.874110   272A      2.900102   273A      2.961054
     274A      2.978241   275A      3.002497   276A      3.008742
     277A      3.018446   278A      3.087843   279A      3.115088
     280A      3.147976   281A      3.193922   282A      3.255862
     283A      3.279814   284A      3.290367   285A      3.351712
     286A      3.581892   287A      3.673136   288A      3.957764
     289A      3.970709   290A      4.194602

    Final Occupation by Irrep:
              A
    DOCC [    54 ]

  @RHF Final Energy:  -614.38342126896509

   => Energetics <=

    Nuclear Repulsion Energy =            885.0231472704991802
    One-Electron Energy =               -2589.4457135637462670
    Two-Electron Energy =                1090.0391450242821065
    Total Energy =                       -614.3834212689650940

Computation Completed

Properties will be evaluated at   0.000000,   0.000000,   0.000000 [a0]

Properties computed using the SCF density matrix

  Nuclear Dipole Moment: [e a0]
     X:     8.0920      Y:    -8.2650      Z:    -1.2151

  Electronic Dipole Moment: [e a0]
     X:    -7.9431      Y:     7.5440      Z:     1.4948

  Dipole Moment: [e a0]
     X:     0.1489      Y:    -0.7210      Z:     0.2797     Total:     0.7876

  Dipole Moment: [D]
     X:     0.3786      Y:    -1.8327      Z:     0.7110     Total:     2.0019

*** tstop() called on ds3 at Sun Apr 26 20:39:44 2020
Module time:
	user time   =     377.60 seconds =       6.29 minutes
	system time =     138.67 seconds =       2.31 minutes
	total time  =        534 seconds =       8.90 minutes
Total time:
	user time   =     377.60 seconds =       6.29 minutes
	system time =     138.67 seconds =       2.31 minutes
	total time  =        534 seconds =       8.90 minutes
                                     G D M A

                                 by Anthony Stone

                           version 2.2.06, 22 June 2011

               Distributed Multipoles from Gaussian wavefunctions

Starting at 20:39:44 on 26 Apr 2020

Using SCF density matrix from file ./SSI/SSI-070PHE-120TYR-1-dimer.test.14535.fchk

                         Distributed Multipole Analysis

Standard DMA

Positions and radii in angstrom
Multipole moments in atomic units, ea_0^k for rank k

C          x =  1.946220  y = -4.254358  z =  0.426854 angstrom
           Maximum rank =  0   Radius =  0.650 angstrom
                   Q00  =  -0.199254

C          x =  0.774220  y = -0.571358  z =  2.337854 angstrom
           Maximum rank =  0   Radius =  0.650 angstrom
                   Q00  =  -0.082546

C          x =  0.047220  y = -1.741358  z =  2.555854 angstrom
           Maximum rank =  0   Radius =  0.650 angstrom
                   Q00  =  -0.082443

C          x =  1.892220  y = -0.599358  z =  1.509854 angstrom
           Maximum rank =  0   Radius =  0.650 angstrom
                   Q00  =  -0.079671

C          x =  0.438220  y = -2.933358  z =  1.950854 angstrom
           Maximum rank =  0   Radius =  0.650 angstrom
                   Q00  =  -0.046454

C          x =  2.269220  y = -1.796358  z =  0.887854 angstrom
           Maximum rank =  0   Radius =  0.650 angstrom
                   Q00  =  -0.020873

C          x =  1.547220  y = -2.966358  z =  1.103854 angstrom
           Maximum rank =  0   Radius =  0.650 angstrom
                   Q00  =  -0.105472

H          x =  0.467220  y =  0.352642  z =  2.806854 angstrom
           Maximum rank =  0   Radius =  0.325 angstrom
                   Q00  =   0.066888

H          x = -0.815780  y = -1.732358  z =  3.204854 angstrom
           Maximum rank =  0   Radius =  0.325 angstrom
                   Q00  =   0.064626

H          x =  2.460220  y =  0.303642  z =  1.336854 angstrom
           Maximum rank =  0   Radius =  0.325 angstrom
                   Q00  =   0.069316

H          x = -0.129780  y = -3.834358  z =  2.128854 angstrom
           Maximum rank =  0   Radius =  0.325 angstrom
                   Q00  =   0.058208

H          x =  3.127220  y = -1.806358  z =  0.228854 angstrom
           Maximum rank =  0   Radius =  0.325 angstrom
                   Q00  =   0.059208

H          x =  1.734220  y = -5.090358  z =  1.095854 angstrom
           Maximum rank =  0   Radius =  0.325 angstrom
                   Q00  =   0.099186

H          x =  3.024220  y = -4.239358  z =  0.256854 angstrom
           Maximum rank =  0   Radius =  0.325 angstrom
                   Q00  =   0.098205

H          x =  1.440635  y = -4.422169  z = -0.535546 angstrom
           Maximum rank =  0   Radius =  0.325 angstrom
                   Q00  =   0.106147

C          x =  1.528220  y =  0.799642  z = -2.147146 angstrom
           Maximum rank =  0   Radius =  0.650 angstrom
                   Q00  =  -0.192947

C          x = -0.644780  y =  0.601642  z = -0.849146 angstrom
           Maximum rank =  0   Radius =  0.650 angstrom
                   Q00  =  -0.018851

C          x =  0.167220  y =  1.331642  z = -1.724146 angstrom
           Maximum rank =  0   Radius =  0.650 angstrom
                   Q00  =  -0.146851

C          x = -1.884780  y =  1.098642  z = -0.440146 angstrom
           Maximum rank =  0   Radius =  0.650 angstrom
                   Q00  =  -0.181683

C          x = -2.315780  y =  2.342642  z = -0.900146 angstrom
           Maximum rank =  0   Radius =  0.650 angstrom
                   Q00  =   0.313230

C          x = -0.278780  y =  2.581642  z = -2.169146 angstrom
           Maximum rank =  0   Radius =  0.650 angstrom
                   Q00  =   0.034452

C          x = -1.512780  y =  3.088642  z = -1.761146 angstrom
           Maximum rank =  0   Radius =  0.650 angstrom
                   Q00  =  -0.126086

O          x = -3.525780  y =  2.820642  z = -0.505146 angstrom
           Maximum rank =  0   Radius =  0.650 angstrom
                   Q00  =  -0.670775

H          x = -0.307780  y = -0.360358  z = -0.482146 angstrom
           Maximum rank =  0   Radius =  0.325 angstrom
                   Q00  =   0.081351

H          x = -2.502780  y =  0.523642  z =  0.233854 angstrom
           Maximum rank =  0   Radius =  0.325 angstrom
                   Q00  =   0.067738

H          x =  2.065220  y =  0.511642  z = -1.245146 angstrom
           Maximum rank =  0   Radius =  0.325 angstrom
                   Q00  =   0.096294

H          x =  2.087220  y =  1.608642  z = -2.618146 angstrom
           Maximum rank =  0   Radius =  0.325 angstrom
                   Q00  =   0.092826

H          x =  0.340220  y =  3.169642  z = -2.833146 angstrom
           Maximum rank =  0   Radius =  0.325 angstrom
                   Q00  =   0.063454

H          x = -3.991780  y =  2.195642  z =  0.057854 angstrom
           Maximum rank =  0   Radius =  0.325 angstrom
                   Q00  =   0.404956

H          x = -1.851780  y =  4.054642  z = -2.104146 angstrom
           Maximum rank =  0   Radius =  0.325 angstrom
                   Q00  =   0.078729

H          x =  1.503132  y = -0.065556  z = -2.825976 angstrom
           Maximum rank =  0   Radius =  0.325 angstrom
                   Q00  =   0.099094

Total multipoles referred to origin at
           x =   0.000000,  y =    0.000000,  z =    0.000000 angstrom
                   Q00  =  -0.000000

Finished at 20:39:44 on 26 Apr 2020

  DMA results are available in the Python driver through the
	  variable('DMA DISTRIBUTED MULTIPOLES')
  and
	  variable('DMA TOTAL MULTIPOLES')
  commands.

    Psi4 stopped on: Sunday, 26 April 2020 08:39PM
    Psi4 wall time for execution: 0:08:54.50

*** Psi4 exiting successfully. Buy a developer a beer!
