                               Psi4 1.3.2 release

  ==> Input File <==

--------------------------------------------------------------------------
import numpy as np
set {scf_type pk
basis cc-pvdz
d_convergence 10
gdma_switch   0
gdma_limit    0
gdma_origin   [ 0.0,  0.0,  0.0 ]
}
molecule test {
    units Angstrom
    0 1
    --
    0 1
    C               -0.716220758669365     0.806047193229656     0.836479108343939
    C               -0.963220758669365     1.629047193229656     2.086479108343939
    C                1.470779241330634     2.155047193229656    -0.261520891656061
    S               -0.258220758669365     1.803047193229656    -0.599520891656061
    H                0.093779241330635     0.107047193229656     1.038479108343939
    H               -1.619220758669365     0.245047193229656     0.599479108343939
    H               -1.877220758669365     2.189047193229656     1.912479108343939
    H               -0.132220758669365     2.320047193229656     2.225479108343939
    H                2.060779241330635     1.246047193229656    -0.373520891656061
    H                1.850779241330635     2.921047193229656    -0.925520891656061
    H                1.537779241330635     2.523047193229656     0.755479108343939
    H               -1.107825758669365     1.024006193229656     2.993679108343939
    C               -0.259220758669365    -2.729952806770344    -0.200520891656061
    C                1.002779241330635    -3.237952806770344     0.509479108343939
    C               -0.093220758669365    -2.553952806770344    -1.717520891656061
    H               -1.055220758669365    -3.449952806770344    -0.024520891656061
    H               -0.584220758669365    -1.793952806770344     0.239479108343939
    H                1.416779241330635    -4.069952806770344    -0.061520891656061
    H               -1.048220758669365    -2.228952806770344    -2.131520891656061
    H                0.638779241330635    -1.777952806770344    -1.933520891656061
    H                0.748813241330635    -3.664975806770344     1.490879108343939
    H                1.798002241330635    -2.478153806770344     0.491409108343939
    H                0.211457241330635    -3.496728806770344    -2.195380891656061

}
e, wfn = energy('scf', return_wfn=True)
gdma(wfn)
dmavals = variable('DMA DISTRIBUTED MULTIPOLES')
charges = np.array(dmavals)
print(charges)
np.save('SSI-248MET-298ARG-1-dimer.npy', np.array(charges))--------------------------------------------------------------------------

*** tstart() called on ds3
*** at Mon Apr 27 23:39:20 2020

   => Loading Basis Set <=

    Name: CC-PVDZ
    Role: ORBITAL
    Keyword: BASIS
    atoms 1-3, 13-15  entry C          line   138 file /theoryfs2/ds/metcalf/miniconda2/envs/tf2gpu/share/psi4/basis/cc-pvdz.gbs
    atoms 4           entry S          line   598 file /theoryfs2/ds/metcalf/miniconda2/envs/tf2gpu/share/psi4/basis/cc-pvdz.gbs
    atoms 5-12, 16-23 entry H          line    22 file /theoryfs2/ds/metcalf/miniconda2/envs/tf2gpu/share/psi4/basis/cc-pvdz.gbs

         ---------------------------------------------------------
                                   SCF
               by Justin Turney, Rob Parrish, Andy Simmonett
                          and Daniel G. A. Smith
                              RHF Reference
                        1 Threads,    500 MiB Core
         ---------------------------------------------------------

  ==> Geometry <==

    Molecular point group: c1
    Full point group: C1

    Geometry (in Angstrom), charge = 0, multiplicity = 1:

       Center              X                  Y                   Z               Mass
    ------------   -----------------  -----------------  -----------------  -----------------
         C           -0.716220758669     0.806047193230     0.836479108344    12.000000000000
         C           -0.963220758669     1.629047193230     2.086479108344    12.000000000000
         C            1.470779241331     2.155047193230    -0.261520891656    12.000000000000
         S           -0.258220758669     1.803047193230    -0.599520891656    31.972071174400
         H            0.093779241331     0.107047193230     1.038479108344     1.007825032230
         H           -1.619220758669     0.245047193230     0.599479108344     1.007825032230
         H           -1.877220758669     2.189047193230     1.912479108344     1.007825032230
         H           -0.132220758669     2.320047193230     2.225479108344     1.007825032230
         H            2.060779241331     1.246047193230    -0.373520891656     1.007825032230
         H            1.850779241331     2.921047193230    -0.925520891656     1.007825032230
         H            1.537779241331     2.523047193230     0.755479108344     1.007825032230
         H           -1.107825758669     1.024006193230     2.993679108344     1.007825032230
         C           -0.259220758669    -2.729952806770    -0.200520891656    12.000000000000
         C            1.002779241331    -3.237952806770     0.509479108344    12.000000000000
         C           -0.093220758669    -2.553952806770    -1.717520891656    12.000000000000
         H           -1.055220758669    -3.449952806770    -0.024520891656     1.007825032230
         H           -0.584220758669    -1.793952806770     0.239479108344     1.007825032230
         H            1.416779241331    -4.069952806770    -0.061520891656     1.007825032230
         H           -1.048220758669    -2.228952806770    -2.131520891656     1.007825032230
         H            0.638779241331    -1.777952806770    -1.933520891656     1.007825032230
         H            0.748813241331    -3.664975806770     1.490879108344     1.007825032230
         H            1.798002241331    -2.478153806770     0.491409108344     1.007825032230
         H            0.211457241331    -3.496728806770    -2.195380891656     1.007825032230

  Running in c1 symmetry.

  Rotational constants: A =      0.07639  B =      0.02484  C =      0.02239 [cm^-1]
  Rotational constants: A =   2290.22337  B =    744.55247  C =    671.17659 [MHz]
  Nuclear repulsion =  373.210521752481839

  Charge       = 0
  Multiplicity = 1
  Electrons    = 68
  Nalpha       = 34
  Nbeta        = 34

  ==> Algorithm <==

  SCF Algorithm Type is PK.
  DIIS enabled.
  MOM disabled.
  Fractional occupation disabled.
  Guess Type is SAD.
  Energy threshold   = 1.00e-06
  Density threshold  = 1.00e-10
  Integral threshold = 0.00e+00

  ==> Primary Basis <==

  Basis Set: CC-PVDZ
    Blend: CC-PVDZ
    Number of shells: 92
    Number of basis function: 182
    Number of Cartesian functions: 189
    Spherical Harmonics?: true
    Max angular momentum: 2

  ==> Pre-Iterations <==

   -------------------------------------------------------
    Irrep   Nso     Nmo     Nalpha   Nbeta   Ndocc  Nsocc
   -------------------------------------------------------
     A        182     182       0       0       0       0
   -------------------------------------------------------
    Total     182     182      34      34      34       0
   -------------------------------------------------------

  ==> Integral Setup <==

  Using integral reordering PK algorithm.
  Sizing the integral batches needed.
  Building batch lookup table.
   Calculation information:
      Number of atoms:                  23
      Number of AO shells:              92
      Number of primitives:            262
      Number of atomic orbitals:       189
      Number of basis functions:       182

      Integral cutoff                 1.00e-12
      Number of threads:                 1

	Batch   1 pq = [       0,    9405] index = [             0,44231715] size =     44231715
	Batch   2 pq = [    9405,   13301] index = [      44231715,88464951] size =     44233236
	Batch   3 pq = [   13301,   16290] index = [      88464951,132690195] size =     44225244
	Batch   4 pq = [   16290,   16653] index = [     132690195,138669531] size =      5979336
  Task number: 13
  Buffer size: 11059200
  Buffer per thread: 2
  We computed 7780666 shell quartets total.
  Whereas there are 9152781 unique shell quartets.

  ==> DiskJK: Disk-Based J/K Matrices <==

    J tasked:                  Yes
    K tasked:                  Yes
    wK tasked:                  No
    Memory [MiB]:              375
    Schwarz Cutoff:          1E-12

    OpenMP threads:              1

  Minimum eigenvalue in the overlap matrix is 5.6288470770E-03.
  Using Symmetric Orthogonalization.

  SCF Guess: Superposition of Atomic Densities via on-the-fly atomic UHF.

  ==> Iterations <==

                        Total Energy        Delta E     RMS |[F,P]|

   @RHF iter SAD:  -632.94876624583765   -6.32949e+02   0.00000e+00
   @RHF iter   1:  -633.84872122441243   -8.99955e-01   3.00101e-03 DIIS
   @RHF iter   2:  -634.02709061404698   -1.78369e-01   1.23431e-03 DIIS
   @RHF iter   3:  -634.05492417109042   -2.78336e-02   2.84601e-04 DIIS
   @RHF iter   4:  -634.05763536439690   -2.71119e-03   5.27678e-05 DIIS
   @RHF iter   5:  -634.05770806403746   -7.26996e-05   1.41884e-05 DIIS
   @RHF iter   6:  -634.05771352964371   -5.46561e-06   3.28513e-06 DIIS
   @RHF iter   7:  -634.05771384346440   -3.13821e-07   8.21679e-07 DIIS
   @RHF iter   8:  -634.05771386618642   -2.27220e-08   2.58507e-07 DIIS
   @RHF iter   9:  -634.05771386871788   -2.53146e-09   7.36430e-08 DIIS
   @RHF iter  10:  -634.05771386899016   -2.72280e-10   1.91920e-08 DIIS
   @RHF iter  11:  -634.05771386901120   -2.10321e-11   5.33911e-09 DIIS
   @RHF iter  12:  -634.05771386901461   -3.41061e-12   1.95432e-09 DIIS
   @RHF iter  13:  -634.05771386901426    3.41061e-13   6.66811e-10 DIIS
   @RHF iter  14:  -634.05771386901665   -2.38742e-12   1.94338e-10 DIIS
   @RHF iter  15:  -634.05771386901336    3.29692e-12   6.63589e-11 DIIS
  Energy and wave function converged.

  ==> Post-Iterations <==

    Orbital Energies [Eh]
    ---------------------

    Doubly Occupied:

       1A    -91.933295     2A    -11.257004     3A    -11.255170
       4A    -11.226534     5A    -11.218600     6A    -11.217633
       7A    -11.213661     8A     -8.937455     9A     -6.619507
      10A     -6.617959    11A     -6.615780    12A     -1.084452
      13A     -1.049644    14A     -0.999922    15A     -0.923065
      16A     -0.885544    17A     -0.799214    18A     -0.785188
      19A     -0.638554    20A     -0.624262    21A     -0.606597
      22A     -0.591748    23A     -0.587484    24A     -0.563451
      25A     -0.551160    26A     -0.531281    27A     -0.528062
      28A     -0.507581    29A     -0.485662    30A     -0.469713
      31A     -0.469001    32A     -0.462131    33A     -0.417856
      34A     -0.330927

    Virtual:

      35A      0.156991    36A      0.184793    37A      0.190814
      38A      0.211404    39A      0.217557    40A      0.231757
      41A      0.240716    42A      0.243695    43A      0.251773
      44A      0.259733    45A      0.271534    46A      0.273766
      47A      0.294139    48A      0.302926    49A      0.308366
      50A      0.312222    51A      0.333749    52A      0.350030
      53A      0.372062    54A      0.394828    55A      0.426913
      56A      0.539829    57A      0.568126    58A      0.578229
      59A      0.579684    60A      0.596397    61A      0.609550
      62A      0.610768    63A      0.626069    64A      0.629203
      65A      0.645447    66A      0.659923    67A      0.698592
      68A      0.720836    69A      0.762388    70A      0.789129
      71A      0.807567    72A      0.817910    73A      0.820912
      74A      0.830700    75A      0.847881    76A      0.857402
      77A      0.864981    78A      0.871261    79A      0.877644
      80A      0.879348    81A      0.884335    82A      0.893458
      83A      0.898948    84A      0.905424    85A      0.908024
      86A      0.922328    87A      0.925873    88A      0.938375
      89A      0.944591    90A      0.956008    91A      0.961410
      92A      0.974056    93A      0.985909    94A      0.998314
      95A      1.029049    96A      1.062616    97A      1.124487
      98A      1.141077    99A      1.170272   100A      1.217030
     101A      1.253513   102A      1.292984   103A      1.319704
     104A      1.350976   105A      1.362414   106A      1.379278
     107A      1.397109   108A      1.463089   109A      1.471727
     110A      1.480033   111A      1.518398   112A      1.550602
     113A      1.613252   114A      1.652276   115A      1.665834
     116A      1.668916   117A      1.680433   118A      1.692101
     119A      1.695271   120A      1.699829   121A      1.847899
     122A      1.863014   123A      1.870476   124A      1.872053
     125A      1.883741   126A      1.895585   127A      1.908087
     128A      1.919783   129A      1.921972   130A      1.925888
     131A      1.931655   132A      1.947741   133A      1.953197
     134A      1.964093   135A      1.969466   136A      1.976905
     137A      1.984582   138A      1.991254   139A      1.997701
     140A      2.006652   141A      2.023488   142A      2.041567
     143A      2.050014   144A      2.058551   145A      2.071462
     146A      2.131374   147A      2.151347   148A      2.166669
     149A      2.209495   150A      2.229264   151A      2.283207
     152A      2.287621   153A      2.316471   154A      2.316720
     155A      2.336163   156A      2.366311   157A      2.429059
     158A      2.450263   159A      2.476057   160A      2.497737
     161A      2.531929   162A      2.556055   163A      2.566324
     164A      2.584076   165A      2.616505   166A      2.634384
     167A      2.749789   168A      2.764135   169A      2.769610
     170A      2.774013   171A      2.787585   172A      2.797268
     173A      2.807178   174A      2.815795   175A      2.818787
     176A      2.835811   177A      2.898792   178A      2.942183
     179A      2.962433   180A      2.976883   181A      2.983795
     182A      3.104334

    Final Occupation by Irrep:
              A
    DOCC [    34 ]

  @RHF Final Energy:  -634.05771386901336

   => Energetics <=

    Nuclear Repulsion Energy =            373.2105217524818386
    One-Electron Energy =               -1608.5262792680407529
    Two-Electron Energy =                 601.2580436465456160
    Total Energy =                       -634.0577138690133552

Computation Completed

Properties will be evaluated at   0.000000,   0.000000,   0.000000 [a0]

Properties computed using the SCF density matrix

  Nuclear Dipole Moment: [e a0]
     X:     2.7426      Y:    -9.6883      Z:     3.8291

  Electronic Dipole Moment: [e a0]
     X:    -2.4208      Y:     9.5503      Z:    -3.2990

  Dipole Moment: [e a0]
     X:     0.3218      Y:    -0.1380      Z:     0.5301     Total:     0.6353

  Dipole Moment: [D]
     X:     0.8179      Y:    -0.3507      Z:     1.3473     Total:     1.6147

*** tstop() called on ds3 at Mon Apr 27 23:40:41 2020
Module time:
	user time   =      59.14 seconds =       0.99 minutes
	system time =      25.43 seconds =       0.42 minutes
	total time  =         81 seconds =       1.35 minutes
Total time:
	user time   =      59.14 seconds =       0.99 minutes
	system time =      25.43 seconds =       0.42 minutes
	total time  =         81 seconds =       1.35 minutes
                                     G D M A

                                 by Anthony Stone

                           version 2.2.06, 22 June 2011

               Distributed Multipoles from Gaussian wavefunctions

Starting at 23:40:41 on 27 Apr 2020

Using SCF density matrix from file ./SSI/SSI-248MET-298ARG-1-dimer.test.3564.fchk

                         Distributed Multipole Analysis

Standard DMA

Positions and radii in angstrom
Multipole moments in atomic units, ea_0^k for rank k

C          x = -0.716221  y =  0.806047  z =  0.836479 angstrom
           Maximum rank =  0   Radius =  0.650 angstrom
                   Q00  =  -0.198755

C          x = -0.963221  y =  1.629047  z =  2.086479 angstrom
           Maximum rank =  0   Radius =  0.650 angstrom
                   Q00  =  -0.234691

C          x =  1.470779  y =  2.155047  z = -0.261521 angstrom
           Maximum rank =  0   Radius =  0.650 angstrom
                   Q00  =  -0.353507

S          x = -0.258221  y =  1.803047  z = -0.599521 angstrom
           Maximum rank =  0   Radius =  0.650 angstrom
                   Q00  =   0.102231

H          x =  0.093779  y =  0.107047  z =  1.038479 angstrom
           Maximum rank =  0   Radius =  0.325 angstrom
                   Q00  =   0.055893

H          x = -1.619221  y =  0.245047  z =  0.599479 angstrom
           Maximum rank =  0   Radius =  0.325 angstrom
                   Q00  =   0.084910

H          x = -1.877221  y =  2.189047  z =  1.912479 angstrom
           Maximum rank =  0   Radius =  0.325 angstrom
                   Q00  =   0.085527

H          x = -0.132221  y =  2.320047  z =  2.225479 angstrom
           Maximum rank =  0   Radius =  0.325 angstrom
                   Q00  =   0.080844

H          x =  2.060779  y =  1.246047  z = -0.373521 angstrom
           Maximum rank =  0   Radius =  0.325 angstrom
                   Q00  =   0.085959

H          x =  1.850779  y =  2.921047  z = -0.925521 angstrom
           Maximum rank =  0   Radius =  0.325 angstrom
                   Q00  =   0.124856

H          x =  1.537779  y =  2.523047  z =  0.755479 angstrom
           Maximum rank =  0   Radius =  0.325 angstrom
                   Q00  =   0.083526

H          x = -1.107826  y =  1.024006  z =  2.993679 angstrom
           Maximum rank =  0   Radius =  0.325 angstrom
                   Q00  =   0.086215

C          x = -0.259221  y = -2.729953  z = -0.200521 angstrom
           Maximum rank =  0   Radius =  0.650 angstrom
                   Q00  =  -0.091085

C          x =  1.002779  y = -3.237953  z =  0.509479 angstrom
           Maximum rank =  0   Radius =  0.650 angstrom
                   Q00  =  -0.218548

C          x = -0.093221  y = -2.553953  z = -1.717521 angstrom
           Maximum rank =  0   Radius =  0.650 angstrom
                   Q00  =  -0.245487

H          x = -1.055221  y = -3.449953  z = -0.024521 angstrom
           Maximum rank =  0   Radius =  0.325 angstrom
                   Q00  =   0.044111

H          x = -0.584221  y = -1.793953  z =  0.239479 angstrom
           Maximum rank =  0   Radius =  0.325 angstrom
                   Q00  =   0.052761

H          x =  1.416779  y = -4.069953  z = -0.061521 angstrom
           Maximum rank =  0   Radius =  0.325 angstrom
                   Q00  =   0.074368

H          x = -1.048221  y = -2.228953  z = -2.131521 angstrom
           Maximum rank =  0   Radius =  0.325 angstrom
                   Q00  =   0.086454

H          x =  0.638779  y = -1.777953  z = -1.933521 angstrom
           Maximum rank =  0   Radius =  0.325 angstrom
                   Q00  =   0.080780

H          x =  0.748813  y = -3.664976  z =  1.490879 angstrom
           Maximum rank =  0   Radius =  0.325 angstrom
                   Q00  =   0.073087

H          x =  1.798002  y = -2.478154  z =  0.491409 angstrom
           Maximum rank =  0   Radius =  0.325 angstrom
                   Q00  =   0.063684

H          x =  0.211457  y = -3.496729  z = -2.195381 angstrom
           Maximum rank =  0   Radius =  0.325 angstrom
                   Q00  =   0.076866

Total multipoles referred to origin at
           x =   0.000000,  y =    0.000000,  z =    0.000000 angstrom
                   Q00  =  -0.000000

Finished at 23:40:41 on 27 Apr 2020

  DMA results are available in the Python driver through the
	  variable('DMA DISTRIBUTED MULTIPOLES')
  and
	  variable('DMA TOTAL MULTIPOLES')
  commands.

    Psi4 stopped on: Monday, 27 April 2020 11:40PM
    Psi4 wall time for execution: 0:01:21.56

*** Psi4 exiting successfully. Buy a developer a beer!
