                               Psi4 1.3.2 release

  ==> Input File <==

--------------------------------------------------------------------------
import numpy as np
set {scf_type pk
basis cc-pvdz
d_convergence 10
gdma_switch   0
gdma_limit    0
gdma_origin   [ 0.0,  0.0,  0.0 ]
}
molecule test {
    units Angstrom
    0 1
    --
    0 1
    C                1.527530418050396     1.754854731097100    -1.518568530336224
    C                1.526530418050396     0.406854731097100    -0.823568530336224
    O                1.213530418050396    -0.612145268902900    -1.433568530336224
    N                1.870530418050397     0.383854731097100     0.455431469663776
    H                2.325530418050397     2.379854731097101    -1.115568530336224
    H                0.574530418050396     2.236854731097100    -1.297568530336224
    H                1.983530418050396    -0.525145268902900     0.898431469663776
    H                2.160530418050397     1.225854731097100     0.925431469663776
    H                1.643805418050396     1.657954731097100    -2.608105530336224
    C               -1.474469581949604    -0.715145268902900     1.085431469663776
    C               -2.405469581949604    -1.387145268902900     0.112431469663776
    C               -2.267469581949603     0.152854731097100     2.061431469663776
    H               -0.899469581949604    -1.460145268902900     1.626431469663776
    H               -0.795469581949604    -0.073145268902900     0.529431469663776
    H               -3.085469581949603    -0.627145268902900    -0.278568530336224
    H               -3.006469581949603    -2.126145268902900     0.647431469663776
    H               -2.855469581949603     0.898854731097100     1.522431469663776
    H               -2.967469581949604    -0.486145268902900     2.603431469663775
    H               -1.904976581949604    -1.871125268902900    -0.739197530336224
    H               -1.590582581949604     0.623894731097100     2.789401469663776

}
e, wfn = energy('scf', return_wfn=True)
gdma(wfn)
dmavals = variable('DMA DISTRIBUTED MULTIPOLES')
charges = np.array(dmavals)
print(charges)
np.save('SSI-014ASN-027ARG-1-dimer.npy', np.array(charges))--------------------------------------------------------------------------

*** tstart() called on ds3
*** at Tue Apr 28 15:01:36 2020

   => Loading Basis Set <=

    Name: CC-PVDZ
    Role: ORBITAL
    Keyword: BASIS
    atoms 1-2, 10-12 entry C          line   138 file /theoryfs2/ds/metcalf/miniconda2/envs/tf2gpu/share/psi4/basis/cc-pvdz.gbs
    atoms 3          entry O          line   198 file /theoryfs2/ds/metcalf/miniconda2/envs/tf2gpu/share/psi4/basis/cc-pvdz.gbs
    atoms 4          entry N          line   168 file /theoryfs2/ds/metcalf/miniconda2/envs/tf2gpu/share/psi4/basis/cc-pvdz.gbs
    atoms 5-9, 13-20 entry H          line    22 file /theoryfs2/ds/metcalf/miniconda2/envs/tf2gpu/share/psi4/basis/cc-pvdz.gbs

         ---------------------------------------------------------
                                   SCF
               by Justin Turney, Rob Parrish, Andy Simmonett
                          and Daniel G. A. Smith
                              RHF Reference
                        1 Threads,    500 MiB Core
         ---------------------------------------------------------

  ==> Geometry <==

    Molecular point group: c1
    Full point group: C1

    Geometry (in Angstrom), charge = 0, multiplicity = 1:

       Center              X                  Y                   Z               Mass
    ------------   -----------------  -----------------  -----------------  -----------------
         C            1.527530418050     1.754854731097    -1.518568530336    12.000000000000
         C            1.526530418050     0.406854731097    -0.823568530336    12.000000000000
         O            1.213530418050    -0.612145268903    -1.433568530336    15.994914619570
         N            1.870530418050     0.383854731097     0.455431469664    14.003074004430
         H            2.325530418050     2.379854731097    -1.115568530336     1.007825032230
         H            0.574530418050     2.236854731097    -1.297568530336     1.007825032230
         H            1.983530418050    -0.525145268903     0.898431469664     1.007825032230
         H            2.160530418050     1.225854731097     0.925431469664     1.007825032230
         H            1.643805418050     1.657954731097    -2.608105530336     1.007825032230
         C           -1.474469581950    -0.715145268903     1.085431469664    12.000000000000
         C           -2.405469581950    -1.387145268903     0.112431469664    12.000000000000
         C           -2.267469581950     0.152854731097     2.061431469664    12.000000000000
         H           -0.899469581950    -1.460145268903     1.626431469664     1.007825032230
         H           -0.795469581950    -0.073145268903     0.529431469664     1.007825032230
         H           -3.085469581950    -0.627145268903    -0.278568530336     1.007825032230
         H           -3.006469581950    -2.126145268903     0.647431469664     1.007825032230
         H           -2.855469581950     0.898854731097     1.522431469664     1.007825032230
         H           -2.967469581950    -0.486145268903     2.603431469664     1.007825032230
         H           -1.904976581950    -1.871125268903    -0.739197530336     1.007825032230
         H           -1.590582581950     0.623894731097     2.789401469664     1.007825032230

  Running in c1 symmetry.

  Rotational constants: A =      0.11609  B =      0.03216  C =      0.02958 [cm^-1]
  Rotational constants: A =   3480.24674  B =    964.05335  C =    886.90920 [MHz]
  Nuclear repulsion =  304.124694013711803

  Charge       = 0
  Multiplicity = 1
  Electrons    = 58
  Nalpha       = 29
  Nbeta        = 29

  ==> Algorithm <==

  SCF Algorithm Type is PK.
  DIIS enabled.
  MOM disabled.
  Fractional occupation disabled.
  Guess Type is SAD.
  Energy threshold   = 1.00e-06
  Density threshold  = 1.00e-10
  Integral threshold = 0.00e+00

  ==> Primary Basis <==

  Basis Set: CC-PVDZ
    Blend: CC-PVDZ
    Number of shells: 81
    Number of basis function: 163
    Number of Cartesian functions: 170
    Spherical Harmonics?: true
    Max angular momentum: 2

  ==> Pre-Iterations <==

   -------------------------------------------------------
    Irrep   Nso     Nmo     Nalpha   Nbeta   Ndocc  Nsocc
   -------------------------------------------------------
     A        163     163       0       0       0       0
   -------------------------------------------------------
    Total     163     163      29      29      29       0
   -------------------------------------------------------

  ==> Integral Setup <==

  Using integral reordering PK algorithm.
  Sizing the integral batches needed.
  Building batch lookup table.
   Calculation information:
      Number of atoms:                  20
      Number of AO shells:              81
      Number of primitives:            219
      Number of atomic orbitals:       170
      Number of basis functions:       163

      Integral cutoff                 1.00e-12
      Number of threads:                 1

	Batch   1 pq = [       0,    9405] index = [             0,44231715] size =     44231715
	Batch   2 pq = [    9405,   13366] index = [      44231715,89331661] size =     45099946
  Task number: 9
  Buffer size: 11059200
  Buffer per thread: 2
  We computed 4865389 shell quartets total.
  Whereas there are 5516181 unique shell quartets.

  ==> DiskJK: Disk-Based J/K Matrices <==

    J tasked:                  Yes
    K tasked:                  Yes
    wK tasked:                  No
    Memory [MiB]:              375
    Schwarz Cutoff:          1E-12

    OpenMP threads:              1

  Minimum eigenvalue in the overlap matrix is 4.2822095078E-03.
  Using Symmetric Orthogonalization.

  SCF Guess: Superposition of Atomic Densities via on-the-fly atomic UHF.

  ==> Iterations <==

                        Total Energy        Delta E     RMS |[F,P]|

   @RHF iter SAD:  -325.00630737636789   -3.25006e+02   0.00000e+00
   @RHF iter   1:  -325.99651917082946   -9.90212e-01   4.18594e-03 DIIS
   @RHF iter   2:  -326.20033721558116   -2.03818e-01   2.32158e-03 DIIS
   @RHF iter   3:  -326.25687223229079   -5.65350e-02   4.90284e-04 DIIS
   @RHF iter   4:  -326.26069799618762   -3.82576e-03   2.03728e-04 DIIS
   @RHF iter   5:  -326.26137436226526   -6.76366e-04   3.12977e-05 DIIS
   @RHF iter   6:  -326.26140704017865   -3.26779e-05   1.37769e-05 DIIS
   @RHF iter   7:  -326.26141251535205   -5.47517e-06   5.36299e-06 DIIS
   @RHF iter   8:  -326.26141362661667   -1.11126e-06   1.85809e-06 DIIS
   @RHF iter   9:  -326.26141376463931   -1.38023e-07   4.93841e-07 DIIS
   @RHF iter  10:  -326.26141377145922   -6.81990e-09   1.62533e-07 DIIS
   @RHF iter  11:  -326.26141377230715   -8.47933e-10   3.96037e-08 DIIS
   @RHF iter  12:  -326.26141377235496   -4.78053e-11   9.53588e-09 DIIS
   @RHF iter  13:  -326.26141377236155   -6.59384e-12   2.25750e-09 DIIS
   @RHF iter  14:  -326.26141377235695    4.60432e-12   7.99077e-10 DIIS
   @RHF iter  15:  -326.26141377236149   -4.54747e-12   2.25497e-10 DIIS
   @RHF iter  16:  -326.26141377235723    4.26326e-12   8.29193e-11 DIIS
  Energy and wave function converged.

  ==> Post-Iterations <==

    Orbital Energies [Eh]
    ---------------------

    Doubly Occupied:

       1A    -20.504274     2A    -15.590410     3A    -11.348047
       4A    -11.243830     5A    -11.212984     6A    -11.208128
       7A    -11.203104     8A     -1.369062     9A     -1.218142
      10A     -1.052228    11A     -1.000819    12A     -0.914741
      13A     -0.799741    14A     -0.790502    15A     -0.728432
      16A     -0.654774    17A     -0.625979    18A     -0.613097
      19A     -0.591435    20A     -0.570112    21A     -0.560509
      22A     -0.538590    23A     -0.523694    24A     -0.520858
      25A     -0.469376    26A     -0.463376    27A     -0.456007
      28A     -0.410166    29A     -0.404697

    Virtual:

      30A      0.156576    31A      0.187073    32A      0.199415
      33A      0.207000    34A      0.224789    35A      0.239180
      36A      0.247128    37A      0.259179    38A      0.264219
      39A      0.271361    40A      0.289808    41A      0.304383
      42A      0.316001    43A      0.340015    44A      0.379452
      45A      0.382967    46A      0.431640    47A      0.472902
      48A      0.554003    49A      0.592695    50A      0.607907
      51A      0.611087    52A      0.620160    53A      0.632114
      54A      0.654559    55A      0.655997    56A      0.700292
      57A      0.727879    58A      0.741547    59A      0.790307
      60A      0.823660    61A      0.836512    62A      0.855750
      63A      0.862018    64A      0.866972    65A      0.883520
      66A      0.892496    67A      0.900189    68A      0.901227
      69A      0.909519    70A      0.915074    71A      0.921046
      72A      0.932118    73A      0.949487    74A      0.967247
      75A      0.977271    76A      0.990390    77A      1.024648
      78A      1.050435    79A      1.074308    80A      1.129406
      81A      1.135246    82A      1.141093    83A      1.170172
      84A      1.260742    85A      1.315145    86A      1.343820
      87A      1.369740    88A      1.394138    89A      1.402080
      90A      1.434413    91A      1.466136    92A      1.489791
      93A      1.500300    94A      1.504818    95A      1.571303
      96A      1.620187    97A      1.647804    98A      1.654602
      99A      1.687493   100A      1.693080   101A      1.727246
     102A      1.738976   103A      1.812724   104A      1.850343
     105A      1.866789   106A      1.873615   107A      1.886416
     108A      1.895967   109A      1.898434   110A      1.904840
     111A      1.924016   112A      1.940369   113A      1.959605
     114A      1.964983   115A      1.980664   116A      1.988197
     117A      1.992402   118A      2.007134   119A      2.020133
     120A      2.035314   121A      2.046885   122A      2.052586
     123A      2.082920   124A      2.148518   125A      2.165372
     126A      2.193789   127A      2.209520   128A      2.259546
     129A      2.292503   130A      2.323487   131A      2.328258
     132A      2.348120   133A      2.445858   134A      2.456951
     135A      2.472023   136A      2.516084   137A      2.544033
     138A      2.548249   139A      2.567494   140A      2.591991
     141A      2.620268   142A      2.627068   143A      2.668490
     144A      2.724873   145A      2.746809   146A      2.767658
     147A      2.778316   148A      2.791229   149A      2.797387
     150A      2.834497   151A      2.863137   152A      2.929518
     153A      2.967742   154A      2.986809   155A      2.998145
     156A      3.088755   157A      3.106883   158A      3.140711
     159A      3.278966   160A      3.489793   161A      3.544654
     162A      3.869531   163A      3.906488

    Final Occupation by Irrep:
              A
    DOCC [    29 ]

  @RHF Final Energy:  -326.26141377235723

   => Energetics <=

    Nuclear Repulsion Energy =            304.1246940137118031
    One-Electron Energy =               -1045.5979822767912992
    Two-Electron Energy =                 415.2118744907222094
    Total Energy =                       -326.2614137723572298

Computation Completed

Properties will be evaluated at   0.000000,   0.000000,   0.000000 [a0]

Properties computed using the SCF density matrix

  Nuclear Dipole Moment: [e a0]
     X:    -7.8907      Y:     1.7343      Z:     5.1511

  Electronic Dipole Moment: [e a0]
     X:     8.5391      Y:    -0.5600      Z:    -4.1863

  Dipole Moment: [e a0]
     X:     0.6483      Y:     1.1742      Z:     0.9648     Total:     1.6523

  Dipole Moment: [D]
     X:     1.6479      Y:     2.9846      Z:     2.4522     Total:     4.1996

*** tstop() called on ds3 at Tue Apr 28 15:02:51 2020
Module time:
	user time   =      29.10 seconds =       0.48 minutes
	system time =      11.24 seconds =       0.19 minutes
	total time  =         75 seconds =       1.25 minutes
Total time:
	user time   =      29.10 seconds =       0.48 minutes
	system time =      11.24 seconds =       0.19 minutes
	total time  =         75 seconds =       1.25 minutes
                                     G D M A

                                 by Anthony Stone

                           version 2.2.06, 22 June 2011

               Distributed Multipoles from Gaussian wavefunctions

Starting at 15:2:51 on 28 Apr 2020

Using SCF density matrix from file ./SSI/SSI-014ASN-027ARG-1-dimer.test.29758.fchk

                         Distributed Multipole Analysis

Standard DMA

Positions and radii in angstrom
Multipole moments in atomic units, ea_0^k for rank k

C          x =  1.527530  y =  1.754855  z = -1.518569 angstrom
           Maximum rank =  0   Radius =  0.650 angstrom
                   Q00  =  -0.259595

C          x =  1.526530  y =  0.406855  z = -0.823569 angstrom
           Maximum rank =  0   Radius =  0.650 angstrom
                   Q00  =   0.811583

O          x =  1.213530  y = -0.612145  z = -1.433569 angstrom
           Maximum rank =  0   Radius =  0.650 angstrom
                   Q00  =  -0.791396

N          x =  1.870530  y =  0.383855  z =  0.455431 angstrom
           Maximum rank =  0   Radius =  0.650 angstrom
                   Q00  =  -0.523078

H          x =  2.325530  y =  2.379855  z = -1.115569 angstrom
           Maximum rank =  0   Radius =  0.325 angstrom
                   Q00  =   0.083386

H          x =  0.574530  y =  2.236855  z = -1.297569 angstrom
           Maximum rank =  0   Radius =  0.325 angstrom
                   Q00  =   0.122185

H          x =  1.983530  y = -0.525145  z =  0.898431 angstrom
           Maximum rank =  0   Radius =  0.325 angstrom
                   Q00  =   0.227420

H          x =  2.160530  y =  1.225855  z =  0.925431 angstrom
           Maximum rank =  0   Radius =  0.325 angstrom
                   Q00  =   0.204996

H          x =  1.643805  y =  1.657955  z = -2.608106 angstrom
           Maximum rank =  0   Radius =  0.325 angstrom
                   Q00  =   0.133163

C          x = -1.474470  y = -0.715145  z =  1.085431 angstrom
           Maximum rank =  0   Radius =  0.650 angstrom
                   Q00  =  -0.058020

C          x = -2.405470  y = -1.387145  z =  0.112431 angstrom
           Maximum rank =  0   Radius =  0.650 angstrom
                   Q00  =  -0.236228

C          x = -2.267470  y =  0.152855  z =  2.061431 angstrom
           Maximum rank =  0   Radius =  0.650 angstrom
                   Q00  =  -0.256442

H          x = -0.899470  y = -1.460145  z =  1.626431 angstrom
           Maximum rank =  0   Radius =  0.325 angstrom
                   Q00  =   0.042930

H          x = -0.795470  y = -0.073145  z =  0.529431 angstrom
           Maximum rank =  0   Radius =  0.325 angstrom
                   Q00  =   0.047676

H          x = -3.085470  y = -0.627145  z = -0.278569 angstrom
           Maximum rank =  0   Radius =  0.325 angstrom
                   Q00  =   0.063460

H          x = -3.006470  y = -2.126145  z =  0.647431 angstrom
           Maximum rank =  0   Radius =  0.325 angstrom
                   Q00  =   0.066485

H          x = -2.855470  y =  0.898855  z =  1.522431 angstrom
           Maximum rank =  0   Radius =  0.325 angstrom
                   Q00  =   0.076619

H          x = -2.967470  y = -0.486145  z =  2.603431 angstrom
           Maximum rank =  0   Radius =  0.325 angstrom
                   Q00  =   0.072928

H          x = -1.904977  y = -1.871125  z = -0.739198 angstrom
           Maximum rank =  0   Radius =  0.325 angstrom
                   Q00  =   0.097964

H          x = -1.590583  y =  0.623895  z =  2.789401 angstrom
           Maximum rank =  0   Radius =  0.325 angstrom
                   Q00  =   0.073964

Total multipoles referred to origin at
           x =   0.000000,  y =    0.000000,  z =    0.000000 angstrom
                   Q00  =  -0.000000

Finished at 15:2:51 on 28 Apr 2020

  DMA results are available in the Python driver through the
	  variable('DMA DISTRIBUTED MULTIPOLES')
  and
	  variable('DMA TOTAL MULTIPOLES')
  commands.

    Psi4 stopped on: Tuesday, 28 April 2020 03:02PM
    Psi4 wall time for execution: 0:01:14.21

*** Psi4 exiting successfully. Buy a developer a beer!
