                               Psi4 1.3.2 release

  ==> Input File <==

--------------------------------------------------------------------------
import numpy as np
set {scf_type pk
basis cc-pvdz
d_convergence 10
gdma_switch   0
gdma_limit    0
gdma_origin   [ 0.0,  0.0,  0.0 ]
}
molecule test {
    units Angstrom
    0 1
    --
    0 1
    C                2.607891051841672    -1.673657551699691     1.129163751461242
    C               -0.886108948158328    -0.355657551699691    -0.966836248538758
    C               -1.008108948158328    -1.076657551699691     0.221163751461242
    C                0.374891051841672    -0.063657551699691    -1.473836248538758
    C                0.121891051841672    -1.503657551699691     0.899163751461242
    C                1.500891051841672    -0.496657551699691    -0.788836248538758
    C                1.385891051841672    -1.213657551699691     0.393163751461242
    H               -1.770108948158328    -0.031657551699691    -1.496836248538758
    H               -1.990108948158328    -1.308657551699691     0.610163751461242
    H                0.472891051841672     0.494342448300309    -2.394836248538758
    H                0.019891051841672    -2.062657551699691     1.817163751461242
    H                2.476891051841672    -0.261657551699691    -1.187836248538758
    H                2.367891051841672    -1.781657551699691     2.187163751461242
    H                3.383891051841672    -0.910657551699691     1.042163751461242
    H                2.993791051841672    -2.638037551699691     0.767153751461242
    C               -2.382108948158328     2.608342448300309     0.733163751461242
    C               -1.426108948158328     3.069342448300309    -0.352836248538758
    H               -3.414108948158328     2.812342448300309     0.454163751461242
    H               -2.276108948158328     1.533342448300309     0.873163751461242
    H               -2.149108948158327     3.106342448300309     1.675163751461242
    H               -1.750108948158328     2.644342448300308    -1.303836248538758
    H               -0.449108948158328     2.646342448300309    -0.136836248538758
    H               -1.357788948158328     4.163172448300309    -0.447046248538758

}
e, wfn = energy('scf', return_wfn=True)
gdma(wfn)
dmavals = variable('DMA DISTRIBUTED MULTIPOLES')
charges = np.array(dmavals)
print(charges)
np.save('SSI-194PHE-237ILE-1-dimer.npy', np.array(charges))--------------------------------------------------------------------------

*** tstart() called on ds3
*** at Tue Apr 28 09:29:31 2020

   => Loading Basis Set <=

    Name: CC-PVDZ
    Role: ORBITAL
    Keyword: BASIS
    atoms 1-7, 16-17  entry C          line   138 file /theoryfs2/ds/metcalf/miniconda2/envs/tf2gpu/share/psi4/basis/cc-pvdz.gbs
    atoms 8-15, 18-23 entry H          line    22 file /theoryfs2/ds/metcalf/miniconda2/envs/tf2gpu/share/psi4/basis/cc-pvdz.gbs

         ---------------------------------------------------------
                                   SCF
               by Justin Turney, Rob Parrish, Andy Simmonett
                          and Daniel G. A. Smith
                              RHF Reference
                        1 Threads,    500 MiB Core
         ---------------------------------------------------------

  ==> Geometry <==

    Molecular point group: c1
    Full point group: C1

    Geometry (in Angstrom), charge = 0, multiplicity = 1:

       Center              X                  Y                   Z               Mass
    ------------   -----------------  -----------------  -----------------  -----------------
         C            2.607891051842    -1.673657551700     1.129163751461    12.000000000000
         C           -0.886108948158    -0.355657551700    -0.966836248539    12.000000000000
         C           -1.008108948158    -1.076657551700     0.221163751461    12.000000000000
         C            0.374891051842    -0.063657551700    -1.473836248539    12.000000000000
         C            0.121891051842    -1.503657551700     0.899163751461    12.000000000000
         C            1.500891051842    -0.496657551700    -0.788836248539    12.000000000000
         C            1.385891051842    -1.213657551700     0.393163751461    12.000000000000
         H           -1.770108948158    -0.031657551700    -1.496836248539     1.007825032230
         H           -1.990108948158    -1.308657551700     0.610163751461     1.007825032230
         H            0.472891051842     0.494342448300    -2.394836248539     1.007825032230
         H            0.019891051842    -2.062657551700     1.817163751461     1.007825032230
         H            2.476891051842    -0.261657551700    -1.187836248539     1.007825032230
         H            2.367891051842    -1.781657551700     2.187163751461     1.007825032230
         H            3.383891051842    -0.910657551700     1.042163751461     1.007825032230
         H            2.993791051842    -2.638037551700     0.767153751461     1.007825032230
         C           -2.382108948158     2.608342448300     0.733163751461    12.000000000000
         C           -1.426108948158     3.069342448300    -0.352836248539    12.000000000000
         H           -3.414108948158     2.812342448300     0.454163751461     1.007825032230
         H           -2.276108948158     1.533342448300     0.873163751461     1.007825032230
         H           -2.149108948158     3.106342448300     1.675163751461     1.007825032230
         H           -1.750108948158     2.644342448300    -1.303836248539     1.007825032230
         H           -0.449108948158     2.646342448300    -0.136836248539     1.007825032230
         H           -1.357788948158     4.163172448300    -0.447046248539     1.007825032230

  Running in c1 symmetry.

  Rotational constants: A =      0.08452  B =      0.02519  C =      0.02436 [cm^-1]
  Rotational constants: A =   2533.80614  B =    755.05690  C =    730.41326 [MHz]
  Nuclear repulsion =  414.572304774977908

  Charge       = 0
  Multiplicity = 1
  Electrons    = 68
  Nalpha       = 34
  Nbeta        = 34

  ==> Algorithm <==

  SCF Algorithm Type is PK.
  DIIS enabled.
  MOM disabled.
  Fractional occupation disabled.
  Guess Type is SAD.
  Energy threshold   = 1.00e-06
  Density threshold  = 1.00e-10
  Integral threshold = 0.00e+00

  ==> Primary Basis <==

  Basis Set: CC-PVDZ
    Blend: CC-PVDZ
    Number of shells: 96
    Number of basis function: 196
    Number of Cartesian functions: 205
    Spherical Harmonics?: true
    Max angular momentum: 2

  ==> Pre-Iterations <==

   -------------------------------------------------------
    Irrep   Nso     Nmo     Nalpha   Nbeta   Ndocc  Nsocc
   -------------------------------------------------------
     A        196     196       0       0       0       0
   -------------------------------------------------------
    Total     196     196      34      34      34       0
   -------------------------------------------------------

  ==> Integral Setup <==

  Using integral reordering PK algorithm.
  Sizing the integral batches needed.
  Building batch lookup table.
   Calculation information:
      Number of atoms:                  23
      Number of AO shells:              96
      Number of primitives:            268
      Number of atomic orbitals:       205
      Number of basis functions:       196

      Integral cutoff                 1.00e-12
      Number of threads:                 1

	Batch   1 pq = [       0,    9405] index = [             0,44231715] size =     44231715
	Batch   2 pq = [    9405,   13301] index = [      44231715,88464951] size =     44233236
	Batch   3 pq = [   13301,   16290] index = [      88464951,132690195] size =     44225244
	Batch   4 pq = [   16290,   18810] index = [     132690195,176917455] size =     44227260
	Batch   5 pq = [   18810,   19306] index = [     176917455,186370471] size =      9453016
  Task number: 17
  Buffer size: 11059200
  Buffer per thread: 2
  We computed 10074100 shell quartets total.
  Whereas there are 10841496 unique shell quartets.

  ==> DiskJK: Disk-Based J/K Matrices <==

    J tasked:                  Yes
    K tasked:                  Yes
    wK tasked:                  No
    Memory [MiB]:              375
    Schwarz Cutoff:          1E-12

    OpenMP threads:              1

  Minimum eigenvalue in the overlap matrix is 3.0605024357E-04.
  Using Symmetric Orthogonalization.

  SCF Guess: Superposition of Atomic Densities via on-the-fly atomic UHF.

  ==> Iterations <==

                        Total Energy        Delta E     RMS |[F,P]|

   @RHF iter SAD:  -347.94989888880610   -3.47950e+02   0.00000e+00
   @RHF iter   1:  -348.76364158819678   -8.13743e-01   2.92013e-03 DIIS
   @RHF iter   2:  -348.95798113226795   -1.94340e-01   1.22244e-03 DIIS
   @RHF iter   3:  -348.98912241497720   -3.11413e-02   2.61401e-04 DIIS
   @RHF iter   4:  -348.99162345812761   -2.50104e-03   5.54240e-05 DIIS
   @RHF iter   5:  -348.99170259824405   -7.91401e-05   1.81617e-05 DIIS
   @RHF iter   6:  -348.99171061568046   -8.01744e-06   4.95910e-06 DIIS
   @RHF iter   7:  -348.99171129512848   -6.79448e-07   1.23931e-06 DIIS
   @RHF iter   8:  -348.99171134179244   -4.66640e-08   2.79329e-07 DIIS
   @RHF iter   9:  -348.99171134553171   -3.73927e-09   1.06273e-07 DIIS
   @RHF iter  10:  -348.99171134613562   -6.03904e-10   4.41211e-08 DIIS
   @RHF iter  11:  -348.99171134632218   -1.86560e-10   1.65631e-08 DIIS
   @RHF iter  12:  -348.99171134635674   -3.45608e-11   8.13033e-09 DIIS
   @RHF iter  13:  -348.99171134636430   -7.56017e-12   3.25273e-09 DIIS
   @RHF iter  14:  -348.99171134636464   -3.41061e-13   8.35754e-10 DIIS
   @RHF iter  15:  -348.99171134636498   -3.41061e-13   3.72652e-10 DIIS
   @RHF iter  16:  -348.99171134636634   -1.36424e-12   1.11205e-10 DIIS
   @RHF iter  17:  -348.99171134636526    1.08002e-12   4.57578e-11 DIIS
  Energy and wave function converged.

  ==> Post-Iterations <==

    Orbital Energies [Eh]
    ---------------------

    Doubly Occupied:

       1A    -11.239500     2A    -11.235601     3A    -11.235399
       4A    -11.231489     5A    -11.230187     6A    -11.229547
       7A    -11.228915     8A    -11.209605     9A    -11.208766
      10A     -1.155801    11A     -1.046017    12A     -1.014738
      13A     -1.014228    14A     -0.931644    15A     -0.830981
      16A     -0.825347    17A     -0.797245    18A     -0.692662
      19A     -0.633718    20A     -0.630402    21A     -0.593749
      22A     -0.592686    23A     -0.585079    24A     -0.577634
      25A     -0.562291    26A     -0.534981    27A     -0.498319
      28A     -0.487226    29A     -0.486060    30A     -0.482515
      31A     -0.478569    32A     -0.476494    33A     -0.334565
      34A     -0.321841

    Virtual:

      35A      0.135136    36A      0.139318    37A      0.175538
      38A      0.194938    39A      0.210120    40A      0.214782
      41A      0.236374    42A      0.243197    43A      0.254086
      44A      0.263669    45A      0.272173    46A      0.276509
      47A      0.282977    48A      0.288696    49A      0.320647
      50A      0.330237    51A      0.368307    52A      0.376808
      53A      0.403425    54A      0.455154    55A      0.465437
      56A      0.482441    57A      0.490656    58A      0.562771
      59A      0.581427    60A      0.601311    61A      0.605665
      62A      0.614093    63A      0.637969    64A      0.659383
      65A      0.679897    66A      0.682890    67A      0.702402
      68A      0.707423    69A      0.735737    70A      0.737900
      71A      0.741555    72A      0.755625    73A      0.757596
      74A      0.765488    75A      0.803149    76A      0.839958
      77A      0.847049    78A      0.856827    79A      0.865060
      80A      0.868535    81A      0.874053    82A      0.885588
      83A      0.896476    84A      0.898978    85A      0.902182
      86A      0.916236    87A      0.918008    88A      0.927323
      89A      0.932679    90A      0.940638    91A      0.968277
      92A      0.972709    93A      1.002425    94A      1.014331
      95A      1.022349    96A      1.068367    97A      1.115664
      98A      1.132057    99A      1.143908   100A      1.154611
     101A      1.160223   102A      1.166785   103A      1.195913
     104A      1.215672   105A      1.244258   106A      1.253192
     107A      1.256542   108A      1.292863   109A      1.301799
     110A      1.311236   111A      1.322014   112A      1.355719
     113A      1.411359   114A      1.476841   115A      1.492708
     116A      1.504253   117A      1.515566   118A      1.558124
     119A      1.592981   120A      1.608270   121A      1.680557
     122A      1.694777   123A      1.700093   124A      1.705248
     125A      1.734664   126A      1.763814   127A      1.777520
     128A      1.793011   129A      1.816561   130A      1.862107
     131A      1.871467   132A      1.879932   133A      1.895738
     134A      1.904716   135A      1.912648   136A      1.917356
     137A      1.921149   138A      1.930106   139A      1.946600
     140A      1.955226   141A      1.957966   142A      1.959749
     143A      1.961252   144A      1.972089   145A      1.987114
     146A      1.989862   147A      1.997008   148A      2.005746
     149A      2.040170   150A      2.070282   151A      2.080593
     152A      2.107189   153A      2.113360   154A      2.149170
     155A      2.157943   156A      2.163422   157A      2.170521
     158A      2.180357   159A      2.182960   160A      2.261728
     161A      2.282347   162A      2.296581   163A      2.298272
     164A      2.313082   165A      2.318625   166A      2.325800
     167A      2.340726   168A      2.452523   169A      2.471398
     170A      2.474366   171A      2.484068   172A      2.498108
     173A      2.547382   174A      2.575779   175A      2.597769
     176A      2.625233   177A      2.739214   178A      2.758679
     179A      2.766246   180A      2.785141   181A      2.794114
     182A      2.805871   183A      2.811425   184A      2.852038
     185A      2.863809   186A      2.869260   187A      2.886554
     188A      2.971411   189A      2.972871   190A      2.996715
     191A      3.021148   192A      3.027702   193A      3.161642
     194A      3.211036   195A      3.306267   196A      3.982086

    Final Occupation by Irrep:
              A
    DOCC [    34 ]

  @RHF Final Energy:  -348.99171134636526

   => Energetics <=

    Nuclear Repulsion Energy =            414.5723047749779084
    One-Electron Energy =               -1291.8604341357793146
    Two-Electron Energy =                 528.2964180144360853
    Total Energy =                       -348.9917113463652640

Computation Completed

Properties will be evaluated at   0.000000,   0.000000,   0.000000 [a0]

Properties computed using the SCF density matrix

  Nuclear Dipole Moment: [e a0]
     X:    -3.2261      Y:     7.8797      Z:     2.3053

  Electronic Dipole Moment: [e a0]
     X:     3.3860      Y:    -7.9993      Z:    -2.2525

  Dipole Moment: [e a0]
     X:     0.1599      Y:    -0.1196      Z:     0.0528     Total:     0.2066

  Dipole Moment: [D]
     X:     0.4064      Y:    -0.3041      Z:     0.1343     Total:     0.5250

*** tstop() called on ds3 at Tue Apr 28 09:31:22 2020
Module time:
	user time   =      73.73 seconds =       1.23 minutes
	system time =      28.56 seconds =       0.48 minutes
	total time  =        111 seconds =       1.85 minutes
Total time:
	user time   =      73.73 seconds =       1.23 minutes
	system time =      28.56 seconds =       0.48 minutes
	total time  =        111 seconds =       1.85 minutes
                                     G D M A

                                 by Anthony Stone

                           version 2.2.06, 22 June 2011

               Distributed Multipoles from Gaussian wavefunctions

Starting at 9:31:23 on 28 Apr 2020

Using SCF density matrix from file ./SSI/SSI-194PHE-237ILE-1-dimer.test.10594.fchk

                         Distributed Multipole Analysis

Standard DMA

Positions and radii in angstrom
Multipole moments in atomic units, ea_0^k for rank k

C          x =  2.607891  y = -1.673658  z =  1.129164 angstrom
           Maximum rank =  0   Radius =  0.650 angstrom
                   Q00  =  -0.197731

C          x = -0.886109  y = -0.355658  z = -0.966836 angstrom
           Maximum rank =  0   Radius =  0.650 angstrom
                   Q00  =  -0.092447

C          x = -1.008109  y = -1.076658  z =  0.221164 angstrom
           Maximum rank =  0   Radius =  0.650 angstrom
                   Q00  =  -0.063905

C          x =  0.374891  y = -0.063658  z = -1.473836 angstrom
           Maximum rank =  0   Radius =  0.650 angstrom
                   Q00  =  -0.068238

C          x =  0.121891  y = -1.503658  z =  0.899164 angstrom
           Maximum rank =  0   Radius =  0.650 angstrom
                   Q00  =  -0.086762

C          x =  1.500891  y = -0.496658  z = -0.788836 angstrom
           Maximum rank =  0   Radius =  0.650 angstrom
                   Q00  =   0.001637

C          x =  1.385891  y = -1.213658  z =  0.393164 angstrom
           Maximum rank =  0   Radius =  0.650 angstrom
                   Q00  =  -0.098414

H          x = -1.770109  y = -0.031658  z = -1.496836 angstrom
           Maximum rank =  0   Radius =  0.325 angstrom
                   Q00  =   0.061491

H          x = -1.990109  y = -1.308658  z =  0.610164 angstrom
           Maximum rank =  0   Radius =  0.325 angstrom
                   Q00  =   0.064861

H          x =  0.472891  y =  0.494342  z = -2.394836 angstrom
           Maximum rank =  0   Radius =  0.325 angstrom
                   Q00  =   0.066426

H          x =  0.019891  y = -2.062658  z =  1.817164 angstrom
           Maximum rank =  0   Radius =  0.325 angstrom
                   Q00  =   0.057688

H          x =  2.476891  y = -0.261658  z = -1.187836 angstrom
           Maximum rank =  0   Radius =  0.325 angstrom
                   Q00  =   0.054421

H          x =  2.367891  y = -1.781658  z =  2.187164 angstrom
           Maximum rank =  0   Radius =  0.325 angstrom
                   Q00  =   0.096215

H          x =  3.383891  y = -0.910658  z =  1.042164 angstrom
           Maximum rank =  0   Radius =  0.325 angstrom
                   Q00  =   0.098016

H          x =  2.993791  y = -2.638038  z =  0.767154 angstrom
           Maximum rank =  0   Radius =  0.325 angstrom
                   Q00  =   0.104808

C          x = -2.382109  y =  2.608342  z =  0.733164 angstrom
           Maximum rank =  0   Radius =  0.650 angstrom
                   Q00  =  -0.230387

C          x = -1.426109  y =  3.069342  z = -0.352836 angstrom
           Maximum rank =  0   Radius =  0.650 angstrom
                   Q00  =  -0.232622

H          x = -3.414109  y =  2.812342  z =  0.454164 angstrom
           Maximum rank =  0   Radius =  0.325 angstrom
                   Q00  =   0.071264

H          x = -2.276109  y =  1.533342  z =  0.873164 angstrom
           Maximum rank =  0   Radius =  0.325 angstrom
                   Q00  =   0.084929

H          x = -2.149109  y =  3.106342  z =  1.675164 angstrom
           Maximum rank =  0   Radius =  0.325 angstrom
                   Q00  =   0.076852

H          x = -1.750109  y =  2.644342  z = -1.303836 angstrom
           Maximum rank =  0   Radius =  0.325 angstrom
                   Q00  =   0.068388

H          x = -0.449109  y =  2.646342  z = -0.136836 angstrom
           Maximum rank =  0   Radius =  0.325 angstrom
                   Q00  =   0.086585

H          x = -1.357789  y =  4.163172  z = -0.447046 angstrom
           Maximum rank =  0   Radius =  0.325 angstrom
                   Q00  =   0.076923

Total multipoles referred to origin at
           x =   0.000000,  y =    0.000000,  z =    0.000000 angstrom
                   Q00  =  -0.000000

Finished at 9:31:23 on 28 Apr 2020

  DMA results are available in the Python driver through the
	  variable('DMA DISTRIBUTED MULTIPOLES')
  and
	  variable('DMA TOTAL MULTIPOLES')
  commands.

    Psi4 stopped on: Tuesday, 28 April 2020 09:31AM
    Psi4 wall time for execution: 0:01:51.25

*** Psi4 exiting successfully. Buy a developer a beer!
