                               Psi4 1.3.2 release

  ==> Input File <==

--------------------------------------------------------------------------
import numpy as np
set {scf_type pk
basis cc-pvdz
d_convergence 10
gdma_switch   0
gdma_limit    0
gdma_origin   [ 0.0,  0.0,  0.0 ]
}
molecule test {
    units Angstrom
    0 1
    --
    0 1
    C               -1.282761801557665     1.444618892800448     2.843448620739490
    C               -1.515761801557665     2.107618892800448     4.222448620739490
    C               -2.588761801557665     0.929618892800448     2.247448620739489
    C               -0.608761801557665     2.425618892800448     1.864448620739490
    H               -0.613761801557665     0.596618892800448     2.972448620739490
    H               -2.186761801557664     2.956618892800448     4.081448620739490
    H               -3.300761801557665     1.751618892800448     2.164448620739489
    H               -2.394761801557665     0.532618892800448     1.251448620739490
    H               -3.009761801557665     0.133618892800448     2.860448620739490
    H                0.361238198442335     2.743618892800448     2.243448620739489
    H               -0.436761801557665     1.925618892800448     0.916448620739490
    H               -1.245761801557665     3.294618892800448     1.703448620739490
    H               -0.560274801557665     2.439668892800448     4.654638620739491
    H               -1.994227301557665     1.400758892800448     4.916295620739491
    C                2.492238198442335     1.444618892800448    -0.461551379260510
    C                1.237238198442335    -0.408381107199552     0.815448620739490
    C                1.568238198442335     0.271618892800448    -0.330551379260510
    C                0.181238198442335    -1.492381107199552    -0.838551379260510
    C                0.898238198442335    -0.406381107199552    -1.408551379260510
    C               -0.571761801557665    -2.365381107199552    -1.605551379260510
    C                0.835238198442335    -0.214381107199552    -2.800551379260510
    C               -0.628761801557665    -2.151381107199552    -2.970551379260510
    C                0.073238198442335    -1.094381107199552    -3.568551379260510
    N                0.398238198442335    -1.455381107199552     0.512448620739490
    H                1.569238198442335    -0.150381107199552     1.812448620739490
    H               -0.002761801557665    -2.114381107199552     1.185448620739490
    H                2.069238198442335     2.301618892800448     0.065448620739490
    H                2.568238198442335     1.704618892800448    -1.516551379260510
    H               -1.075761801557665    -3.205381107199552    -1.153551379260510
    H                1.354238198442335     0.611618892800448    -3.256551379260510
    H               -1.208761801557665    -2.821381107199552    -3.593551379260510
    H                0.013238198442335    -0.955381107199552    -4.640551379260510
    H                3.500572198442335     1.228448892800448    -0.078757379260510

}
e, wfn = energy('scf', return_wfn=True)
gdma(wfn)
dmavals = variable('DMA DISTRIBUTED MULTIPOLES')
charges = np.array(dmavals)
print(charges)
np.save('SSI-027VAL-070TRP-1-dimer.npy', np.array(charges))--------------------------------------------------------------------------

*** tstart() called on ds3
*** at Sun Apr 26 19:13:08 2020

   => Loading Basis Set <=

    Name: CC-PVDZ
    Role: ORBITAL
    Keyword: BASIS
    atoms 1-4, 15-23  entry C          line   138 file /theoryfs2/ds/metcalf/miniconda2/envs/tf2gpu/share/psi4/basis/cc-pvdz.gbs
    atoms 5-14, 25-33 entry H          line    22 file /theoryfs2/ds/metcalf/miniconda2/envs/tf2gpu/share/psi4/basis/cc-pvdz.gbs
    atoms 24          entry N          line   168 file /theoryfs2/ds/metcalf/miniconda2/envs/tf2gpu/share/psi4/basis/cc-pvdz.gbs

         ---------------------------------------------------------
                                   SCF
               by Justin Turney, Rob Parrish, Andy Simmonett
                          and Daniel G. A. Smith
                              RHF Reference
                        1 Threads,    500 MiB Core
         ---------------------------------------------------------

  ==> Geometry <==

    Molecular point group: c1
    Full point group: C1

    Geometry (in Angstrom), charge = 0, multiplicity = 1:

       Center              X                  Y                   Z               Mass
    ------------   -----------------  -----------------  -----------------  -----------------
         C           -1.282761801558     1.444618892800     2.843448620739    12.000000000000
         C           -1.515761801558     2.107618892800     4.222448620739    12.000000000000
         C           -2.588761801558     0.929618892800     2.247448620739    12.000000000000
         C           -0.608761801558     2.425618892800     1.864448620739    12.000000000000
         H           -0.613761801558     0.596618892800     2.972448620739     1.007825032230
         H           -2.186761801558     2.956618892800     4.081448620739     1.007825032230
         H           -3.300761801558     1.751618892800     2.164448620739     1.007825032230
         H           -2.394761801558     0.532618892800     1.251448620739     1.007825032230
         H           -3.009761801558     0.133618892800     2.860448620739     1.007825032230
         H            0.361238198442     2.743618892800     2.243448620739     1.007825032230
         H           -0.436761801558     1.925618892800     0.916448620739     1.007825032230
         H           -1.245761801558     3.294618892800     1.703448620739     1.007825032230
         H           -0.560274801558     2.439668892800     4.654638620739     1.007825032230
         H           -1.994227301558     1.400758892800     4.916295620739     1.007825032230
         C            2.492238198442     1.444618892800    -0.461551379261    12.000000000000
         C            1.237238198442    -0.408381107200     0.815448620739    12.000000000000
         C            1.568238198442     0.271618892800    -0.330551379261    12.000000000000
         C            0.181238198442    -1.492381107200    -0.838551379261    12.000000000000
         C            0.898238198442    -0.406381107200    -1.408551379261    12.000000000000
         C           -0.571761801558    -2.365381107200    -1.605551379261    12.000000000000
         C            0.835238198442    -0.214381107200    -2.800551379261    12.000000000000
         C           -0.628761801558    -2.151381107200    -2.970551379261    12.000000000000
         C            0.073238198442    -1.094381107200    -3.568551379261    12.000000000000
         N            0.398238198442    -1.455381107200     0.512448620739    14.003074004430
         H            1.569238198442    -0.150381107200     1.812448620739     1.007825032230
         H           -0.002761801558    -2.114381107200     1.185448620739     1.007825032230
         H            2.069238198442     2.301618892800     0.065448620739     1.007825032230
         H            2.568238198442     1.704618892800    -1.516551379261     1.007825032230
         H           -1.075761801558    -3.205381107200    -1.153551379261     1.007825032230
         H            1.354238198442     0.611618892800    -3.256551379261     1.007825032230
         H           -1.208761801558    -2.821381107200    -3.593551379261     1.007825032230
         H            0.013238198442    -0.955381107200    -4.640551379261     1.007825032230
         H            3.500572198442     1.228448892800    -0.078757379261     1.007825032230

  Running in c1 symmetry.

  Rotational constants: A =      0.03600  B =      0.01146  C =      0.01009 [cm^-1]
  Rotational constants: A =   1079.32146  B =    343.41804  C =    302.41254 [MHz]
  Nuclear repulsion =  853.429175353555252

  Charge       = 0
  Multiplicity = 1
  Electrons    = 104
  Nalpha       = 52
  Nbeta        = 52

  ==> Algorithm <==

  SCF Algorithm Type is PK.
  DIIS enabled.
  MOM disabled.
  Fractional occupation disabled.
  Guess Type is SAD.
  Energy threshold   = 1.00e-06
  Density threshold  = 1.00e-10
  Integral threshold = 0.00e+00

  ==> Primary Basis <==

  Basis Set: CC-PVDZ
    Blend: CC-PVDZ
    Number of shells: 141
    Number of basis function: 291
    Number of Cartesian functions: 305
    Spherical Harmonics?: true
    Max angular momentum: 2

  ==> Pre-Iterations <==

   -------------------------------------------------------
    Irrep   Nso     Nmo     Nalpha   Nbeta   Ndocc  Nsocc
   -------------------------------------------------------
     A        291     291       0       0       0       0
   -------------------------------------------------------
    Total     291     291      52      52      52       0
   -------------------------------------------------------

  ==> Integral Setup <==

  Using integral reordering PK algorithm.
  Sizing the integral batches needed.
  Building batch lookup table.
   Calculation information:
      Number of atoms:                  33
      Number of AO shells:             141
      Number of primitives:            403
      Number of atomic orbitals:       305
      Number of basis functions:       291

      Integral cutoff                 1.00e-12
      Number of threads:                 1

	Batch   1 pq = [       0,    9405] index = [             0,44231715] size =     44231715
	Batch   2 pq = [    9405,   13301] index = [      44231715,88464951] size =     44233236
	Batch   3 pq = [   13301,   16290] index = [      88464951,132690195] size =     44225244
	Batch   4 pq = [   16290,   18810] index = [     132690195,176917455] size =     44227260
	Batch   5 pq = [   18810,   21030] index = [     176917455,221140965] size =     44223510
	Batch   6 pq = [   21030,   23037] index = [     221140965,265363203] size =     44222238
	Batch   7 pq = [   23037,   24883] index = [     265363203,309594286] size =     44231083
	Batch   8 pq = [   24883,   26601] index = [     309594286,353819901] size =     44225615
	Batch   9 pq = [   26601,   28214] index = [     353819901,398029005] size =     44209104
	Batch  10 pq = [   28214,   29740] index = [     398029005,442248670] size =     44219665
	Batch  11 pq = [   29740,   31191] index = [     442248670,486454836] size =     44206166
	Batch  12 pq = [   31191,   32578] index = [     486454836,530679331] size =     44224495
	Batch  13 pq = [   32578,   33908] index = [     530679331,574893186] size =     44213855
	Batch  14 pq = [   33908,   35188] index = [     574893186,619115266] size =     44222080
	Batch  15 pq = [   35188,   36423] index = [     619115266,663335676] size =     44220410
	Batch  16 pq = [   36423,   37617] index = [     663335676,707538153] size =     44202477
	Batch  17 pq = [   37617,   38775] index = [     707538153,751769700] size =     44231547
	Batch  18 pq = [   38775,   39899] index = [     751769700,795985050] size =     44215350
	Batch  19 pq = [   39899,   40992] index = [     795985050,840192528] size =     44207478
	Batch  20 pq = [   40992,   42057] index = [     840192528,884416653] size =     44224125
	Batch  21 pq = [   42057,   42486] index = [     884416653,902551341] size =     18134688
  Task number: 82
  Buffer size: 11059200
  Buffer per thread: 2
  We computed 51885337 shell quartets total.
  Whereas there are 50115066 unique shell quartets.
     3.53 percent of shell quartets recomputed by reordering.

  ==> DiskJK: Disk-Based J/K Matrices <==

    J tasked:                  Yes
    K tasked:                  Yes
    wK tasked:                  No
    Memory [MiB]:              375
    Schwarz Cutoff:          1E-12

    OpenMP threads:              1

  Minimum eigenvalue in the overlap matrix is 2.3789126232E-04.
  Using Symmetric Orthogonalization.

  SCF Guess: Superposition of Atomic Densities via on-the-fly atomic UHF.

  ==> Iterations <==

                        Total Energy        Delta E     RMS |[F,P]|

   @RHF iter SAD:  -557.04141672263222   -5.57041e+02   0.00000e+00
   @RHF iter   1:  -557.49641208514879   -4.54995e-01   2.41090e-03 DIIS
   @RHF iter   2:  -557.78412762187543   -2.87716e-01   1.06829e-03 DIIS
   @RHF iter   3:  -557.83527483163789   -5.11472e-02   2.73881e-04 DIIS
   @RHF iter   4:  -557.83982663885138   -4.55181e-03   1.22694e-04 DIIS
   @RHF iter   5:  -557.84053712824925   -7.10489e-04   1.94765e-05 DIIS
   @RHF iter   6:  -557.84056958490169   -3.24567e-05   8.51783e-06 DIIS
   @RHF iter   7:  -557.84057647297323   -6.88807e-06   3.10494e-06 DIIS
   @RHF iter   8:  -557.84057809403635   -1.62106e-06   1.34493e-06 DIIS
   @RHF iter   9:  -557.84057843697246   -3.42936e-07   6.07443e-07 DIIS
   @RHF iter  10:  -557.84057851166403   -7.46916e-08   2.58723e-07 DIIS
   @RHF iter  11:  -557.84057853014360   -1.84796e-08   9.80624e-08 DIIS
   @RHF iter  12:  -557.84057853269053   -2.54693e-09   3.40556e-08 DIIS
   @RHF iter  13:  -557.84057853287652   -1.85992e-10   1.14196e-08 DIIS
   @RHF iter  14:  -557.84057853288618   -9.66338e-12   3.67318e-09 DIIS
   @RHF iter  15:  -557.84057853289198   -5.79803e-12   1.86141e-09 DIIS
   @RHF iter  16:  -557.84057853289346   -1.47793e-12   8.99280e-10 DIIS
   @RHF iter  17:  -557.84057853288664    6.82121e-12   4.09796e-10 DIIS
   @RHF iter  18:  -557.84057853288880   -2.16005e-12   1.52863e-10 DIIS
   @RHF iter  19:  -557.84057853289630   -7.50333e-12   5.71017e-11 DIIS
  Energy and wave function converged.

  ==> Post-Iterations <==

    Orbital Energies [Eh]
    ---------------------

    Doubly Occupied:

       1A    -15.604936     2A    -11.265593     3A    -11.263034
       4A    -11.231536     5A    -11.229970     6A    -11.228604
       7A    -11.226562     8A    -11.224132     9A    -11.222581
      10A    -11.222276    11A    -11.219413    12A    -11.217403
      13A    -11.211554    14A    -11.208376    15A     -1.295320
      16A     -1.128023    17A     -1.077156    18A     -1.072366
      19A     -0.997284    20A     -0.986608    21A     -0.931798
      22A     -0.924509    23A     -0.922820    24A     -0.839849
      25A     -0.802755    26A     -0.762989    27A     -0.753081
      28A     -0.720205    29A     -0.661982    30A     -0.643264
      31A     -0.630402    32A     -0.603967    33A     -0.594291
      34A     -0.590591    35A     -0.585200    36A     -0.581499
      37A     -0.569010    38A     -0.554262    39A     -0.538168
      40A     -0.533834    41A     -0.533369    42A     -0.524442
      43A     -0.506370    44A     -0.494634    45A     -0.471894
      46A     -0.462538    47A     -0.458674    48A     -0.455153
      49A     -0.452470    50A     -0.373062    51A     -0.296095
      52A     -0.272569

    Virtual:

      53A      0.122755    54A      0.162993    55A      0.171005
      56A      0.182088    57A      0.194763    58A      0.202238
      59A      0.211666    60A      0.219296    61A      0.225758
      62A      0.236291    63A      0.245040    64A      0.249064
      65A      0.253534    66A      0.264099    67A      0.269820
      68A      0.273846    69A      0.294633    70A      0.302133
      71A      0.308042    72A      0.321235    73A      0.326861
      74A      0.342242    75A      0.377993    76A      0.380047
      77A      0.389416    78A      0.401766    79A      0.409868
      80A      0.417790    81A      0.427531    82A      0.445017
      83A      0.469318    84A      0.482547    85A      0.511967
      86A      0.525731    87A      0.561767    88A      0.564820
      89A      0.591876    90A      0.610579    91A      0.620768
      92A      0.625849    93A      0.644020    94A      0.647455
      95A      0.658239    96A      0.667822    97A      0.694507
      98A      0.705242    99A      0.712830   100A      0.729795
     101A      0.739586   102A      0.743105   103A      0.744918
     104A      0.752527   105A      0.754335   106A      0.763310
     107A      0.767314   108A      0.773944   109A      0.785464
     110A      0.791869   111A      0.797954   112A      0.824079
     113A      0.835722   114A      0.841046   115A      0.852144
     116A      0.861645   117A      0.868482   118A      0.878564
     119A      0.883463   120A      0.891510   121A      0.896236
     122A      0.897797   123A      0.905143   124A      0.906181
     125A      0.913395   126A      0.919383   127A      0.923040
     128A      0.935791   129A      0.937164   130A      0.945055
     131A      0.955601   132A      0.957155   133A      0.963764
     134A      0.982538   135A      0.988230   136A      0.990121
     137A      1.012162   138A      1.019052   139A      1.029309
     140A      1.049595   141A      1.067537   142A      1.096721
     143A      1.103130   144A      1.131124   145A      1.134335
     146A      1.140633   147A      1.146002   148A      1.150114
     149A      1.155393   150A      1.169786   151A      1.185167
     152A      1.214014   153A      1.225494   154A      1.241070
     155A      1.242883   156A      1.253659   157A      1.280755
     158A      1.284298   159A      1.301607   160A      1.327360
     161A      1.333038   162A      1.360546   163A      1.369129
     164A      1.375361   165A      1.412515   166A      1.415569
     167A      1.437140   168A      1.449076   169A      1.516087
     170A      1.539159   171A      1.542636   172A      1.551039
     173A      1.580267   174A      1.598874   175A      1.622553
     176A      1.642012   177A      1.656803   178A      1.668043
     179A      1.675280   180A      1.681724   181A      1.688135
     182A      1.695960   183A      1.705250   184A      1.706603
     185A      1.713717   186A      1.735233   187A      1.741597
     188A      1.754666   189A      1.764621   190A      1.783205
     191A      1.818912   192A      1.831925   193A      1.845454
     194A      1.847919   195A      1.856162   196A      1.876874
     197A      1.887299   198A      1.891788   199A      1.897938
     200A      1.898450   201A      1.915662   202A      1.929040
     203A      1.931046   204A      1.936554   205A      1.950567
     206A      1.952180   207A      1.965437   208A      1.976528
     209A      1.978228   210A      1.986127   211A      1.994977
     212A      1.996848   213A      2.002310   214A      2.010476
     215A      2.014577   216A      2.023101   217A      2.033343
     218A      2.059352   219A      2.073120   220A      2.078995
     221A      2.082202   222A      2.091394   223A      2.106318
     224A      2.110568   225A      2.118687   226A      2.121543
     227A      2.133437   228A      2.145360   229A      2.154258
     230A      2.165033   231A      2.178528   232A      2.191948
     233A      2.229368   234A      2.257636   235A      2.267206
     236A      2.273802   237A      2.282501   238A      2.306314
     239A      2.314464   240A      2.317673   241A      2.324446
     242A      2.337144   243A      2.340429   244A      2.355918
     245A      2.365962   246A      2.380625   247A      2.400719
     248A      2.420656   249A      2.452300   250A      2.469509
     251A      2.491606   252A      2.540374   253A      2.575385
     254A      2.589983   255A      2.601502   256A      2.608090
     257A      2.621031   258A      2.630545   259A      2.673104
     260A      2.683433   261A      2.711755   262A      2.724543
     263A      2.741612   264A      2.763184   265A      2.767110
     266A      2.775081   267A      2.787175   268A      2.790715
     269A      2.792112   270A      2.801498   271A      2.804741
     272A      2.809952   273A      2.840406   274A      2.847984
     275A      2.855601   276A      2.865538   277A      2.876968
     278A      2.925584   279A      2.970826   280A      3.022151
     281A      3.023137   282A      3.031516   283A      3.061770
     284A      3.070502   285A      3.115229   286A      3.118902
     287A      3.203792   288A      3.295606   289A      3.374905
     290A      3.741251   291A      3.948510

    Final Occupation by Irrep:
              A
    DOCC [    52 ]

  @RHF Final Energy:  -557.84057853289630

   => Energetics <=

    Nuclear Repulsion Energy =            853.4291753535552516
    One-Electron Energy =               -2448.1825665908954761
    Two-Electron Energy =                1036.9128127044439225
    Total Energy =                       -557.8405785328961883

Computation Completed

Properties will be evaluated at   0.000000,   0.000000,   0.000000 [a0]

Properties computed using the SCF density matrix

  Nuclear Dipole Moment: [e a0]
     X:    -6.1829      Y:    13.4801      Z:    15.5496

  Electronic Dipole Moment: [e a0]
     X:     6.1912      Y:   -13.7546      Z:   -14.8785

  Dipole Moment: [e a0]
     X:     0.0083      Y:    -0.2745      Z:     0.6711     Total:     0.7251

  Dipole Moment: [D]
     X:     0.0211      Y:    -0.6976      Z:     1.7058     Total:     1.8431

*** tstop() called on ds3 at Sun Apr 26 19:25:59 2020
Module time:
	user time   =     397.98 seconds =       6.63 minutes
	system time =     146.05 seconds =       2.43 minutes
	total time  =        771 seconds =      12.85 minutes
Total time:
	user time   =     397.98 seconds =       6.63 minutes
	system time =     146.05 seconds =       2.43 minutes
	total time  =        771 seconds =      12.85 minutes
                                     G D M A

                                 by Anthony Stone

                           version 2.2.06, 22 June 2011

               Distributed Multipoles from Gaussian wavefunctions

Starting at 19:25:59 on 26 Apr 2020

Using SCF density matrix from file ./SSI/SSI-027VAL-070TRP-1-dimer.test.5972.fchk

                         Distributed Multipole Analysis

Standard DMA

Positions and radii in angstrom
Multipole moments in atomic units, ea_0^k for rank k

C          x = -1.282762  y =  1.444619  z =  2.843449 angstrom
           Maximum rank =  0   Radius =  0.650 angstrom
                   Q00  =   0.005579

C          x = -1.515762  y =  2.107619  z =  4.222449 angstrom
           Maximum rank =  0   Radius =  0.650 angstrom
                   Q00  =  -0.236730

C          x = -2.588762  y =  0.929619  z =  2.247449 angstrom
           Maximum rank =  0   Radius =  0.650 angstrom
                   Q00  =  -0.240951

C          x = -0.608762  y =  2.425619  z =  1.864449 angstrom
           Maximum rank =  0   Radius =  0.650 angstrom
                   Q00  =  -0.260491

H          x = -0.613762  y =  0.596619  z =  2.972449 angstrom
           Maximum rank =  0   Radius =  0.325 angstrom
                   Q00  =  -0.000461

H          x = -2.186762  y =  2.956619  z =  4.081449 angstrom
           Maximum rank =  0   Radius =  0.325 angstrom
                   Q00  =   0.078591

H          x = -3.300762  y =  1.751619  z =  2.164449 angstrom
           Maximum rank =  0   Radius =  0.325 angstrom
                   Q00  =   0.076234

H          x = -2.394762  y =  0.532619  z =  1.251449 angstrom
           Maximum rank =  0   Radius =  0.325 angstrom
                   Q00  =   0.087077

H          x = -3.009762  y =  0.133619  z =  2.860449 angstrom
           Maximum rank =  0   Radius =  0.325 angstrom
                   Q00  =   0.076078

H          x =  0.361238  y =  2.743619  z =  2.243449 angstrom
           Maximum rank =  0   Radius =  0.325 angstrom
                   Q00  =   0.073870

H          x = -0.436762  y =  1.925619  z =  0.916449 angstrom
           Maximum rank =  0   Radius =  0.325 angstrom
                   Q00  =   0.100142

H          x = -1.245762  y =  3.294619  z =  1.703449 angstrom
           Maximum rank =  0   Radius =  0.325 angstrom
                   Q00  =   0.075905

H          x = -0.560275  y =  2.439669  z =  4.654639 angstrom
           Maximum rank =  0   Radius =  0.325 angstrom
                   Q00  =   0.081570

H          x = -1.994227  y =  1.400759  z =  4.916296 angstrom
           Maximum rank =  0   Radius =  0.325 angstrom
                   Q00  =   0.079308

C          x =  2.492238  y =  1.444619  z = -0.461551 angstrom
           Maximum rank =  0   Radius =  0.650 angstrom
                   Q00  =  -0.215559

C          x =  1.237238  y = -0.408381  z =  0.815449 angstrom
           Maximum rank =  0   Radius =  0.650 angstrom
                   Q00  =   0.077038

C          x =  1.568238  y =  0.271619  z = -0.330551 angstrom
           Maximum rank =  0   Radius =  0.650 angstrom
                   Q00  =  -0.130898

C          x =  0.181238  y = -1.492381  z = -0.838551 angstrom
           Maximum rank =  0   Radius =  0.650 angstrom
                   Q00  =   0.274091

C          x =  0.898238  y = -0.406381  z = -1.408551 angstrom
           Maximum rank =  0   Radius =  0.650 angstrom
                   Q00  =  -0.047164

C          x = -0.571762  y = -2.365381  z = -1.605551 angstrom
           Maximum rank =  0   Radius =  0.650 angstrom
                   Q00  =  -0.117808

C          x =  0.835238  y = -0.214381  z = -2.800551 angstrom
           Maximum rank =  0   Radius =  0.650 angstrom
                   Q00  =  -0.099597

C          x = -0.628762  y = -2.151381  z = -2.970551 angstrom
           Maximum rank =  0   Radius =  0.650 angstrom
                   Q00  =  -0.041605

C          x =  0.073238  y = -1.094381  z = -3.568551 angstrom
           Maximum rank =  0   Radius =  0.650 angstrom
                   Q00  =  -0.094964

N          x =  0.398238  y = -1.455381  z =  0.512449 angstrom
           Maximum rank =  0   Radius =  0.650 angstrom
                   Q00  =  -0.501719

H          x =  1.569238  y = -0.150381  z =  1.812449 angstrom
           Maximum rank =  0   Radius =  0.325 angstrom
                   Q00  =   0.099366

H          x = -0.002762  y = -2.114381  z =  1.185449 angstrom
           Maximum rank =  0   Radius =  0.325 angstrom
                   Q00  =   0.220876

H          x =  2.069238  y =  2.301619  z =  0.065449 angstrom
           Maximum rank =  0   Radius =  0.325 angstrom
                   Q00  =   0.101783

H          x =  2.568238  y =  1.704619  z = -1.516551 angstrom
           Maximum rank =  0   Radius =  0.325 angstrom
                   Q00  =   0.108875

H          x = -1.075762  y = -3.205381  z = -1.153551 angstrom
           Maximum rank =  0   Radius =  0.325 angstrom
                   Q00  =   0.072438

H          x =  1.354238  y =  0.611619  z = -3.256551 angstrom
           Maximum rank =  0   Radius =  0.325 angstrom
                   Q00  =   0.070485

H          x = -1.208762  y = -2.821381  z = -3.593551 angstrom
           Maximum rank =  0   Radius =  0.325 angstrom
                   Q00  =   0.064505

H          x =  0.013238  y = -0.955381  z = -4.640551 angstrom
           Maximum rank =  0   Radius =  0.325 angstrom
                   Q00  =   0.060934

H          x =  3.500572  y =  1.228449  z = -0.078757 angstrom
           Maximum rank =  0   Radius =  0.325 angstrom
                   Q00  =   0.103203

Total multipoles referred to origin at
           x =   0.000000,  y =    0.000000,  z =    0.000000 angstrom
                   Q00  =  -0.000000

Finished at 19:25:59 on 26 Apr 2020

  DMA results are available in the Python driver through the
	  variable('DMA DISTRIBUTED MULTIPOLES')
  and
	  variable('DMA TOTAL MULTIPOLES')
  commands.

    Psi4 stopped on: Sunday, 26 April 2020 07:25PM
    Psi4 wall time for execution: 0:12:51.83

*** Psi4 exiting successfully. Buy a developer a beer!
