                               Psi4 1.3.2 release

  ==> Input File <==

--------------------------------------------------------------------------
import numpy as np
set {scf_type pk
basis cc-pvdz
d_convergence 10
gdma_switch   0
gdma_limit    0
gdma_origin   [ 0.0,  0.0,  0.0 ]
}
molecule test {
    units Angstrom
    -1 1
    --
    -1 1
    C                1.491622070845730     1.307510488629425    -0.526814271869940
    C                1.383622070845730     0.851510488629425    -1.985814271869940
    C                0.535622070845730     2.444510488629425    -0.142814271869940
    H                1.299622070845730     0.462510488629425     0.132185728130060
    H                2.517622070845730     1.624510488629425    -0.335814271869940
    H                1.679622070845730     1.674510488629425    -2.637814271869940
    H               -0.493377929154270     2.109510488629425    -0.261814271869940
    H                0.681622070845730     2.681510488629425     0.912185728130060
    H                0.361882070845730     0.534940488629425    -2.242375271869940
    H                2.103034070845730     0.043250488629425    -2.183725271869940
    H                0.670131070845730     3.360890488629425    -0.736234271869940
    C               -0.969377929154270    -1.266489511370575     2.090185728130060
    C               -0.835377929154270    -1.145489511370575     0.581185728130060
    O               -0.023377929154270    -1.891489511370575    -0.016814271869940
    O               -1.546377929154270    -0.296489511370575     0.002185728130060
    H               -1.954377929154270    -1.668489511370575     2.334185728130060
    H               -0.880377929154270    -0.274489511370575     2.539185728130060
    H               -0.195917929154270    -1.918279511370575     2.522540728130060

}
e, wfn = energy('scf', return_wfn=True)
gdma(wfn)
dmavals = variable('DMA DISTRIBUTED MULTIPOLES')
charges = np.array(dmavals)
print(charges)
np.save('SSI-035LYS-090GLU-1-dimer.npy', np.array(charges))--------------------------------------------------------------------------

*** tstart() called on ds3
*** at Mon Apr 27 13:59:34 2020

   => Loading Basis Set <=

    Name: CC-PVDZ
    Role: ORBITAL
    Keyword: BASIS
    atoms 1-3, 12-13  entry C          line   138 file /theoryfs2/ds/metcalf/miniconda2/envs/tf2gpu/share/psi4/basis/cc-pvdz.gbs
    atoms 4-11, 16-18 entry H          line    22 file /theoryfs2/ds/metcalf/miniconda2/envs/tf2gpu/share/psi4/basis/cc-pvdz.gbs
    atoms 14-15       entry O          line   198 file /theoryfs2/ds/metcalf/miniconda2/envs/tf2gpu/share/psi4/basis/cc-pvdz.gbs

         ---------------------------------------------------------
                                   SCF
               by Justin Turney, Rob Parrish, Andy Simmonett
                          and Daniel G. A. Smith
                              RHF Reference
                        1 Threads,    500 MiB Core
         ---------------------------------------------------------

  ==> Geometry <==

    Molecular point group: c1
    Full point group: C1

    Geometry (in Angstrom), charge = -1, multiplicity = 1:

       Center              X                  Y                   Z               Mass
    ------------   -----------------  -----------------  -----------------  -----------------
         C            1.491622070846     1.307510488629    -0.526814271870    12.000000000000
         C            1.383622070846     0.851510488629    -1.985814271870    12.000000000000
         C            0.535622070846     2.444510488629    -0.142814271870    12.000000000000
         H            1.299622070846     0.462510488629     0.132185728130     1.007825032230
         H            2.517622070846     1.624510488629    -0.335814271870     1.007825032230
         H            1.679622070846     1.674510488629    -2.637814271870     1.007825032230
         H           -0.493377929154     2.109510488629    -0.261814271870     1.007825032230
         H            0.681622070846     2.681510488629     0.912185728130     1.007825032230
         H            0.361882070846     0.534940488629    -2.242375271870     1.007825032230
         H            2.103034070846     0.043250488629    -2.183725271870     1.007825032230
         H            0.670131070846     3.360890488629    -0.736234271870     1.007825032230
         C           -0.969377929154    -1.266489511371     2.090185728130    12.000000000000
         C           -0.835377929154    -1.145489511371     0.581185728130    12.000000000000
         O           -0.023377929154    -1.891489511371    -0.016814271870    15.994914619570
         O           -1.546377929154    -0.296489511371     0.002185728130    15.994914619570
         H           -1.954377929154    -1.668489511371     2.334185728130     1.007825032230
         H           -0.880377929154    -0.274489511371     2.539185728130     1.007825032230
         H           -0.195917929154    -1.918279511371     2.522540728130     1.007825032230

  Running in c1 symmetry.

  Rotational constants: A =      0.11858  B =      0.04118  C =      0.03647 [cm^-1]
  Rotational constants: A =   3555.04046  B =   1234.60202  C =   1093.28298 [MHz]
  Nuclear repulsion =  301.551870920568035

  Charge       = -1
  Multiplicity = 1
  Electrons    = 58
  Nalpha       = 29
  Nbeta        = 29

  ==> Algorithm <==

  SCF Algorithm Type is PK.
  DIIS enabled.
  MOM disabled.
  Fractional occupation disabled.
  Guess Type is SAD.
  Energy threshold   = 1.00e-06
  Density threshold  = 1.00e-10
  Integral threshold = 0.00e+00

  ==> Primary Basis <==

  Basis Set: CC-PVDZ
    Blend: CC-PVDZ
    Number of shells: 75
    Number of basis function: 153
    Number of Cartesian functions: 160
    Spherical Harmonics?: true
    Max angular momentum: 2

  ==> Pre-Iterations <==

   -------------------------------------------------------
    Irrep   Nso     Nmo     Nalpha   Nbeta   Ndocc  Nsocc
   -------------------------------------------------------
     A        153     153       0       0       0       0
   -------------------------------------------------------
    Total     153     153      29      29      29       0
   -------------------------------------------------------

  ==> Integral Setup <==

  Using integral reordering PK algorithm.
  Sizing the integral batches needed.
  Building batch lookup table.
   Calculation information:
      Number of atoms:                  18
      Number of AO shells:              75
      Number of primitives:            209
      Number of atomic orbitals:       160
      Number of basis functions:       153

      Integral cutoff                 1.00e-12
      Number of threads:                 1

	Batch   1 pq = [       0,    9405] index = [             0,44231715] size =     44231715
	Batch   2 pq = [    9405,   11781] index = [      44231715,69401871] size =     25170156
  Task number: 7
  Buffer size: 11059200
  Buffer per thread: 2
  We computed 3834351 shell quartets total.
  Whereas there are 4062675 unique shell quartets.

  ==> DiskJK: Disk-Based J/K Matrices <==

    J tasked:                  Yes
    K tasked:                  Yes
    wK tasked:                  No
    Memory [MiB]:              375
    Schwarz Cutoff:          1E-12

    OpenMP threads:              1

  Minimum eigenvalue in the overlap matrix is 5.1168348687E-03.
  Using Symmetric Orthogonalization.

  SCF Guess: Superposition of Atomic Densities via on-the-fly atomic UHF.

  ==> Iterations <==

                        Total Energy        Delta E     RMS |[F,P]|

   @RHF iter SAD:  -343.83752005485997   -3.43838e+02   0.00000e+00
   @RHF iter   1:  -345.21835553539751   -1.38084e+00   4.96988e-03 DIIS
   @RHF iter   2:  -345.44738713409197   -2.29032e-01   2.77173e-03 DIIS
   @RHF iter   3:  -345.51540959272279   -6.80225e-02   4.24856e-04 DIIS
   @RHF iter   4:  -345.51835926454072   -2.94967e-03   1.61849e-04 DIIS
   @RHF iter   5:  -345.51877579969971   -4.16535e-04   2.38397e-05 DIIS
   @RHF iter   6:  -345.51878746446585   -1.16648e-05   6.29541e-06 DIIS
   @RHF iter   7:  -345.51878821836891   -7.53903e-07   1.66279e-06 DIIS
   @RHF iter   8:  -345.51878827915266   -6.07837e-08   6.27098e-07 DIIS
   @RHF iter   9:  -345.51878828604686   -6.89420e-09   2.42366e-07 DIIS
   @RHF iter  10:  -345.51878828781122   -1.76436e-09   1.13532e-07 DIIS
   @RHF iter  11:  -345.51878828821992   -4.08704e-10   2.93353e-08 DIIS
   @RHF iter  12:  -345.51878828825494   -3.50155e-11   8.16491e-09 DIIS
   @RHF iter  13:  -345.51878828825636   -1.42109e-12   2.32592e-09 DIIS
   @RHF iter  14:  -345.51878828825716   -7.95808e-13   6.69312e-10 DIIS
   @RHF iter  15:  -345.51878828825613    1.02318e-12   2.25332e-10 DIIS
   @RHF iter  16:  -345.51878828825789   -1.76215e-12   7.82961e-11 DIIS
  Energy and wave function converged.

  ==> Post-Iterations <==

    Orbital Energies [Eh]
    ---------------------

    Doubly Occupied:

       1A    -20.263874     2A    -20.263622     3A    -11.119599
       4A    -11.079328     5A    -11.078569     6A    -11.077601
       7A    -11.053195     8A     -1.152412     9A     -1.039582
      10A     -0.908725    11A     -0.799165    12A     -0.786533
      13A     -0.657822    14A     -0.504352    15A     -0.479953
      16A     -0.453994    17A     -0.414981    18A     -0.411953
      19A     -0.409549    20A     -0.406869    21A     -0.390346
      22A     -0.345232    23A     -0.333195    24A     -0.331874
      25A     -0.325349    26A     -0.303571    27A     -0.186360
      28A     -0.176056    29A     -0.164661

    Virtual:

      30A      0.311598    31A      0.340476    32A      0.361004
      33A      0.367376    34A      0.379120    35A      0.398580
      36A      0.410516    37A      0.421204    38A      0.429137
      39A      0.450777    40A      0.454816    41A      0.489183
      42A      0.514388    43A      0.564354    44A      0.571608
      45A      0.685592    46A      0.700319    47A      0.711562
      48A      0.753357    49A      0.754828    50A      0.784378
      51A      0.810131    52A      0.829068    53A      0.869582
      54A      0.921405    55A      0.946865    56A      0.964538
      57A      0.974072    58A      0.994519    59A      1.010193
      60A      1.017653    61A      1.030284    62A      1.031779
      63A      1.038252    64A      1.043370    65A      1.055331
      66A      1.062135    67A      1.073099    68A      1.082397
      69A      1.116988    70A      1.121231    71A      1.142567
      72A      1.158421    73A      1.238758    74A      1.265941
      75A      1.282213    76A      1.338863    77A      1.353674
      78A      1.372891    79A      1.420983    80A      1.505715
      81A      1.557712    82A      1.559424    83A      1.571446
      84A      1.600609    85A      1.616285    86A      1.655942
      87A      1.666102    88A      1.678394    89A      1.688553
      90A      1.732004    91A      1.782173    92A      1.827594
      93A      1.830708    94A      1.836882    95A      1.840471
      96A      1.855908    97A      1.999914    98A      2.003742
      99A      2.021419   100A      2.035107   101A      2.063071
     102A      2.077377   103A      2.081343   104A      2.092340
     105A      2.105785   106A      2.109043   107A      2.121511
     108A      2.127800   109A      2.132054   110A      2.143531
     111A      2.153358   112A      2.197026   113A      2.222485
     114A      2.260912   115A      2.283093   116A      2.286717
     117A      2.337601   118A      2.431451   119A      2.433556
     120A      2.446808   121A      2.476199   122A      2.479205
     123A      2.496286   124A      2.590026   125A      2.645841
     126A      2.658711   127A      2.682836   128A      2.717670
     129A      2.730960   130A      2.747605   131A      2.758560
     132A      2.782105   133A      2.890700   134A      2.902238
     135A      2.914364   136A      2.940542   137A      2.950666
     138A      2.963469   139A      2.988387   140A      3.076788
     141A      3.113018   142A      3.132044   143A      3.210985
     144A      3.241032   145A      3.274952   146A      3.297692
     147A      3.363638   148A      3.631229   149A      3.787430
     150A      3.832000   151A      4.066207   152A      4.085793
     153A      4.192194

    Final Occupation by Irrep:
              A
    DOCC [    29 ]

  @RHF Final Energy:  -345.51878828825789

   => Energetics <=

    Nuclear Repulsion Energy =            301.5518709205680352
    One-Electron Energy =               -1080.3046702442286460
    Two-Electron Energy =                 433.2340110354027161
    Total Energy =                       -345.5187882882578947

Computation Completed

Properties will be evaluated at   0.000000,   0.000000,   0.000000 [a0]

Properties computed using the SCF density matrix

  Nuclear Dipole Moment: [e a0]
     X:     5.4199      Y:     8.0802      Z:     0.0398

  Electronic Dipole Moment: [e a0]
     X:    -4.3931      Y:    -6.5941      Z:     0.3930

  Dipole Moment: [e a0]
     X:     1.0268      Y:     1.4861      Z:     0.4327     Total:     1.8575

  Dipole Moment: [D]
     X:     2.6100      Y:     3.7773      Z:     1.0999     Total:     4.7212

*** tstop() called on ds3 at Mon Apr 27 14:00:11 2020
Module time:
	user time   =      27.82 seconds =       0.46 minutes
	system time =      10.54 seconds =       0.18 minutes
	total time  =         37 seconds =       0.62 minutes
Total time:
	user time   =      27.82 seconds =       0.46 minutes
	system time =      10.54 seconds =       0.18 minutes
	total time  =         37 seconds =       0.62 minutes
                                     G D M A

                                 by Anthony Stone

                           version 2.2.06, 22 June 2011

               Distributed Multipoles from Gaussian wavefunctions

Starting at 14:0:11 on 27 Apr 2020

Using SCF density matrix from file ./SSI/SSI-035LYS-090GLU-1-dimer.test.8448.fchk

                         Distributed Multipole Analysis

Standard DMA

Positions and radii in angstrom
Multipole moments in atomic units, ea_0^k for rank k

C          x =  1.491622  y =  1.307510  z = -0.526814 angstrom
           Maximum rank =  0   Radius =  0.650 angstrom
                   Q00  =  -0.041145

C          x =  1.383622  y =  0.851510  z = -1.985814 angstrom
           Maximum rank =  0   Radius =  0.650 angstrom
                   Q00  =  -0.202125

C          x =  0.535622  y =  2.444510  z = -0.142814 angstrom
           Maximum rank =  0   Radius =  0.650 angstrom
                   Q00  =  -0.248954

H          x =  1.299622  y =  0.462510  z =  0.132186 angstrom
           Maximum rank =  0   Radius =  0.325 angstrom
                   Q00  =   0.086698

H          x =  2.517622  y =  1.624510  z = -0.335814 angstrom
           Maximum rank =  0   Radius =  0.325 angstrom
                   Q00  =  -0.014316

H          x =  1.679622  y =  1.674510  z = -2.637814 angstrom
           Maximum rank =  0   Radius =  0.325 angstrom
                   Q00  =   0.014960

H          x = -0.493378  y =  2.109510  z = -0.261814 angstrom
           Maximum rank =  0   Radius =  0.325 angstrom
                   Q00  =   0.118792

H          x =  0.681622  y =  2.681510  z =  0.912186 angstrom
           Maximum rank =  0   Radius =  0.325 angstrom
                   Q00  =   0.055691

H          x =  0.361882  y =  0.534940  z = -2.242375 angstrom
           Maximum rank =  0   Radius =  0.325 angstrom
                   Q00  =   0.112093

H          x =  2.103034  y =  0.043250  z = -2.183725 angstrom
           Maximum rank =  0   Radius =  0.325 angstrom
                   Q00  =   0.072265

H          x =  0.670131  y =  3.360890  z = -0.736234 angstrom
           Maximum rank =  0   Radius =  0.325 angstrom
                   Q00  =   0.027304

C          x = -0.969378  y = -1.266490  z =  2.090186 angstrom
           Maximum rank =  0   Radius =  0.650 angstrom
                   Q00  =  -0.273896

C          x = -0.835378  y = -1.145490  z =  0.581186 angstrom
           Maximum rank =  0   Radius =  0.650 angstrom
                   Q00  =   0.952975

O          x = -0.023378  y = -1.891490  z = -0.016814 angstrom
           Maximum rank =  0   Radius =  0.650 angstrom
                   Q00  =  -0.921392

O          x = -1.546378  y = -0.296490  z =  0.002186 angstrom
           Maximum rank =  0   Radius =  0.650 angstrom
                   Q00  =  -0.925431

H          x = -1.954378  y = -1.668490  z =  2.334186 angstrom
           Maximum rank =  0   Radius =  0.325 angstrom
                   Q00  =   0.075275

H          x = -0.880378  y = -0.274490  z =  2.539186 angstrom
           Maximum rank =  0   Radius =  0.325 angstrom
                   Q00  =   0.062463

H          x = -0.195918  y = -1.918280  z =  2.522541 angstrom
           Maximum rank =  0   Radius =  0.325 angstrom
                   Q00  =   0.048743

Total multipoles referred to origin at
           x =   0.000000,  y =    0.000000,  z =    0.000000 angstrom
                   Q00  =  -1.000000

Finished at 14:0:11 on 27 Apr 2020

  DMA results are available in the Python driver through the
	  variable('DMA DISTRIBUTED MULTIPOLES')
  and
	  variable('DMA TOTAL MULTIPOLES')
  commands.

    Psi4 stopped on: Monday, 27 April 2020 02:00PM
    Psi4 wall time for execution: 0:00:37.26

*** Psi4 exiting successfully. Buy a developer a beer!
