                               Psi4 1.3.2 release

  ==> Input File <==

--------------------------------------------------------------------------
import numpy as np
set {scf_type pk
basis cc-pvdz
d_convergence 10
gdma_switch   0
gdma_limit    0
gdma_origin   [ 0.0,  0.0,  0.0 ]
}
molecule test {
    units Angstrom
    -1 1
    --
    -1 1
    C               -2.778542412006851     0.271018450012383     1.633193029979656
    O               -2.217542412006851     0.870018450012383     0.469193029979656
    H               -1.336542412006851     0.461018450012383     0.324193029979656
    H               -2.726542412006851    -0.791981549987617     1.699193029979656
    H               -2.271372412006851     0.680798450012382     2.519113029979656
    H               -3.862402412006851     0.457688450012383     1.653452029979656
    C                1.296457587993149     0.055018450012383    -1.953806970020344
    C                1.338457587993149    -0.336981549987618    -0.488806970020344
    O                0.287457587993149    -0.250981549987618     0.192193029979656
    O                2.434457587993149    -0.689981549987618    -0.005806970020344
    H                1.438457587993149    -0.836981549987617    -2.567806970020345
    H                2.115457587993149     0.748018450012383    -2.161806970020344
    H                0.348327587993149     0.537698450012383    -2.233216970020345

}
e, wfn = energy('scf', return_wfn=True)
gdma(wfn)
dmavals = variable('DMA DISTRIBUTED MULTIPOLES')
charges = np.array(dmavals)
print(charges)
np.save('SSI-031THR-085GLU-1-dimer.npy', np.array(charges))--------------------------------------------------------------------------

*** tstart() called on ds3
*** at Mon Apr 27 16:25:58 2020

   => Loading Basis Set <=

    Name: CC-PVDZ
    Role: ORBITAL
    Keyword: BASIS
    atoms 1, 7-8     entry C          line   138 file /theoryfs2/ds/metcalf/miniconda2/envs/tf2gpu/share/psi4/basis/cc-pvdz.gbs
    atoms 2, 9-10    entry O          line   198 file /theoryfs2/ds/metcalf/miniconda2/envs/tf2gpu/share/psi4/basis/cc-pvdz.gbs
    atoms 3-6, 11-13 entry H          line    22 file /theoryfs2/ds/metcalf/miniconda2/envs/tf2gpu/share/psi4/basis/cc-pvdz.gbs

         ---------------------------------------------------------
                                   SCF
               by Justin Turney, Rob Parrish, Andy Simmonett
                          and Daniel G. A. Smith
                              RHF Reference
                        1 Threads,    500 MiB Core
         ---------------------------------------------------------

  ==> Geometry <==

    Molecular point group: c1
    Full point group: C1

    Geometry (in Angstrom), charge = -1, multiplicity = 1:

       Center              X                  Y                   Z               Mass
    ------------   -----------------  -----------------  -----------------  -----------------
         C           -2.778542412007     0.271018450012     1.633193029980    12.000000000000
         O           -2.217542412007     0.870018450012     0.469193029980    15.994914619570
         H           -1.336542412007     0.461018450012     0.324193029980     1.007825032230
         H           -2.726542412007    -0.791981549988     1.699193029980     1.007825032230
         H           -2.271372412007     0.680798450012     2.519113029980     1.007825032230
         H           -3.862402412007     0.457688450012     1.653452029980     1.007825032230
         C            1.296457587993     0.055018450012    -1.953806970020    12.000000000000
         C            1.338457587993    -0.336981549988    -0.488806970020    12.000000000000
         O            0.287457587993    -0.250981549988     0.192193029980    15.994914619570
         O            2.434457587993    -0.689981549988    -0.005806970020    15.994914619570
         H            1.438457587993    -0.836981549988    -2.567806970020     1.007825032230
         H            2.115457587993     0.748018450012    -2.161806970020     1.007825032230
         H            0.348327587993     0.537698450012    -2.233216970020     1.007825032230

  Running in c1 symmetry.

  Rotational constants: A =      0.26285  B =      0.03961  C =      0.03514 [cm^-1]
  Rotational constants: A =   7880.15378  B =   1187.43088  C =   1053.32523 [MHz]
  Nuclear repulsion =  224.184185190812542

  Charge       = -1
  Multiplicity = 1
  Electrons    = 50
  Nalpha       = 25
  Nbeta        = 25

  ==> Algorithm <==

  SCF Algorithm Type is PK.
  DIIS enabled.
  MOM disabled.
  Fractional occupation disabled.
  Guess Type is SAD.
  Energy threshold   = 1.00e-06
  Density threshold  = 1.00e-10
  Integral threshold = 0.00e+00

  ==> Primary Basis <==

  Basis Set: CC-PVDZ
    Blend: CC-PVDZ
    Number of shells: 57
    Number of basis function: 119
    Number of Cartesian functions: 125
    Spherical Harmonics?: true
    Max angular momentum: 2

  ==> Pre-Iterations <==

   -------------------------------------------------------
    Irrep   Nso     Nmo     Nalpha   Nbeta   Ndocc  Nsocc
   -------------------------------------------------------
     A        119     119       0       0       0       0
   -------------------------------------------------------
    Total     119     119      25      25      25       0
   -------------------------------------------------------

  ==> Integral Setup <==

  Using integral reordering PK algorithm.
  Sizing the integral batches needed.
  Building batch lookup table.
   Calculation information:
      Number of atoms:                  13
      Number of AO shells:              57
      Number of primitives:            167
      Number of atomic orbitals:       125
      Number of basis functions:       119

      Integral cutoff                 1.00e-12
      Number of threads:                 1

	Batch   1 pq = [       0,    7140] index = [             0,25493370] size =     25493370
  Task number: 3
  Buffer size: 11059200
  Buffer per thread: 2
  We computed 1063427 shell quartets total.
  Whereas there are 1367031 unique shell quartets.

  ==> DiskJK: Disk-Based J/K Matrices <==

    J tasked:                  Yes
    K tasked:                  Yes
    wK tasked:                  No
    Memory [MiB]:              375
    Schwarz Cutoff:          1E-12

    OpenMP threads:              1

  Minimum eigenvalue in the overlap matrix is 5.4551796243E-03.
  Using Symmetric Orthogonalization.

  SCF Guess: Superposition of Atomic Densities via on-the-fly atomic UHF.

  ==> Iterations <==

                        Total Energy        Delta E     RMS |[F,P]|

   @RHF iter SAD:  -340.63031838420773   -3.40630e+02   0.00000e+00
   @RHF iter   1:  -342.08033451353612   -1.45002e+00   5.95951e-03 DIIS
   @RHF iter   2:  -342.25223256091942   -1.71898e-01   3.39912e-03 DIIS
   @RHF iter   3:  -342.30909870151095   -5.68661e-02   4.72536e-04 DIIS
   @RHF iter   4:  -342.31120459686201   -2.10590e-03   1.71071e-04 DIIS
   @RHF iter   5:  -342.31149487155983   -2.90275e-04   3.61491e-05 DIIS
   @RHF iter   6:  -342.31150712515563   -1.22536e-05   1.49602e-05 DIIS
   @RHF iter   7:  -342.31150890033473   -1.77518e-06   3.43497e-06 DIIS
   @RHF iter   8:  -342.31150908574773   -1.85413e-07   1.52053e-06 DIIS
   @RHF iter   9:  -342.31150911168641   -2.59387e-08   5.84866e-07 DIIS
   @RHF iter  10:  -342.31150911918019   -7.49378e-09   1.95092e-07 DIIS
   @RHF iter  11:  -342.31150912006501   -8.84825e-10   4.97922e-08 DIIS
   @RHF iter  12:  -342.31150912011339   -4.83737e-11   1.66892e-08 DIIS
   @RHF iter  13:  -342.31150912012157   -8.18545e-12   4.57763e-09 DIIS
   @RHF iter  14:  -342.31150912011918    2.38742e-12   1.30018e-09 DIIS
   @RHF iter  15:  -342.31150912012140   -2.21689e-12   4.71993e-10 DIIS
   @RHF iter  16:  -342.31150912011969    1.70530e-12   1.38170e-10 DIIS
   @RHF iter  17:  -342.31150912011935    3.41061e-13   5.99753e-11 DIIS
  Energy and wave function converged.

  ==> Post-Iterations <==

    Orbital Energies [Eh]
    ---------------------

    Doubly Occupied:

       1A    -20.376021     2A    -20.283004     3A    -20.271823
       4A    -11.133949     5A    -11.133800     6A    -11.059433
       7A     -1.176474     8A     -1.165422     9A     -1.054182
      10A     -0.807024    11A     -0.778068    12A     -0.538194
      13A     -0.505377    14A     -0.470812    15A     -0.429228
      16A     -0.422281    17A     -0.420282    18A     -0.416472
      19A     -0.360030    20A     -0.335443    21A     -0.319435
      22A     -0.282456    23A     -0.202672    24A     -0.188772
      25A     -0.180669

    Virtual:

      26A      0.322673    27A      0.347520    28A      0.384639
      29A      0.387200    30A      0.398596    31A      0.408500
      32A      0.458966    33A      0.472398    34A      0.555802
      35A      0.588840    36A      0.683320    37A      0.748321
      38A      0.756401    39A      0.795446    40A      0.815433
      41A      0.862892    42A      0.872012    43A      0.929595
      44A      0.939150    45A      0.964038    46A      1.000621
      47A      1.015814    48A      1.023395    49A      1.027705
      50A      1.038273    51A      1.057135    52A      1.081025
      53A      1.137054    54A      1.207981    55A      1.253704
      56A      1.282025    57A      1.332824    58A      1.336665
      59A      1.345801    60A      1.436783    61A      1.446032
      62A      1.508323    63A      1.535466    64A      1.552214
      65A      1.589753    66A      1.610670    67A      1.635328
      68A      1.682251    69A      1.723672    70A      1.799788
      71A      1.814088    72A      1.828917    73A      1.837001
      74A      1.842764    75A      1.863506    76A      1.987670
      77A      2.029144    78A      2.064578    79A      2.070248
      80A      2.084945    81A      2.089141    82A      2.100381
      83A      2.123960    84A      2.191243    85A      2.202099
      86A      2.254260    87A      2.308593    88A      2.321062
      89A      2.387411    90A      2.418423    91A      2.465404
      92A      2.494655    93A      2.562919    94A      2.572504
      95A      2.645942    96A      2.714814    97A      2.740702
      98A      2.870295    99A      2.899386   100A      2.912106
     101A      2.938801   102A      2.950028   103A      2.962064
     104A      3.002354   105A      3.227969   106A      3.269948
     107A      3.277934   108A      3.349906   109A      3.471843
     110A      3.565004   111A      3.601762   112A      3.616851
     113A      3.756935   114A      3.788638   115A      3.808036
     116A      4.026291   117A      4.068325   118A      4.173360
     119A      4.326753

    Final Occupation by Irrep:
              A
    DOCC [    25 ]

  @RHF Final Energy:  -342.31150912011935

   => Energetics <=

    Nuclear Repulsion Energy =            224.1841851908125420
    One-Electron Energy =                -924.3687434733612918
    Two-Electron Energy =                 357.8730491624294245
    Total Energy =                       -342.3115091201193536

Computation Completed

Properties will be evaluated at   0.000000,   0.000000,   0.000000 [a0]

Properties computed using the SCF density matrix

  Nuclear Dipole Moment: [e a0]
     X:    -5.8986      Y:     1.1774      Z:    -0.7158

  Electronic Dipole Moment: [e a0]
     X:     4.3801      Y:    -0.9367      Z:     0.3800

  Dipole Moment: [e a0]
     X:    -1.5185      Y:     0.2407      Z:    -0.3357     Total:     1.5737

  Dipole Moment: [D]
     X:    -3.8596      Y:     0.6118      Z:    -0.8533     Total:     3.9999

*** tstop() called on ds3 at Mon Apr 27 16:26:14 2020
Module time:
	user time   =       9.60 seconds =       0.16 minutes
	system time =       4.07 seconds =       0.07 minutes
	total time  =         16 seconds =       0.27 minutes
Total time:
	user time   =       9.60 seconds =       0.16 minutes
	system time =       4.07 seconds =       0.07 minutes
	total time  =         16 seconds =       0.27 minutes
                                     G D M A

                                 by Anthony Stone

                           version 2.2.06, 22 June 2011

               Distributed Multipoles from Gaussian wavefunctions

Starting at 16:26:14 on 27 Apr 2020

Using SCF density matrix from file ./SSI/SSI-031THR-085GLU-1-dimer.test.26811.fchk

                         Distributed Multipole Analysis

Standard DMA

Positions and radii in angstrom
Multipole moments in atomic units, ea_0^k for rank k

C          x = -2.778542  y =  0.271018  z =  1.633193 angstrom
           Maximum rank =  0   Radius =  0.650 angstrom
                   Q00  =   0.004322

O          x = -2.217542  y =  0.870018  z =  0.469193 angstrom
           Maximum rank =  0   Radius =  0.650 angstrom
                   Q00  =  -0.687819

H          x = -1.336542  y =  0.461018  z =  0.324193 angstrom
           Maximum rank =  0   Radius =  0.325 angstrom
                   Q00  =   0.522394

H          x = -2.726542  y = -0.791982  z =  1.699193 angstrom
           Maximum rank =  0   Radius =  0.325 angstrom
                   Q00  =   0.052863

H          x = -2.271372  y =  0.680798  z =  2.519113 angstrom
           Maximum rank =  0   Radius =  0.325 angstrom
                   Q00  =   0.047016

H          x = -3.862402  y =  0.457688  z =  1.653452 angstrom
           Maximum rank =  0   Radius =  0.325 angstrom
                   Q00  =   0.048600

C          x =  1.296458  y =  0.055018  z = -1.953807 angstrom
           Maximum rank =  0   Radius =  0.650 angstrom
                   Q00  =  -0.287736

C          x =  1.338458  y = -0.336982  z = -0.488807 angstrom
           Maximum rank =  0   Radius =  0.650 angstrom
                   Q00  =   0.952885

O          x =  0.287458  y = -0.250982  z =  0.192193 angstrom
           Maximum rank =  0   Radius =  0.650 angstrom
                   Q00  =  -0.958177

O          x =  2.434458  y = -0.689982  z = -0.005807 angstrom
           Maximum rank =  0   Radius =  0.650 angstrom
                   Q00  =  -0.907252

H          x =  1.438458  y = -0.836982  z = -2.567807 angstrom
           Maximum rank =  0   Radius =  0.325 angstrom
                   Q00  =   0.077829

H          x =  2.115458  y =  0.748018  z = -2.161807 angstrom
           Maximum rank =  0   Radius =  0.325 angstrom
                   Q00  =   0.070370

H          x =  0.348328  y =  0.537698  z = -2.233217 angstrom
           Maximum rank =  0   Radius =  0.325 angstrom
                   Q00  =   0.064705

Total multipoles referred to origin at
           x =   0.000000,  y =    0.000000,  z =    0.000000 angstrom
                   Q00  =  -1.000000

Finished at 16:26:14 on 27 Apr 2020

  DMA results are available in the Python driver through the
	  variable('DMA DISTRIBUTED MULTIPOLES')
  and
	  variable('DMA TOTAL MULTIPOLES')
  commands.

    Psi4 stopped on: Monday, 27 April 2020 04:26PM
    Psi4 wall time for execution: 0:00:15.63

*** Psi4 exiting successfully. Buy a developer a beer!
