                               Psi4 1.3.2 release

  ==> Input File <==

--------------------------------------------------------------------------
import numpy as np
set {scf_type pk
basis cc-pvdz
d_convergence 10
gdma_switch   0
gdma_limit    0
gdma_origin   [ 0.0,  0.0,  0.0 ]
}
molecule test {
    units Angstrom
    0 1
    --
    0 1
    C                2.125799900277644     1.552509693597013    -1.024427886547699
    C                1.844799900277644     2.126509693597012    -2.418427886547699
    C                3.569799900277644     1.795509693597013    -0.600427886547699
    H                1.474799900277644     2.065509693597013    -0.315427886547699
    H                1.897799900277644     0.490509693597013    -0.979427886547699
    H                2.096799900277644     3.190509693597013    -2.395427886547699
    H                4.221799900277644     1.230509693597013    -1.268427886547699
    H                3.805799900277644     2.833509693597013    -0.721427886547699
    H                0.790359900277644     2.000729693597013    -2.705387886547699
    H                2.482869900277644     1.641609693597013    -3.171917886547699
    H                3.774009900277644     1.449359693597013     0.423522113452301
    C               -1.079200099722356    -3.236490306402987     1.276572113452301
    C               -1.315200099722356     0.917509693597013     0.172572113452301
    C               -0.428200099722356     0.509509693597013     1.166572113452301
    C               -2.128200099722356    -0.022490306402987    -0.455427886547699
    C               -0.343200099722356    -0.843490306402987     1.520572113452301
    C               -2.036200099722356    -1.374490306402987    -0.101427886547699
    C               -1.135200099722356    -1.790490306402987     0.874572113452301
    H               -1.389200099722356     1.964509693597013    -0.088427886547699
    H                0.187799900277644     1.239509693597013     1.674572113452301
    H               -2.857200099722356     0.305509693597013    -1.173427886547699
    H                0.343799900277644    -1.149490306402987     2.296572113452301
    H               -2.679200099722356    -2.099490306402987    -0.579427886547699
    H               -0.276200099722356    -3.377490306402987     2.003572113452301
    H               -0.838200099722356    -3.832490306402987     0.395572113452301
    H               -2.022010099722356    -3.596070306402987     1.714532113452301

}
e, wfn = energy('scf', return_wfn=True)
gdma(wfn)
dmavals = variable('DMA DISTRIBUTED MULTIPOLES')
charges = np.array(dmavals)
print(charges)
np.save('SSI-037LYS-162PHE-1-dimer.npy', np.array(charges))--------------------------------------------------------------------------

*** tstart() called on ds3
*** at Mon Apr 27 23:28:08 2020

   => Loading Basis Set <=

    Name: CC-PVDZ
    Role: ORBITAL
    Keyword: BASIS
    atoms 1-3, 12-18  entry C          line   138 file /theoryfs2/ds/metcalf/miniconda2/envs/tf2gpu/share/psi4/basis/cc-pvdz.gbs
    atoms 4-11, 19-26 entry H          line    22 file /theoryfs2/ds/metcalf/miniconda2/envs/tf2gpu/share/psi4/basis/cc-pvdz.gbs

         ---------------------------------------------------------
                                   SCF
               by Justin Turney, Rob Parrish, Andy Simmonett
                          and Daniel G. A. Smith
                              RHF Reference
                        1 Threads,    500 MiB Core
         ---------------------------------------------------------

  ==> Geometry <==

    Molecular point group: c1
    Full point group: C1

    Geometry (in Angstrom), charge = 0, multiplicity = 1:

       Center              X                  Y                   Z               Mass
    ------------   -----------------  -----------------  -----------------  -----------------
         C            2.125799900278     1.552509693597    -1.024427886548    12.000000000000
         C            1.844799900278     2.126509693597    -2.418427886548    12.000000000000
         C            3.569799900278     1.795509693597    -0.600427886548    12.000000000000
         H            1.474799900278     2.065509693597    -0.315427886548     1.007825032230
         H            1.897799900278     0.490509693597    -0.979427886548     1.007825032230
         H            2.096799900278     3.190509693597    -2.395427886548     1.007825032230
         H            4.221799900278     1.230509693597    -1.268427886548     1.007825032230
         H            3.805799900278     2.833509693597    -0.721427886548     1.007825032230
         H            0.790359900278     2.000729693597    -2.705387886548     1.007825032230
         H            2.482869900278     1.641609693597    -3.171917886548     1.007825032230
         H            3.774009900278     1.449359693597     0.423522113452     1.007825032230
         C           -1.079200099722    -3.236490306403     1.276572113452    12.000000000000
         C           -1.315200099722     0.917509693597     0.172572113452    12.000000000000
         C           -0.428200099722     0.509509693597     1.166572113452    12.000000000000
         C           -2.128200099722    -0.022490306403    -0.455427886548    12.000000000000
         C           -0.343200099722    -0.843490306403     1.520572113452    12.000000000000
         C           -2.036200099722    -1.374490306403    -0.101427886548    12.000000000000
         C           -1.135200099722    -1.790490306403     0.874572113452    12.000000000000
         H           -1.389200099722     1.964509693597    -0.088427886548     1.007825032230
         H            0.187799900278     1.239509693597     1.674572113452     1.007825032230
         H           -2.857200099722     0.305509693597    -1.173427886548     1.007825032230
         H            0.343799900278    -1.149490306403     2.296572113452     1.007825032230
         H           -2.679200099722    -2.099490306403    -0.579427886548     1.007825032230
         H           -0.276200099722    -3.377490306403     2.003572113452     1.007825032230
         H           -0.838200099722    -3.832490306403     0.395572113452     1.007825032230
         H           -2.022010099722    -3.596070306403     1.714532113452     1.007825032230

  Running in c1 symmetry.

  Rotational constants: A =      0.06557  B =      0.01803  C =      0.01629 [cm^-1]
  Rotational constants: A =   1965.88534  B =    540.66423  C =    488.29353 [MHz]
  Nuclear repulsion =  485.050154954616232

  Charge       = 0
  Multiplicity = 1
  Electrons    = 76
  Nalpha       = 38
  Nbeta        = 38

  ==> Algorithm <==

  SCF Algorithm Type is PK.
  DIIS enabled.
  MOM disabled.
  Fractional occupation disabled.
  Guess Type is SAD.
  Energy threshold   = 1.00e-06
  Density threshold  = 1.00e-10
  Integral threshold = 0.00e+00

  ==> Primary Basis <==

  Basis Set: CC-PVDZ
    Blend: CC-PVDZ
    Number of shells: 108
    Number of basis function: 220
    Number of Cartesian functions: 230
    Spherical Harmonics?: true
    Max angular momentum: 2

  ==> Pre-Iterations <==

   -------------------------------------------------------
    Irrep   Nso     Nmo     Nalpha   Nbeta   Ndocc  Nsocc
   -------------------------------------------------------
     A        220     220       0       0       0       0
   -------------------------------------------------------
    Total     220     220      38      38      38       0
   -------------------------------------------------------

  ==> Integral Setup <==

  Using integral reordering PK algorithm.
  Sizing the integral batches needed.
  Building batch lookup table.
   Calculation information:
      Number of atoms:                  26
      Number of AO shells:             108
      Number of primitives:            300
      Number of atomic orbitals:       230
      Number of basis functions:       220

      Integral cutoff                 1.00e-12
      Number of threads:                 1

	Batch   1 pq = [       0,    9405] index = [             0,44231715] size =     44231715
	Batch   2 pq = [    9405,   13301] index = [      44231715,88464951] size =     44233236
	Batch   3 pq = [   13301,   16290] index = [      88464951,132690195] size =     44225244
	Batch   4 pq = [   16290,   18810] index = [     132690195,176917455] size =     44227260
	Batch   5 pq = [   18810,   21030] index = [     176917455,221140965] size =     44223510
	Batch   6 pq = [   21030,   23037] index = [     221140965,265363203] size =     44222238
	Batch   7 pq = [   23037,   24310] index = [     265363203,295500205] size =     30137002
  Task number: 27
  Buffer size: 11059200
  Buffer per thread: 2
  We computed 14947578 shell quartets total.
  Whereas there are 17325441 unique shell quartets.

  ==> DiskJK: Disk-Based J/K Matrices <==

    J tasked:                  Yes
    K tasked:                  Yes
    wK tasked:                  No
    Memory [MiB]:              375
    Schwarz Cutoff:          1E-12

    OpenMP threads:              1

  Minimum eigenvalue in the overlap matrix is 3.1931294194E-04.
  Using Symmetric Orthogonalization.

  SCF Guess: Superposition of Atomic Densities via on-the-fly atomic UHF.

  ==> Iterations <==

                        Total Energy        Delta E     RMS |[F,P]|

   @RHF iter SAD:  -386.87057207798779   -3.86871e+02   0.00000e+00
   @RHF iter   1:  -387.77105771981007   -9.00486e-01   2.75028e-03 DIIS
   @RHF iter   2:  -387.99010646997385   -2.19049e-01   1.15486e-03 DIIS
   @RHF iter   3:  -388.02521015077463   -3.51037e-02   2.50273e-04 DIIS
   @RHF iter   4:  -388.02809117777434   -2.88103e-03   5.28166e-05 DIIS
   @RHF iter   5:  -388.02818174459674   -9.05668e-05   1.66406e-05 DIIS
   @RHF iter   6:  -388.02819042800058   -8.68340e-06   4.97045e-06 DIIS
   @RHF iter   7:  -388.02819129848859   -8.70488e-07   1.20511e-06 DIIS
   @RHF iter   8:  -388.02819136093729   -6.24487e-08   3.10128e-07 DIIS
   @RHF iter   9:  -388.02819136872358   -7.78630e-09   1.27978e-07 DIIS
   @RHF iter  10:  -388.02819137057020   -1.84662e-09   6.91641e-08 DIIS
   @RHF iter  11:  -388.02819137118189   -6.11692e-10   2.67486e-08 DIIS
   @RHF iter  12:  -388.02819137129234   -1.10447e-10   9.01638e-09 DIIS
   @RHF iter  13:  -388.02819137129552   -3.18323e-12   3.93750e-09 DIIS
   @RHF iter  14:  -388.02819137129904   -3.52429e-12   1.03580e-09 DIIS
   @RHF iter  15:  -388.02819137129956   -5.11591e-13   3.81411e-10 DIIS
   @RHF iter  16:  -388.02819137129933    2.27374e-13   1.49499e-10 DIIS
   @RHF iter  17:  -388.02819137129831    1.02318e-12   6.51991e-11 DIIS
  Energy and wave function converged.

  ==> Post-Iterations <==

    Orbital Energies [Eh]
    ---------------------

    Doubly Occupied:

       1A    -11.240233     2A    -11.236524     3A    -11.236356
       4A    -11.231376     5A    -11.231210     6A    -11.230702
       7A    -11.229418     8A    -11.213931     9A    -11.212285
      10A    -11.209911    11A     -1.151229    12A     -1.049774
      13A     -1.044885    14A     -1.009227    15A     -0.930889
      16A     -0.918777    17A     -0.826435    18A     -0.794015
      19A     -0.792870    20A     -0.690292    21A     -0.632439
      22A     -0.629813    23A     -0.621845    24A     -0.592965
      25A     -0.581494    26A     -0.577596    27A     -0.563211
      28A     -0.542707    29A     -0.534740    30A     -0.524921
      31A     -0.487980    32A     -0.485243    33A     -0.481149
      34A     -0.468414    35A     -0.467994    36A     -0.458906
      37A     -0.330052    38A     -0.321851

    Virtual:

      39A      0.133096    40A      0.141641    41A      0.172681
      42A      0.192173    43A      0.205495    44A      0.209668
      45A      0.228623    46A      0.235689    47A      0.243606
      48A      0.258145    49A      0.263316    50A      0.269642
      51A      0.273447    52A      0.276033    53A      0.291974
      54A      0.304407    55A      0.315428    56A      0.332056
      57A      0.363956    58A      0.370511    59A      0.377156
      60A      0.429018    61A      0.451313    62A      0.461495
      63A      0.476357    64A      0.501674    65A      0.566703
      66A      0.583070    67A      0.585958    68A      0.606838
      69A      0.614743    70A      0.616686    71A      0.619188
      72A      0.631652    73A      0.680457    74A      0.695822
      75A      0.708912    76A      0.726564    77A      0.743115
      78A      0.745426    79A      0.747575    80A      0.755205
      81A      0.774265    82A      0.780046    83A      0.799767
      84A      0.804481    85A      0.814803    86A      0.837037
      87A      0.850985    88A      0.861406    89A      0.866242
      90A      0.880043    91A      0.890053    92A      0.894740
      93A      0.897303    94A      0.903207    95A      0.904151
      96A      0.911150    97A      0.919784    98A      0.920932
      99A      0.922713   100A      0.938671   101A      0.941376
     102A      0.957469   103A      0.965352   104A      0.982598
     105A      0.989637   106A      0.996596   107A      1.013585
     108A      1.062576   109A      1.114481   110A      1.130713
     111A      1.133694   112A      1.141100   113A      1.156779
     114A      1.179782   115A      1.199265   116A      1.210623
     117A      1.229938   118A      1.237526   119A      1.251191
     120A      1.267204   121A      1.299193   122A      1.304234
     123A      1.318191   124A      1.323037   125A      1.389320
     126A      1.415593   127A      1.476195   128A      1.494052
     129A      1.508115   130A      1.527222   131A      1.555624
     132A      1.571778   133A      1.602522   134A      1.625461
     135A      1.677674   136A      1.683293   137A      1.687343
     138A      1.697060   139A      1.707898   140A      1.739572
     141A      1.750492   142A      1.769394   143A      1.795639
     144A      1.818004   145A      1.855707   146A      1.874545
     147A      1.877682   148A      1.883322   149A      1.893722
     150A      1.896861   151A      1.911637   152A      1.915722
     153A      1.925730   154A      1.927896   155A      1.941775
     156A      1.944771   157A      1.950750   158A      1.958402
     159A      1.967293   160A      1.976432   161A      1.982824
     162A      1.993184   163A      1.997216   164A      2.008107
     165A      2.013399   166A      2.024227   167A      2.035184
     168A      2.045985   169A      2.054671   170A      2.080184
     171A      2.116208   172A      2.127724   173A      2.134744
     174A      2.153662   175A      2.158079   176A      2.167515
     177A      2.172606   178A      2.197433   179A      2.244309
     180A      2.269868   181A      2.281473   182A      2.294195
     183A      2.301875   184A      2.319861   185A      2.326826
     186A      2.340285   187A      2.351356   188A      2.358650
     189A      2.444148   190A      2.472405   191A      2.511893
     192A      2.519478   193A      2.527609   194A      2.539838
     195A      2.597003   196A      2.622571   197A      2.632543
     198A      2.635255   199A      2.730533   200A      2.752475
     201A      2.757174   202A      2.768994   203A      2.777672
     204A      2.789675   205A      2.806223   206A      2.810201
     207A      2.821877   208A      2.843175   209A      2.866285
     210A      2.924578   211A      2.968431   212A      2.973656
     213A      2.984671   214A      3.007324   215A      3.029719
     216A      3.082837   217A      3.156486   218A      3.196491
     219A      3.298961   220A      3.961434

    Final Occupation by Irrep:
              A
    DOCC [    38 ]

  @RHF Final Energy:  -388.02819137129831

   => Energetics <=

    Nuclear Repulsion Energy =            485.0501549546162323
    One-Electron Energy =               -1484.5893733533955583
    Two-Electron Energy =                 611.5110270274810773
    Total Energy =                       -388.0281913712982487

Computation Completed

Properties will be evaluated at   0.000000,   0.000000,   0.000000 [a0]

Properties computed using the SCF density matrix

  Nuclear Dipole Moment: [e a0]
     X:    10.3251      Y:     4.0843      Z:    -4.5846

  Electronic Dipole Moment: [e a0]
     X:   -10.4093      Y:    -4.2508      Z:     4.6630

  Dipole Moment: [e a0]
     X:    -0.0842      Y:    -0.1665      Z:     0.0784     Total:     0.2024

  Dipole Moment: [D]
     X:    -0.2140      Y:    -0.4231      Z:     0.1993     Total:     0.5143

*** tstop() called on ds3 at Mon Apr 27 23:30:55 2020
Module time:
	user time   =     118.03 seconds =       1.97 minutes
	system time =      56.31 seconds =       0.94 minutes
	total time  =        167 seconds =       2.78 minutes
Total time:
	user time   =     118.03 seconds =       1.97 minutes
	system time =      56.31 seconds =       0.94 minutes
	total time  =        167 seconds =       2.78 minutes
                                     G D M A

                                 by Anthony Stone

                           version 2.2.06, 22 June 2011

               Distributed Multipoles from Gaussian wavefunctions

Starting at 23:30:55 on 27 Apr 2020

Using SCF density matrix from file ./SSI/SSI-037LYS-162PHE-1-dimer.test.2922.fchk

                         Distributed Multipole Analysis

Standard DMA

Positions and radii in angstrom
Multipole moments in atomic units, ea_0^k for rank k

C          x =  2.125800  y =  1.552510  z = -1.024428 angstrom
           Maximum rank =  0   Radius =  0.650 angstrom
                   Q00  =  -0.067475

C          x =  1.844800  y =  2.126510  z = -2.418428 angstrom
           Maximum rank =  0   Radius =  0.650 angstrom
                   Q00  =  -0.253373

C          x =  3.569800  y =  1.795510  z = -0.600428 angstrom
           Maximum rank =  0   Radius =  0.650 angstrom
                   Q00  =  -0.236566

H          x =  1.474800  y =  2.065510  z = -0.315428 angstrom
           Maximum rank =  0   Radius =  0.325 angstrom
                   Q00  =   0.036502

H          x =  1.897800  y =  0.490510  z = -0.979428 angstrom
           Maximum rank =  0   Radius =  0.325 angstrom
                   Q00  =   0.059478

H          x =  2.096800  y =  3.190510  z = -2.395428 angstrom
           Maximum rank =  0   Radius =  0.325 angstrom
                   Q00  =   0.071117

H          x =  4.221800  y =  1.230510  z = -1.268428 angstrom
           Maximum rank =  0   Radius =  0.325 angstrom
                   Q00  =   0.071357

H          x =  3.805800  y =  2.833510  z = -0.721428 angstrom
           Maximum rank =  0   Radius =  0.325 angstrom
                   Q00  =   0.076710

H          x =  0.790360  y =  2.000730  z = -2.705388 angstrom
           Maximum rank =  0   Radius =  0.325 angstrom
                   Q00  =   0.086112

H          x =  2.482870  y =  1.641610  z = -3.171918 angstrom
           Maximum rank =  0   Radius =  0.325 angstrom
                   Q00  =   0.074667

H          x =  3.774010  y =  1.449360  z =  0.423522 angstrom
           Maximum rank =  0   Radius =  0.325 angstrom
                   Q00  =   0.081257

C          x = -1.079200  y = -3.236490  z =  1.276572 angstrom
           Maximum rank =  0   Radius =  0.650 angstrom
                   Q00  =  -0.200351

C          x = -1.315200  y =  0.917510  z =  0.172572 angstrom
           Maximum rank =  0   Radius =  0.650 angstrom
                   Q00  =  -0.090503

C          x = -0.428200  y =  0.509510  z =  1.166572 angstrom
           Maximum rank =  0   Radius =  0.650 angstrom
                   Q00  =  -0.069744

C          x = -2.128200  y = -0.022490  z = -0.455428 angstrom
           Maximum rank =  0   Radius =  0.650 angstrom
                   Q00  =  -0.075771

C          x = -0.343200  y = -0.843490  z =  1.520572 angstrom
           Maximum rank =  0   Radius =  0.650 angstrom
                   Q00  =  -0.055340

C          x = -2.036200  y = -1.374490  z = -0.101428 angstrom
           Maximum rank =  0   Radius =  0.650 angstrom
                   Q00  =  -0.021041

C          x = -1.135200  y = -1.790490  z =  0.874572 angstrom
           Maximum rank =  0   Radius =  0.650 angstrom
                   Q00  =  -0.096751

H          x = -1.389200  y =  1.964510  z = -0.088428 angstrom
           Maximum rank =  0   Radius =  0.325 angstrom
                   Q00  =   0.061557

H          x =  0.187800  y =  1.239510  z =  1.674572 angstrom
           Maximum rank =  0   Radius =  0.325 angstrom
                   Q00  =   0.066378

H          x = -2.857200  y =  0.305510  z = -1.173428 angstrom
           Maximum rank =  0   Radius =  0.325 angstrom
                   Q00  =   0.065859

H          x =  0.343800  y = -1.149490  z =  2.296572 angstrom
           Maximum rank =  0   Radius =  0.325 angstrom
                   Q00  =   0.059798

H          x = -2.679200  y = -2.099490  z = -0.579428 angstrom
           Maximum rank =  0   Radius =  0.325 angstrom
                   Q00  =   0.055776

H          x = -0.276200  y = -3.377490  z =  2.003572 angstrom
           Maximum rank =  0   Radius =  0.325 angstrom
                   Q00  =   0.095976

H          x = -0.838200  y = -3.832490  z =  0.395572 angstrom
           Maximum rank =  0   Radius =  0.325 angstrom
                   Q00  =   0.101136

H          x = -2.022010  y = -3.596070  z =  1.714532 angstrom
           Maximum rank =  0   Radius =  0.325 angstrom
                   Q00  =   0.103235

Total multipoles referred to origin at
           x =   0.000000,  y =    0.000000,  z =    0.000000 angstrom
                   Q00  =  -0.000000

Finished at 23:30:55 on 27 Apr 2020

  DMA results are available in the Python driver through the
	  variable('DMA DISTRIBUTED MULTIPOLES')
  and
	  variable('DMA TOTAL MULTIPOLES')
  commands.

    Psi4 stopped on: Monday, 27 April 2020 11:30PM
    Psi4 wall time for execution: 0:02:47.18

*** Psi4 exiting successfully. Buy a developer a beer!
