                               Psi4 1.3.2 release

  ==> Input File <==

--------------------------------------------------------------------------
import numpy as np
set {scf_type pk
basis cc-pvdz
d_convergence 10
gdma_switch   0
gdma_limit    0
gdma_origin   [ 0.0,  0.0,  0.0 ]
}
molecule test {
    units Angstrom
    0 1
    --
    0 1
    C                0.452107942855818    -0.543973736400569    -1.275357721961782
    C                0.862107942855817    -1.845973736400569    -1.891357721961782
    H               -0.603892057144182    -0.638973736400569    -1.036357721961782
    H                1.041107942855817    -0.380973736400569    -0.373357721961782
    H                0.580107942855817     0.271026263599431    -1.979357721961782
    H                0.577107942855818    -2.669973736400569    -1.234357721961782
    H                1.951107942855818    -1.829973736400569    -1.924357721961782
    H                0.447997942855818    -1.998125736400569    -2.899007721961782
    C               -0.585892057144182     1.481026263599431     0.884642278038218
    C               -0.725892057144182     0.915026263599431     2.280642278038218
    H                0.463107942855818     1.536026263599431     0.594642278038218
    H               -1.180892057144183     0.887026263599431     0.202642278038218
    H               -1.010892057144183     2.482026263599431     0.826642278038218
    H                0.198107942855818     0.404026263599431     2.557642278038218
    H               -1.526892057144183     0.176026263599431     2.257642278038218
    H               -0.965032057144182     1.689171263599431     3.024622278038218

}
e, wfn = energy('scf', return_wfn=True)
gdma(wfn)
dmavals = variable('DMA DISTRIBUTED MULTIPOLES')
charges = np.array(dmavals)
print(charges)
np.save('SSI-022ILE-074ILE-1-dimer.npy', np.array(charges))--------------------------------------------------------------------------

*** tstart() called on ds3
*** at Mon Apr 27 13:57:52 2020

   => Loading Basis Set <=

    Name: CC-PVDZ
    Role: ORBITAL
    Keyword: BASIS
    atoms 1-2, 9-10  entry C          line   138 file /theoryfs2/ds/metcalf/miniconda2/envs/tf2gpu/share/psi4/basis/cc-pvdz.gbs
    atoms 3-8, 11-16 entry H          line    22 file /theoryfs2/ds/metcalf/miniconda2/envs/tf2gpu/share/psi4/basis/cc-pvdz.gbs

         ---------------------------------------------------------
                                   SCF
               by Justin Turney, Rob Parrish, Andy Simmonett
                          and Daniel G. A. Smith
                              RHF Reference
                        1 Threads,    500 MiB Core
         ---------------------------------------------------------

  ==> Geometry <==

    Molecular point group: c1
    Full point group: C1

    Geometry (in Angstrom), charge = 0, multiplicity = 1:

       Center              X                  Y                   Z               Mass
    ------------   -----------------  -----------------  -----------------  -----------------
         C            0.452107942856    -0.543973736401    -1.275357721962    12.000000000000
         C            0.862107942856    -1.845973736401    -1.891357721962    12.000000000000
         H           -0.603892057144    -0.638973736401    -1.036357721962     1.007825032230
         H            1.041107942856    -0.380973736401    -0.373357721962     1.007825032230
         H            0.580107942856     0.271026263599    -1.979357721962     1.007825032230
         H            0.577107942856    -2.669973736401    -1.234357721962     1.007825032230
         H            1.951107942856    -1.829973736401    -1.924357721962     1.007825032230
         H            0.447997942856    -1.998125736401    -2.899007721962     1.007825032230
         C           -0.585892057144     1.481026263599     0.884642278038    12.000000000000
         C           -0.725892057144     0.915026263599     2.280642278038    12.000000000000
         H            0.463107942856     1.536026263599     0.594642278038     1.007825032230
         H           -1.180892057144     0.887026263599     0.202642278038     1.007825032230
         H           -1.010892057144     2.482026263599     0.826642278038     1.007825032230
         H            0.198107942856     0.404026263599     2.557642278038     1.007825032230
         H           -1.526892057144     0.176026263599     2.257642278038     1.007825032230
         H           -0.965032057144     1.689171263599     3.024622278038     1.007825032230

  Running in c1 symmetry.

  Rotational constants: A =      0.56453  B =      0.05729  C =      0.05417 [cm^-1]
  Rotational constants: A =  16924.32640  B =   1717.61512  C =   1624.03295 [MHz]
  Nuclear repulsion =  127.063599406397330

  Charge       = 0
  Multiplicity = 1
  Electrons    = 36
  Nalpha       = 18
  Nbeta        = 18

  ==> Algorithm <==

  SCF Algorithm Type is PK.
  DIIS enabled.
  MOM disabled.
  Fractional occupation disabled.
  Guess Type is SAD.
  Energy threshold   = 1.00e-06
  Density threshold  = 1.00e-10
  Integral threshold = 0.00e+00

  ==> Primary Basis <==

  Basis Set: CC-PVDZ
    Blend: CC-PVDZ
    Number of shells: 60
    Number of basis function: 116
    Number of Cartesian functions: 120
    Spherical Harmonics?: true
    Max angular momentum: 2

  ==> Pre-Iterations <==

   -------------------------------------------------------
    Irrep   Nso     Nmo     Nalpha   Nbeta   Ndocc  Nsocc
   -------------------------------------------------------
     A        116     116       0       0       0       0
   -------------------------------------------------------
    Total     116     116      18      18      18       0
   -------------------------------------------------------

  ==> Integral Setup <==

  Using integral reordering PK algorithm.
  Sizing the integral batches needed.
  Building batch lookup table.
   Calculation information:
      Number of atoms:                  16
      Number of AO shells:              60
      Number of primitives:            148
      Number of atomic orbitals:       120
      Number of basis functions:       116

      Integral cutoff                 1.00e-12
      Number of threads:                 1

	Batch   1 pq = [       0,    6786] index = [             0,23028291] size =     23028291
  Task number: 3
  Buffer size: 11059200
  Buffer per thread: 2
  We computed 1518554 shell quartets total.
  Whereas there are 1675365 unique shell quartets.

  ==> DiskJK: Disk-Based J/K Matrices <==

    J tasked:                  Yes
    K tasked:                  Yes
    wK tasked:                  No
    Memory [MiB]:              375
    Schwarz Cutoff:          1E-12

    OpenMP threads:              1

  Minimum eigenvalue in the overlap matrix is 5.6721906103E-03.
  Using Symmetric Orthogonalization.

  SCF Guess: Superposition of Atomic Densities via on-the-fly atomic UHF.

  ==> Iterations <==

                        Total Energy        Delta E     RMS |[F,P]|

   @RHF iter SAD:  -157.52114672320766   -1.57521e+02   0.00000e+00
   @RHF iter   1:  -158.28468519715858   -7.63538e-01   4.32089e-03 DIIS
   @RHF iter   2:  -158.42428897466831   -1.39604e-01   1.83375e-03 DIIS
   @RHF iter   3:  -158.44860614153555   -2.43172e-02   3.56111e-04 DIIS
   @RHF iter   4:  -158.45048298442160   -1.87684e-03   3.97860e-05 DIIS
   @RHF iter   5:  -158.45050754139189   -2.45570e-05   7.40795e-06 DIIS
   @RHF iter   6:  -158.45050831881423   -7.77422e-07   1.47212e-06 DIIS
   @RHF iter   7:  -158.45050834011903   -2.13048e-08   3.55467e-07 DIIS
   @RHF iter   8:  -158.45050834150021   -1.38118e-09   5.16763e-08 DIIS
   @RHF iter   9:  -158.45050834154478   -4.45652e-11   1.20065e-08 DIIS
   @RHF iter  10:  -158.45050834154702   -2.24532e-12   3.41111e-09 DIIS
   @RHF iter  11:  -158.45050834154711   -8.52651e-14   8.69645e-10 DIIS
   @RHF iter  12:  -158.45050834154728   -1.70530e-13   1.82324e-10 DIIS
   @RHF iter  13:  -158.45050834154739   -1.13687e-13   3.04982e-11 DIIS
  Energy and wave function converged.

  ==> Post-Iterations <==

    Orbital Energies [Eh]
    ---------------------

    Doubly Occupied:

       1A    -11.214277     2A    -11.213208     3A    -11.211540
       4A    -11.208184     5A     -1.029075     6A     -1.019398
       7A     -0.841024     8A     -0.825383     9A     -0.612849
      10A     -0.606042    11A     -0.598548    12A     -0.592911
      13A     -0.512498    14A     -0.497119    15A     -0.489390
      16A     -0.485948    17A     -0.475948    18A     -0.462007

    Virtual:

      19A      0.172897    20A      0.201406    21A      0.218484
      22A      0.231379    23A      0.235426    24A      0.256776
      25A      0.270010    26A      0.280614    27A      0.293946
      28A      0.313836    29A      0.324116    30A      0.361126
      31A      0.394515    32A      0.421041    33A      0.574914
      34A      0.583143    35A      0.595426    36A      0.611701
      37A      0.615611    38A      0.657157    39A      0.683435
      40A      0.718774    41A      0.733352    42A      0.825010
      43A      0.844904    44A      0.866163    45A      0.869820
      46A      0.889286    47A      0.896906    48A      0.903964
      49A      0.907119    50A      0.919927    51A      0.926677
      52A      0.939617    53A      0.941105    54A      0.959176
      55A      0.982174    56A      0.993752    57A      1.082904
      58A      1.124851    59A      1.131967    60A      1.184686
      61A      1.217473    62A      1.314155    63A      1.461210
      64A      1.507637    65A      1.513766    66A      1.525537
      67A      1.580234    68A      1.642542    69A      1.675751
      70A      1.687998    71A      1.691736    72A      1.703808
      73A      1.825261    74A      1.835929    75A      1.863241
      76A      1.892334    77A      1.907551    78A      1.913064
      79A      1.921930    80A      1.937706    81A      1.951486
      82A      1.957384    83A      1.972407    84A      1.974500
      85A      1.991456    86A      2.000768    87A      2.046510
      88A      2.063108    89A      2.125985    90A      2.177617
      91A      2.252695    92A      2.266964    93A      2.281621
      94A      2.302091    95A      2.323140    96A      2.337790
      97A      2.376627    98A      2.429694    99A      2.456732
     100A      2.491709   101A      2.573796   102A      2.605547
     103A      2.645222   104A      2.681696   105A      2.763724
     106A      2.774993   107A      2.805232   108A      2.807968
     109A      2.815237   110A      2.819817   111A      2.839210
     112A      2.876202   113A      2.941348   114A      2.956170
     115A      2.974062   116A      2.989526

    Final Occupation by Irrep:
              A
    DOCC [    18 ]

  @RHF Final Energy:  -158.45050834154739

   => Energetics <=

    Nuclear Repulsion Energy =            127.0635994063973300
    One-Electron Energy =                -463.2375187820078963
    Two-Electron Energy =                 177.7234110340631901
    Total Energy =                       -158.4505083415473905

Computation Completed

Properties will be evaluated at   0.000000,   0.000000,   0.000000 [a0]

Properties computed using the SCF density matrix

  Nuclear Dipole Moment: [e a0]
     X:    -0.0271      Y:    -0.0681      Z:     0.0160

  Electronic Dipole Moment: [e a0]
     X:     0.0165      Y:     0.0722      Z:    -0.0326

  Dipole Moment: [e a0]
     X:    -0.0106      Y:     0.0040      Z:    -0.0166     Total:     0.0201

  Dipole Moment: [D]
     X:    -0.0270      Y:     0.0103      Z:    -0.0422     Total:     0.0512

*** tstop() called on ds3 at Mon Apr 27 13:58:02 2020
Module time:
	user time   =       7.87 seconds =       0.13 minutes
	system time =       2.94 seconds =       0.05 minutes
	total time  =         10 seconds =       0.17 minutes
Total time:
	user time   =       7.87 seconds =       0.13 minutes
	system time =       2.94 seconds =       0.05 minutes
	total time  =         10 seconds =       0.17 minutes
                                     G D M A

                                 by Anthony Stone

                           version 2.2.06, 22 June 2011

               Distributed Multipoles from Gaussian wavefunctions

Starting at 13:58:2 on 27 Apr 2020

Using SCF density matrix from file ./SSI/SSI-022ILE-074ILE-1-dimer.test.8382.fchk

                         Distributed Multipole Analysis

Standard DMA

Positions and radii in angstrom
Multipole moments in atomic units, ea_0^k for rank k

C          x =  0.452108  y = -0.543974  z = -1.275358 angstrom
           Maximum rank =  0   Radius =  0.650 angstrom
                   Q00  =  -0.223040

C          x =  0.862108  y = -1.845974  z = -1.891358 angstrom
           Maximum rank =  0   Radius =  0.650 angstrom
                   Q00  =  -0.218189

H          x = -0.603892  y = -0.638974  z = -1.036358 angstrom
           Maximum rank =  0   Radius =  0.325 angstrom
                   Q00  =   0.063563

H          x =  1.041108  y = -0.380974  z = -0.373358 angstrom
           Maximum rank =  0   Radius =  0.325 angstrom
                   Q00  =   0.072055

H          x =  0.580108  y =  0.271026  z = -1.979358 angstrom
           Maximum rank =  0   Radius =  0.325 angstrom
                   Q00  =   0.079979

H          x =  0.577108  y = -2.669974  z = -1.234358 angstrom
           Maximum rank =  0   Radius =  0.325 angstrom
                   Q00  =   0.074233

H          x =  1.951108  y = -1.829974  z = -1.924358 angstrom
           Maximum rank =  0   Radius =  0.325 angstrom
                   Q00  =   0.073665

H          x =  0.447998  y = -1.998126  z = -2.899008 angstrom
           Maximum rank =  0   Radius =  0.325 angstrom
                   Q00  =   0.079527

C          x = -0.585892  y =  1.481026  z =  0.884642 angstrom
           Maximum rank =  0   Radius =  0.650 angstrom
                   Q00  =  -0.231953

C          x = -0.725892  y =  0.915026  z =  2.280642 angstrom
           Maximum rank =  0   Radius =  0.650 angstrom
                   Q00  =  -0.253200

H          x =  0.463108  y =  1.536026  z =  0.594642 angstrom
           Maximum rank =  0   Radius =  0.325 angstrom
                   Q00  =   0.080159

H          x = -1.180892  y =  0.887026  z =  0.202642 angstrom
           Maximum rank =  0   Radius =  0.325 angstrom
                   Q00  =   0.082369

H          x = -1.010892  y =  2.482026  z =  0.826642 angstrom
           Maximum rank =  0   Radius =  0.325 angstrom
                   Q00  =   0.077587

H          x =  0.198108  y =  0.404026  z =  2.557642 angstrom
           Maximum rank =  0   Radius =  0.325 angstrom
                   Q00  =   0.080075

H          x = -1.526892  y =  0.176026  z =  2.257642 angstrom
           Maximum rank =  0   Radius =  0.325 angstrom
                   Q00  =   0.078918

H          x = -0.965032  y =  1.689171  z =  3.024622 angstrom
           Maximum rank =  0   Radius =  0.325 angstrom
                   Q00  =   0.084253

Total multipoles referred to origin at
           x =   0.000000,  y =    0.000000,  z =    0.000000 angstrom
                   Q00  =  -0.000000

Finished at 13:58:2 on 27 Apr 2020

  DMA results are available in the Python driver through the
	  variable('DMA DISTRIBUTED MULTIPOLES')
  and
	  variable('DMA TOTAL MULTIPOLES')
  commands.

    Psi4 stopped on: Monday, 27 April 2020 01:58PM
    Psi4 wall time for execution: 0:00:10.73

*** Psi4 exiting successfully. Buy a developer a beer!
