                               Psi4 1.3.2 release

  ==> Input File <==

--------------------------------------------------------------------------
import numpy as np
set {scf_type pk
basis cc-pvdz
d_convergence 10
gdma_switch   0
gdma_limit    0
gdma_origin   [ 0.0,  0.0,  0.0 ]
}
molecule test {
    units Angstrom
    0 1
    --
    0 1
    C                1.156650904219931    -0.192024777831607    -0.253168347969371
    C                2.258650904219932    -0.369024777831607    -1.286168347969371
    C                1.144650904219932    -1.365024777831607     0.705831652030629
    C                1.367650904219931     1.101975222168393     0.553831652030629
    H                0.192650904219931    -0.134024777831607    -0.754168347969371
    H                3.197650904219931    -0.534024777831607    -0.752168347969371
    H                2.138650904219932    -1.522024777831607     1.132831652030629
    H                0.454650904219931    -1.145024777831607     1.517831652030629
    H                0.815650904219931    -2.273024777831607     0.197831652030629
    H                1.281650904219931     1.975975222168393    -0.090168347969371
    H                0.608650904219931     1.184975222168393     1.335831652030629
    H                2.353650904219931     1.095975222168393     1.015831652030629
    H                2.340540904219931     0.518085222168393    -1.931408347969371
    H                2.058900904219931    -1.235344777831607    -1.933918347969371
    C               -2.573349095780069    -0.210024777831607     0.434831652030629
    C               -3.200349095780068     1.012975222168393    -0.194168347969371
    H               -3.245349095780068    -0.690024777831607     1.141831652030629
    H               -2.302349095780069    -0.935024777831607    -0.326168347969371
    H               -1.669349095780069     0.074975222168393     0.971831652030629
    H               -4.101349095780068     0.709975222168393    -0.727168347969371
    H               -3.462219095780068     1.733125222168393     0.595011652030629
    H               -2.494559095780069     1.427245222168393    -0.929178347969371

}
e, wfn = energy('scf', return_wfn=True)
gdma(wfn)
dmavals = variable('DMA DISTRIBUTED MULTIPOLES')
charges = np.array(dmavals)
print(charges)
np.save('SSI-032VAL-052VAL-1-dimer.npy', np.array(charges))--------------------------------------------------------------------------

*** tstart() called on ds3
*** at Sun Apr 26 18:10:48 2020

   => Loading Basis Set <=

    Name: CC-PVDZ
    Role: ORBITAL
    Keyword: BASIS
    atoms 1-4, 15-16  entry C          line   138 file /theoryfs2/ds/metcalf/miniconda2/envs/tf2gpu/share/psi4/basis/cc-pvdz.gbs
    atoms 5-14, 17-22 entry H          line    22 file /theoryfs2/ds/metcalf/miniconda2/envs/tf2gpu/share/psi4/basis/cc-pvdz.gbs

         ---------------------------------------------------------
                                   SCF
               by Justin Turney, Rob Parrish, Andy Simmonett
                          and Daniel G. A. Smith
                              RHF Reference
                        1 Threads,    500 MiB Core
         ---------------------------------------------------------

  ==> Geometry <==

    Molecular point group: c1
    Full point group: C1

    Geometry (in Angstrom), charge = 0, multiplicity = 1:

       Center              X                  Y                   Z               Mass
    ------------   -----------------  -----------------  -----------------  -----------------
         C            1.156650904220    -0.192024777832    -0.253168347969    12.000000000000
         C            2.258650904220    -0.369024777832    -1.286168347969    12.000000000000
         C            1.144650904220    -1.365024777832     0.705831652031    12.000000000000
         C            1.367650904220     1.101975222168     0.553831652031    12.000000000000
         H            0.192650904220    -0.134024777832    -0.754168347969     1.007825032230
         H            3.197650904220    -0.534024777832    -0.752168347969     1.007825032230
         H            2.138650904220    -1.522024777832     1.132831652031     1.007825032230
         H            0.454650904220    -1.145024777832     1.517831652031     1.007825032230
         H            0.815650904220    -2.273024777832     0.197831652031     1.007825032230
         H            1.281650904220     1.975975222168    -0.090168347969     1.007825032230
         H            0.608650904220     1.184975222168     1.335831652031     1.007825032230
         H            2.353650904220     1.095975222168     1.015831652031     1.007825032230
         H            2.340540904220     0.518085222168    -1.931408347969     1.007825032230
         H            2.058900904220    -1.235344777832    -1.933918347969     1.007825032230
         C           -2.573349095780    -0.210024777832     0.434831652031    12.000000000000
         C           -3.200349095780     1.012975222168    -0.194168347969    12.000000000000
         H           -3.245349095780    -0.690024777832     1.141831652031     1.007825032230
         H           -2.302349095780    -0.935024777832    -0.326168347969     1.007825032230
         H           -1.669349095780     0.074975222168     0.971831652031     1.007825032230
         H           -4.101349095780     0.709975222168    -0.727168347969     1.007825032230
         H           -3.462219095780     1.733125222168     0.595011652031     1.007825032230
         H           -2.494559095780     1.427245222168    -0.929178347969     1.007825032230

  Running in c1 symmetry.

  Rotational constants: A =      0.14473  B =      0.03631  C =      0.03463 [cm^-1]
  Rotational constants: A =   4338.98323  B =   1088.52737  C =   1038.19169 [MHz]
  Nuclear repulsion =  248.867525197218640

  Charge       = 0
  Multiplicity = 1
  Electrons    = 52
  Nalpha       = 26
  Nbeta        = 26

  ==> Algorithm <==

  SCF Algorithm Type is PK.
  DIIS enabled.
  MOM disabled.
  Fractional occupation disabled.
  Guess Type is SAD.
  Energy threshold   = 1.00e-06
  Density threshold  = 1.00e-10
  Integral threshold = 0.00e+00

  ==> Primary Basis <==

  Basis Set: CC-PVDZ
    Blend: CC-PVDZ
    Number of shells: 84
    Number of basis function: 164
    Number of Cartesian functions: 170
    Spherical Harmonics?: true
    Max angular momentum: 2

  ==> Pre-Iterations <==

   -------------------------------------------------------
    Irrep   Nso     Nmo     Nalpha   Nbeta   Ndocc  Nsocc
   -------------------------------------------------------
     A        164     164       0       0       0       0
   -------------------------------------------------------
    Total     164     164      26      26      26       0
   -------------------------------------------------------

  ==> Integral Setup <==

  Using integral reordering PK algorithm.
  Sizing the integral batches needed.
  Building batch lookup table.
   Calculation information:
      Number of atoms:                  22
      Number of AO shells:              84
      Number of primitives:            212
      Number of atomic orbitals:       170
      Number of basis functions:       164

      Integral cutoff                 1.00e-12
      Number of threads:                 1

	Batch   1 pq = [       0,    9405] index = [             0,44231715] size =     44231715
	Batch   2 pq = [    9405,   13530] index = [      44231715,91537215] size =     47305500
  Task number: 9
  Buffer size: 11059200
  Buffer per thread: 2
  We computed 5935413 shell quartets total.
  Whereas there are 6374235 unique shell quartets.

  ==> DiskJK: Disk-Based J/K Matrices <==

    J tasked:                  Yes
    K tasked:                  Yes
    wK tasked:                  No
    Memory [MiB]:              375
    Schwarz Cutoff:          1E-12

    OpenMP threads:              1

  Minimum eigenvalue in the overlap matrix is 4.4358772071E-03.
  Using Symmetric Orthogonalization.

  SCF Guess: Superposition of Atomic Densities via on-the-fly atomic UHF.

  ==> Iterations <==

                        Total Energy        Delta E     RMS |[F,P]|

   @RHF iter SAD:  -235.49272425251860   -2.35493e+02   0.00000e+00
   @RHF iter   1:  -236.30870328640060   -8.15979e-01   3.56663e-03 DIIS
   @RHF iter   2:  -236.50165779269781   -1.92955e-01   1.56122e-03 DIIS
   @RHF iter   3:  -236.53671698243599   -3.50592e-02   3.16344e-04 DIIS
   @RHF iter   4:  -236.53937792629100   -2.66094e-03   7.03464e-05 DIIS
   @RHF iter   5:  -236.53946502247717   -8.70962e-05   1.57706e-05 DIIS
   @RHF iter   6:  -236.53947056332404   -5.54085e-06   2.59147e-06 DIIS
   @RHF iter   7:  -236.53947073280864   -1.69485e-07   6.27156e-07 DIIS
   @RHF iter   8:  -236.53947074328744   -1.04788e-08   1.50163e-07 DIIS
   @RHF iter   9:  -236.53947074391922   -6.31786e-10   4.11813e-08 DIIS
   @RHF iter  10:  -236.53947074397269   -5.34612e-11   9.41169e-09 DIIS
   @RHF iter  11:  -236.53947074397675   -4.06430e-12   1.93222e-09 DIIS
   @RHF iter  12:  -236.53947074397695   -1.98952e-13   4.15473e-10 DIIS
   @RHF iter  13:  -236.53947074397615    7.95808e-13   9.92644e-11 DIIS
  Energy and wave function converged.

  ==> Post-Iterations <==

    Orbital Energies [Eh]
    ---------------------

    Doubly Occupied:

       1A    -11.221376     2A    -11.219223     3A    -11.215340
       4A    -11.214417     5A    -11.213742     6A    -11.211439
       7A     -1.084627     8A     -1.023996     9A     -0.926135
      10A     -0.924646    11A     -0.836207    12A     -0.764336
      13A     -0.635146    14A     -0.604018    15A     -0.600690
      16A     -0.589349    17A     -0.584818    18A     -0.536714
      19A     -0.531623    20A     -0.506261    21A     -0.503071
      22A     -0.488499    23A     -0.482560    24A     -0.462193
      25A     -0.459203    26A     -0.452356

    Virtual:

      27A      0.165115    28A      0.195298    29A      0.213095
      30A      0.216201    31A      0.232328    32A      0.243490
      33A      0.253386    34A      0.263602    35A      0.264396
      36A      0.268995    37A      0.285677    38A      0.304307
      39A      0.310744    40A      0.324845    41A      0.332449
      42A      0.350106    43A      0.376012    44A      0.395250
      45A      0.411905    46A      0.422566    47A      0.547886
      48A      0.561334    49A      0.598868    50A      0.606138
      51A      0.614696    52A      0.620001    53A      0.637296
      54A      0.652485    55A      0.680961    56A      0.753449
      57A      0.768048    58A      0.782764    59A      0.790387
      60A      0.830879    61A      0.859721    62A      0.864584
      63A      0.878344    64A      0.885335    65A      0.888641
      66A      0.890852    67A      0.897319    68A      0.905811
      69A      0.911586    70A      0.917689    71A      0.920235
      72A      0.928356    73A      0.936989    74A      0.947525
      75A      0.957360    76A      0.963574    77A      0.983550
      78A      0.998176    79A      1.016926    80A      1.032490
      81A      1.129182    82A      1.132506    83A      1.137622
      84A      1.150725    85A      1.171537    86A      1.262223
      87A      1.380431    88A      1.403829    89A      1.409357
      90A      1.484042    91A      1.488697    92A      1.551773
      93A      1.559202    94A      1.590415    95A      1.654547
      96A      1.667924    97A      1.671570    98A      1.678192
      99A      1.697757   100A      1.702010   101A      1.711747
     102A      1.722384   103A      1.746421   104A      1.834067
     105A      1.845204   106A      1.851103   107A      1.862094
     108A      1.887381   109A      1.905662   110A      1.925271
     111A      1.940635   112A      1.948881   113A      1.954196
     114A      1.958129   115A      1.966244   116A      1.968084
     117A      1.970581   118A      1.981037   119A      1.991181
     120A      2.004998   121A      2.009862   122A      2.030390
     123A      2.061638   124A      2.094241   125A      2.101203
     126A      2.106715   127A      2.130598   128A      2.142654
     129A      2.152421   130A      2.251629   131A      2.261128
     132A      2.290495   133A      2.302392   134A      2.317736
     135A      2.333989   136A      2.338651   137A      2.363895
     138A      2.389185   139A      2.453965   140A      2.483252
     141A      2.485595   142A      2.562073   143A      2.575774
     144A      2.587087   145A      2.598771   146A      2.632259
     147A      2.701042   148A      2.727509   149A      2.756902
     150A      2.769567   151A      2.791680   152A      2.794258
     153A      2.797926   154A      2.810927   155A      2.834572
     156A      2.851008   157A      2.854131   158A      2.859484
     159A      2.866135   160A      2.965154   161A      2.992018
     162A      3.017078   163A      3.022423   164A      3.136356

    Final Occupation by Irrep:
              A
    DOCC [    26 ]

  @RHF Final Energy:  -236.53947074397615

   => Energetics <=

    Nuclear Repulsion Energy =            248.8675251972186402
    One-Electron Energy =                -810.2300250388776703
    Two-Electron Energy =                 324.8230290976828201
    Total Energy =                       -236.5394707439761532

Computation Completed

Properties will be evaluated at   0.000000,   0.000000,   0.000000 [a0]

Properties computed using the SCF density matrix

  Nuclear Dipole Moment: [e a0]
     X:    -1.7179      Y:     0.2361      Z:     0.4354

  Electronic Dipole Moment: [e a0]
     X:     1.6633      Y:    -0.2487      Z:    -0.4525

  Dipole Moment: [e a0]
     X:    -0.0546      Y:    -0.0126      Z:    -0.0170     Total:     0.0586

  Dipole Moment: [D]
     X:    -0.1389      Y:    -0.0321      Z:    -0.0433     Total:     0.1490

*** tstop() called on ds3 at Sun Apr 26 18:11:36 2020
Module time:
	user time   =      29.93 seconds =       0.50 minutes
	system time =      10.89 seconds =       0.18 minutes
	total time  =         48 seconds =       0.80 minutes
Total time:
	user time   =      29.93 seconds =       0.50 minutes
	system time =      10.89 seconds =       0.18 minutes
	total time  =         48 seconds =       0.80 minutes
                                     G D M A

                                 by Anthony Stone

                           version 2.2.06, 22 June 2011

               Distributed Multipoles from Gaussian wavefunctions

Starting at 18:11:36 on 26 Apr 2020

Using SCF density matrix from file ./SSI/SSI-032VAL-052VAL-1-dimer.test.4686.fchk

                         Distributed Multipole Analysis

Standard DMA

Positions and radii in angstrom
Multipole moments in atomic units, ea_0^k for rank k

C          x =  1.156651  y = -0.192025  z = -0.253168 angstrom
           Maximum rank =  0   Radius =  0.650 angstrom
                   Q00  =   0.002089

C          x =  2.258651  y = -0.369025  z = -1.286168 angstrom
           Maximum rank =  0   Radius =  0.650 angstrom
                   Q00  =  -0.222892

C          x =  1.144651  y = -1.365025  z =  0.705832 angstrom
           Maximum rank =  0   Radius =  0.650 angstrom
                   Q00  =  -0.245440

C          x =  1.367651  y =  1.101975  z =  0.553832 angstrom
           Maximum rank =  0   Radius =  0.650 angstrom
                   Q00  =  -0.253244

H          x =  0.192651  y = -0.134025  z = -0.754168 angstrom
           Maximum rank =  0   Radius =  0.325 angstrom
                   Q00  =   0.019218

H          x =  3.197651  y = -0.534025  z = -0.752168 angstrom
           Maximum rank =  0   Radius =  0.325 angstrom
                   Q00  =   0.073808

H          x =  2.138651  y = -1.522025  z =  1.132832 angstrom
           Maximum rank =  0   Radius =  0.325 angstrom
                   Q00  =   0.073940

H          x =  0.454651  y = -1.145025  z =  1.517832 angstrom
           Maximum rank =  0   Radius =  0.325 angstrom
                   Q00  =   0.077245

H          x =  0.815651  y = -2.273025  z =  0.197832 angstrom
           Maximum rank =  0   Radius =  0.325 angstrom
                   Q00  =   0.079666

H          x =  1.281651  y =  1.975975  z = -0.090168 angstrom
           Maximum rank =  0   Radius =  0.325 angstrom
                   Q00  =   0.081787

H          x =  0.608651  y =  1.184975  z =  1.335832 angstrom
           Maximum rank =  0   Radius =  0.325 angstrom
                   Q00  =   0.078537

H          x =  2.353651  y =  1.095975  z =  1.015832 angstrom
           Maximum rank =  0   Radius =  0.325 angstrom
                   Q00  =   0.076702

H          x =  2.340541  y =  0.518085  z = -1.931408 angstrom
           Maximum rank =  0   Radius =  0.325 angstrom
                   Q00  =   0.079016

H          x =  2.058901  y = -1.235345  z = -1.933918 angstrom
           Maximum rank =  0   Radius =  0.325 angstrom
                   Q00  =   0.079827

C          x = -2.573349  y = -0.210025  z =  0.434832 angstrom
           Maximum rank =  0   Radius =  0.650 angstrom
                   Q00  =  -0.236034

C          x = -3.200349  y =  1.012975  z = -0.194168 angstrom
           Maximum rank =  0   Radius =  0.650 angstrom
                   Q00  =  -0.228742

H          x = -3.245349  y = -0.690025  z =  1.141832 angstrom
           Maximum rank =  0   Radius =  0.325 angstrom
                   Q00  =   0.078284

H          x = -2.302349  y = -0.935025  z = -0.326168 angstrom
           Maximum rank =  0   Radius =  0.325 angstrom
                   Q00  =   0.076939

H          x = -1.669349  y =  0.074975  z =  0.971832 angstrom
           Maximum rank =  0   Radius =  0.325 angstrom
                   Q00  =   0.075646

H          x = -4.101349  y =  0.709975  z = -0.727168 angstrom
           Maximum rank =  0   Radius =  0.325 angstrom
                   Q00  =   0.077729

H          x = -3.462219  y =  1.733125  z =  0.595012 angstrom
           Maximum rank =  0   Radius =  0.325 angstrom
                   Q00  =   0.079282

H          x = -2.494559  y =  1.427245  z = -0.929178 angstrom
           Maximum rank =  0   Radius =  0.325 angstrom
                   Q00  =   0.076638

Total multipoles referred to origin at
           x =   0.000000,  y =    0.000000,  z =    0.000000 angstrom
                   Q00  =  -0.000000

Finished at 18:11:36 on 26 Apr 2020

  DMA results are available in the Python driver through the
	  variable('DMA DISTRIBUTED MULTIPOLES')
  and
	  variable('DMA TOTAL MULTIPOLES')
  commands.

    Psi4 stopped on: Sunday, 26 April 2020 06:11PM
    Psi4 wall time for execution: 0:00:48.06

*** Psi4 exiting successfully. Buy a developer a beer!
