                               Psi4 1.3.2 release

  ==> Input File <==

--------------------------------------------------------------------------
import numpy as np
set {scf_type pk
basis cc-pvdz
d_convergence 10
gdma_switch   0
gdma_limit    0
gdma_origin   [ 0.0,  0.0,  0.0 ]
}
molecule test {
    units Angstrom
    0 1
    --
    0 1
    C               -0.142800389359354     0.225399925540360     3.662177008274846
    C                0.037199610640646     0.377399925540360     2.176177008274846
    O               -0.972800389359354     0.439399925540360     1.462177008274846
    O                1.194199610640646     0.425399925540360     1.709177008274846
    H                0.645199610640646     0.751399925540360     4.202177008274846
    H               -0.028800389359354    -0.836600074459640     3.886177008274847
    H               -1.127348389359354     0.552389925540360     4.027887008274846
    C               -1.929800389359354    -0.865600074459640    -1.830822991725154
    C                0.447199610640646    -0.161600074459640    -1.786822991725154
    N               -0.734800389359354    -0.307600074459640    -1.213822991725154
    N                0.637199610640646    -0.395600074459640    -3.075822991725154
    N                1.424199610640646     0.279399925540360    -1.044822991725154
    H               -0.806800389359354    -0.022600074459640    -0.235822991725154
    H               -2.057800389359354    -0.491600074459640    -2.847822991725154
    H               -2.802800389359354    -0.558600074459640    -1.251822991725154
    H               -0.138800389359354    -0.683600074459640    -3.647822991725154
    H                1.538199610640645    -0.249600074459640    -3.502822991725154
    H                1.262199610640646     0.392399925540360    -0.037822991725154
    H                2.358199610640646     0.327399925540360    -1.407822991725153
    H               -1.876999389359354    -1.964300074459640    -1.838779391725154

}
e, wfn = energy('scf', return_wfn=True)
gdma(wfn)
dmavals = variable('DMA DISTRIBUTED MULTIPOLES')
charges = np.array(dmavals)
print(charges)
np.save('SSI-023ASP-042ARG-1-dimer.npy', np.array(charges))--------------------------------------------------------------------------

*** tstart() called on ds3
*** at Mon Apr 27 09:59:30 2020

   => Loading Basis Set <=

    Name: CC-PVDZ
    Role: ORBITAL
    Keyword: BASIS
    atoms 1-2, 8-9   entry C          line   138 file /theoryfs2/ds/metcalf/miniconda2/envs/tf2gpu/share/psi4/basis/cc-pvdz.gbs
    atoms 3-4        entry O          line   198 file /theoryfs2/ds/metcalf/miniconda2/envs/tf2gpu/share/psi4/basis/cc-pvdz.gbs
    atoms 5-7, 13-20 entry H          line    22 file /theoryfs2/ds/metcalf/miniconda2/envs/tf2gpu/share/psi4/basis/cc-pvdz.gbs
    atoms 10-12      entry N          line   168 file /theoryfs2/ds/metcalf/miniconda2/envs/tf2gpu/share/psi4/basis/cc-pvdz.gbs

         ---------------------------------------------------------
                                   SCF
               by Justin Turney, Rob Parrish, Andy Simmonett
                          and Daniel G. A. Smith
                              RHF Reference
                        1 Threads,    500 MiB Core
         ---------------------------------------------------------

  ==> Geometry <==

    Molecular point group: c1
    Full point group: C1

    Geometry (in Angstrom), charge = 0, multiplicity = 1:

       Center              X                  Y                   Z               Mass
    ------------   -----------------  -----------------  -----------------  -----------------
         C           -0.142800389359     0.225399925540     3.662177008275    12.000000000000
         C            0.037199610641     0.377399925540     2.176177008275    12.000000000000
         O           -0.972800389359     0.439399925540     1.462177008275    15.994914619570
         O            1.194199610641     0.425399925540     1.709177008275    15.994914619570
         H            0.645199610641     0.751399925540     4.202177008275     1.007825032230
         H           -0.028800389359    -0.836600074460     3.886177008275     1.007825032230
         H           -1.127348389359     0.552389925540     4.027887008275     1.007825032230
         C           -1.929800389359    -0.865600074460    -1.830822991725    12.000000000000
         C            0.447199610641    -0.161600074460    -1.786822991725    12.000000000000
         N           -0.734800389359    -0.307600074460    -1.213822991725    14.003074004430
         N            0.637199610641    -0.395600074460    -3.075822991725    14.003074004430
         N            1.424199610641     0.279399925540    -1.044822991725    14.003074004430
         H           -0.806800389359    -0.022600074460    -0.235822991725     1.007825032230
         H           -2.057800389359    -0.491600074460    -2.847822991725     1.007825032230
         H           -2.802800389359    -0.558600074460    -1.251822991725     1.007825032230
         H           -0.138800389359    -0.683600074460    -3.647822991725     1.007825032230
         H            1.538199610641    -0.249600074460    -3.502822991725     1.007825032230
         H            1.262199610641     0.392399925540    -0.037822991725     1.007825032230
         H            2.358199610641     0.327399925540    -1.407822991725     1.007825032230
         H           -1.876999389359    -1.964300074460    -1.838779391725     1.007825032230

  Running in c1 symmetry.

  Rotational constants: A =      0.09943  B =      0.02561  C =      0.02077 [cm^-1]
  Rotational constants: A =   2980.74809  B =    767.63886  C =    622.80725 [MHz]
  Nuclear repulsion =  469.434268154233564

  Charge       = 0
  Multiplicity = 1
  Electrons    = 72
  Nalpha       = 36
  Nbeta        = 36

  ==> Algorithm <==

  SCF Algorithm Type is PK.
  DIIS enabled.
  MOM disabled.
  Fractional occupation disabled.
  Guess Type is SAD.
  Energy threshold   = 1.00e-06
  Density threshold  = 1.00e-10
  Integral threshold = 0.00e+00

  ==> Primary Basis <==

  Basis Set: CC-PVDZ
    Blend: CC-PVDZ
    Number of shells: 87
    Number of basis function: 181
    Number of Cartesian functions: 190
    Spherical Harmonics?: true
    Max angular momentum: 2

  ==> Pre-Iterations <==

   -------------------------------------------------------
    Irrep   Nso     Nmo     Nalpha   Nbeta   Ndocc  Nsocc
   -------------------------------------------------------
     A        181     181       0       0       0       0
   -------------------------------------------------------
    Total     181     181      36      36      36       0
   -------------------------------------------------------

  ==> Integral Setup <==

  Using integral reordering PK algorithm.
  Sizing the integral batches needed.
  Building batch lookup table.
   Calculation information:
      Number of atoms:                  20
      Number of AO shells:              87
      Number of primitives:            253
      Number of atomic orbitals:       190
      Number of basis functions:       181

      Integral cutoff                 1.00e-12
      Number of threads:                 1

	Batch   1 pq = [       0,    9405] index = [             0,44231715] size =     44231715
	Batch   2 pq = [    9405,   13301] index = [      44231715,88464951] size =     44233236
	Batch   3 pq = [   13301,   16471] index = [      88464951,135655156] size =     47190205
  Task number: 13
  Buffer size: 11059200
  Buffer per thread: 2
  We computed 6060248 shell quartets total.
  Whereas there are 7328706 unique shell quartets.

  ==> DiskJK: Disk-Based J/K Matrices <==

    J tasked:                  Yes
    K tasked:                  Yes
    wK tasked:                  No
    Memory [MiB]:              375
    Schwarz Cutoff:          1E-12

    OpenMP threads:              1

  Minimum eigenvalue in the overlap matrix is 3.5773335776E-03.
  Using Symmetric Orthogonalization.

  SCF Guess: Superposition of Atomic Densities via on-the-fly atomic UHF.

  ==> Iterations <==

                        Total Energy        Delta E     RMS |[F,P]|

   @RHF iter SAD:  -469.89589333633592   -4.69896e+02   0.00000e+00
   @RHF iter   1:  -470.74006932576157   -8.44176e-01   4.14571e-03 DIIS
   @RHF iter   2:  -470.95921531789065   -2.19146e-01   2.08304e-03 DIIS
   @RHF iter   3:  -471.01119871105209   -5.19834e-02   3.81437e-04 DIIS
   @RHF iter   4:  -471.01421882425177   -3.02011e-03   1.26278e-04 DIIS
   @RHF iter   5:  -471.01454960436058   -3.30780e-04   2.26765e-05 DIIS
   @RHF iter   6:  -471.01456529672089   -1.56924e-05   6.84035e-06 DIIS
   @RHF iter   7:  -471.01456647510929   -1.17839e-06   1.85743e-06 DIIS
   @RHF iter   8:  -471.01456660626786   -1.31159e-07   5.79787e-07 DIIS
   @RHF iter   9:  -471.01456661723017   -1.09623e-08   1.98275e-07 DIIS
   @RHF iter  10:  -471.01456661826342   -1.03324e-09   7.47457e-08 DIIS
   @RHF iter  11:  -471.01456661848789   -2.24475e-10   2.85755e-08 DIIS
   @RHF iter  12:  -471.01456661852257   -3.46745e-11   1.10653e-08 DIIS
   @RHF iter  13:  -471.01456661852552   -2.95586e-12   4.19400e-09 DIIS
   @RHF iter  14:  -471.01456661852859   -3.06954e-12   1.01160e-09 DIIS
   @RHF iter  15:  -471.01456661852933   -7.38964e-13   3.78519e-10 DIIS
   @RHF iter  16:  -471.01456661853138   -2.04636e-12   1.27483e-10 DIIS
   @RHF iter  17:  -471.01456661852836    3.01270e-12   5.20056e-11 DIIS
  Energy and wave function converged.

  ==> Post-Iterations <==

    Orbital Energies [Eh]
    ---------------------

    Doubly Occupied:

       1A    -20.434666     2A    -20.432662     3A    -15.641967
       4A    -15.596784     5A    -15.593895     6A    -11.416258
       7A    -11.297478     8A    -11.278781     9A    -11.176080
      10A     -1.379956    11A     -1.332531    12A     -1.239197
      13A     -1.223477    14A     -1.211444    15A     -0.986318
      16A     -0.933545    17A     -0.874976    18A     -0.810950
      19A     -0.774908    20A     -0.705646    21A     -0.692541
      22A     -0.664951    23A     -0.648340    24A     -0.628756
      25A     -0.595845    26A     -0.578240    27A     -0.570117
      28A     -0.555898    29A     -0.549887    30A     -0.490228
      31A     -0.464162    32A     -0.457519    33A     -0.407621
      34A     -0.354779    35A     -0.347349    36A     -0.341327

    Virtual:

      37A      0.128697    38A      0.162061    39A      0.186322
      40A      0.211998    41A      0.221495    42A      0.242542
      43A      0.248800    44A      0.262303    45A      0.272525
      46A      0.305337    47A      0.310701    48A      0.344245
      49A      0.376069    50A      0.425649    51A      0.439818
      52A      0.451573    53A      0.489423    54A      0.499450
      55A      0.583742    56A      0.600436    57A      0.606564
      58A      0.620295    59A      0.670965    60A      0.679186
      61A      0.683674    62A      0.693749    63A      0.704394
      64A      0.724927    65A      0.738998    66A      0.770874
      67A      0.794065    68A      0.817674    69A      0.835111
      70A      0.842168    71A      0.848053    72A      0.857859
      73A      0.901957    74A      0.904903    75A      0.912342
      76A      0.916148    77A      0.931476    78A      0.948466
      79A      0.958729    80A      0.973738    81A      0.997084
      82A      1.003990    83A      1.056409    84A      1.074390
      85A      1.088387    86A      1.121831    87A      1.123655
      88A      1.156459    89A      1.205062    90A      1.218775
      91A      1.234592    92A      1.282302    93A      1.293203
      94A      1.309560    95A      1.338589    96A      1.349087
      97A      1.372343    98A      1.391129    99A      1.404867
     100A      1.421192   101A      1.464256   102A      1.492323
     103A      1.523086   104A      1.564218   105A      1.576231
     106A      1.597649   107A      1.622215   108A      1.648541
     109A      1.677584   110A      1.701772   111A      1.712159
     112A      1.721242   113A      1.738841   114A      1.752467
     115A      1.815376   116A      1.837086   117A      1.862175
     118A      1.887404   119A      1.897325   120A      1.908836
     121A      1.920493   122A      1.938176   123A      1.944729
     124A      1.954813   125A      1.963688   126A      1.992198
     127A      1.994800   128A      2.015046   129A      2.028800
     130A      2.069603   131A      2.097518   132A      2.123387
     133A      2.149625   134A      2.178311   135A      2.233996
     136A      2.253417   137A      2.269865   138A      2.279910
     139A      2.305176   140A      2.340230   141A      2.349551
     142A      2.402023   143A      2.424141   144A      2.461874
     145A      2.486616   146A      2.499769   147A      2.507491
     148A      2.542461   149A      2.571784   150A      2.586702
     151A      2.636803   152A      2.656633   153A      2.689013
     154A      2.732295   155A      2.745347   156A      2.756092
     157A      2.793363   158A      2.799514   159A      2.851750
     160A      2.866339   161A      2.894880   162A      2.926489
     163A      2.957701   164A      2.996531   165A      3.012432
     166A      3.048839   167A      3.081190   168A      3.128866
     169A      3.167880   170A      3.182892   171A      3.247603
     172A      3.341363   173A      3.449263   174A      3.483779
     175A      3.649653   176A      3.676138   177A      3.795215
     178A      3.839375   179A      3.926039   180A      3.944475
     181A      4.078312

    Final Occupation by Irrep:
              A
    DOCC [    36 ]

  @RHF Final Energy:  -471.01456661852836

   => Energetics <=

    Nuclear Repulsion Energy =            469.4342681542335640
    One-Electron Energy =               -1575.5195170196186609
    Two-Electron Energy =                 635.0706822468566770
    Total Energy =                       -471.0145666185283062

Computation Completed

Properties will be evaluated at   0.000000,   0.000000,   0.000000 [a0]

Properties computed using the SCF density matrix

  Nuclear Dipole Moment: [e a0]
     X:    -2.8485      Y:    -2.6039      Z:    -2.4576

  Electronic Dipole Moment: [e a0]
     X:     3.0983      Y:     1.6002      Z:    -1.6354

  Dipole Moment: [e a0]
     X:     0.2498      Y:    -1.0036      Z:    -4.0930     Total:     4.2216

  Dipole Moment: [D]
     X:     0.6350      Y:    -2.5510      Z:   -10.4033     Total:    10.7303

*** tstop() called on ds3 at Mon Apr 27 10:03:47 2020
Module time:
	user time   =      45.76 seconds =       0.76 minutes
	system time =      18.59 seconds =       0.31 minutes
	total time  =        257 seconds =       4.28 minutes
Total time:
	user time   =      45.76 seconds =       0.76 minutes
	system time =      18.59 seconds =       0.31 minutes
	total time  =        257 seconds =       4.28 minutes
                                     G D M A

                                 by Anthony Stone

                           version 2.2.06, 22 June 2011

               Distributed Multipoles from Gaussian wavefunctions

Starting at 10:3:47 on 27 Apr 2020

Using SCF density matrix from file ./SSI/SSI-023ASP-042ARG-1-dimer.test.2215.fchk

                         Distributed Multipole Analysis

Standard DMA

Positions and radii in angstrom
Multipole moments in atomic units, ea_0^k for rank k

C          x = -0.142800  y =  0.225400  z =  3.662177 angstrom
           Maximum rank =  0   Radius =  0.650 angstrom
                   Q00  =  -0.248721

C          x =  0.037200  y =  0.377400  z =  2.176177 angstrom
           Maximum rank =  0   Radius =  0.650 angstrom
                   Q00  =   0.874281

O          x = -0.972800  y =  0.439400  z =  1.462177 angstrom
           Maximum rank =  0   Radius =  0.650 angstrom
                   Q00  =  -0.923492

O          x =  1.194200  y =  0.425400  z =  1.709177 angstrom
           Maximum rank =  0   Radius =  0.650 angstrom
                   Q00  =  -0.935881

H          x =  0.645200  y =  0.751400  z =  4.202177 angstrom
           Maximum rank =  0   Radius =  0.325 angstrom
                   Q00  =   0.090980

H          x = -0.028800  y = -0.836600  z =  3.886177 angstrom
           Maximum rank =  0   Radius =  0.325 angstrom
                   Q00  =   0.102566

H          x = -1.127348  y =  0.552390  z =  4.027887 angstrom
           Maximum rank =  0   Radius =  0.325 angstrom
                   Q00  =   0.085659

C          x = -1.929800  y = -0.865600  z = -1.830823 angstrom
           Maximum rank =  0   Radius =  0.650 angstrom
                   Q00  =  -0.103448

C          x =  0.447200  y = -0.161600  z = -1.786823 angstrom
           Maximum rank =  0   Radius =  0.650 angstrom
                   Q00  =   1.067752

N          x = -0.734800  y = -0.307600  z = -1.213823 angstrom
           Maximum rank =  0   Radius =  0.650 angstrom
                   Q00  =  -0.525260

N          x =  0.637200  y = -0.395600  z = -3.075823 angstrom
           Maximum rank =  0   Radius =  0.650 angstrom
                   Q00  =  -0.589365

N          x =  1.424200  y =  0.279400  z = -1.044823 angstrom
           Maximum rank =  0   Radius =  0.650 angstrom
                   Q00  =  -0.613615

H          x = -0.806800  y = -0.022600  z = -0.235823 angstrom
           Maximum rank =  0   Radius =  0.325 angstrom
                   Q00  =   0.336491

H          x = -2.057800  y = -0.491600  z = -2.847823 angstrom
           Maximum rank =  0   Radius =  0.325 angstrom
                   Q00  =   0.072440

H          x = -2.802800  y = -0.558600  z = -1.251823 angstrom
           Maximum rank =  0   Radius =  0.325 angstrom
                   Q00  =   0.155975

H          x = -0.138800  y = -0.683600  z = -3.647823 angstrom
           Maximum rank =  0   Radius =  0.325 angstrom
                   Q00  =   0.238230

H          x =  1.538200  y = -0.249600  z = -3.502823 angstrom
           Maximum rank =  0   Radius =  0.325 angstrom
                   Q00  =   0.239195

H          x =  1.262200  y =  0.392400  z = -0.037823 angstrom
           Maximum rank =  0   Radius =  0.325 angstrom
                   Q00  =   0.367269

H          x =  2.358200  y =  0.327400  z = -1.407823 angstrom
           Maximum rank =  0   Radius =  0.325 angstrom
                   Q00  =   0.215857

H          x = -1.876999  y = -1.964300  z = -1.838779 angstrom
           Maximum rank =  0   Radius =  0.325 angstrom
                   Q00  =   0.093087

Total multipoles referred to origin at
           x =   0.000000,  y =    0.000000,  z =    0.000000 angstrom
                   Q00  =  -0.000000

Finished at 10:3:47 on 27 Apr 2020

  DMA results are available in the Python driver through the
	  variable('DMA DISTRIBUTED MULTIPOLES')
  and
	  variable('DMA TOTAL MULTIPOLES')
  commands.

    Psi4 stopped on: Monday, 27 April 2020 10:03AM
    Psi4 wall time for execution: 0:04:16.88

*** Psi4 exiting successfully. Buy a developer a beer!
