                               Psi4 1.3.2 release

  ==> Input File <==

--------------------------------------------------------------------------
import numpy as np
set {scf_type pk
basis cc-pvdz
d_convergence 10
gdma_switch   0
gdma_limit    0
gdma_origin   [ 0.0,  0.0,  0.0 ]
}
molecule test {
    units Angstrom
    0 1
    --
    0 1
    C                0.774311937107615     0.878760995429060     1.441966601579404
    C                1.445311937107615     0.778760995429061     2.830966601579404
    H                1.166311937107615     1.719760995429061     0.874966601579404
    H                0.974311937107615    -0.037239004570939     0.884966601579404
    H               -0.303688062892385     0.992760995429060     1.553966601579404
    H                2.518311937107615     0.631760995429061     2.714966601579404
    H                1.029311937107615    -0.118239004570939     3.284966601579403
    H                1.250191937107615     1.666837395429061     3.450036601579404
    C               -0.979688062892385    -0.514239004570939    -1.446033398420596
    C               -1.244688062892385    -1.137239004570939    -2.818033398420596
    H               -0.742688062892385    -1.286239004570939    -0.716033398420596
    H               -0.130688062892385     0.164760995429061    -1.508033398420596
    H               -1.855688062892385     0.044760995429061    -1.117033398420596
    H               -0.398688062892385    -1.752239004570939    -3.070033398420597
    H               -2.162117062892385    -1.742185004570939    -2.866653398420596
    H               -1.288298062892385    -0.356466004570939    -3.591653398420596

}
e, wfn = energy('scf', return_wfn=True)
gdma(wfn)
dmavals = variable('DMA DISTRIBUTED MULTIPOLES')
charges = np.array(dmavals)
print(charges)
np.save('SSI-080ILE-112LEU-1-dimer.npy', np.array(charges))--------------------------------------------------------------------------

*** tstart() called on ds3
*** at Mon Apr 27 23:21:41 2020

   => Loading Basis Set <=

    Name: CC-PVDZ
    Role: ORBITAL
    Keyword: BASIS
    atoms 1-2, 9-10  entry C          line   138 file /theoryfs2/ds/metcalf/miniconda2/envs/tf2gpu/share/psi4/basis/cc-pvdz.gbs
    atoms 3-8, 11-16 entry H          line    22 file /theoryfs2/ds/metcalf/miniconda2/envs/tf2gpu/share/psi4/basis/cc-pvdz.gbs

         ---------------------------------------------------------
                                   SCF
               by Justin Turney, Rob Parrish, Andy Simmonett
                          and Daniel G. A. Smith
                              RHF Reference
                        1 Threads,    500 MiB Core
         ---------------------------------------------------------

  ==> Geometry <==

    Molecular point group: c1
    Full point group: C1

    Geometry (in Angstrom), charge = 0, multiplicity = 1:

       Center              X                  Y                   Z               Mass
    ------------   -----------------  -----------------  -----------------  -----------------
         C            0.774311937108     0.878760995429     1.441966601579    12.000000000000
         C            1.445311937108     0.778760995429     2.830966601579    12.000000000000
         H            1.166311937108     1.719760995429     0.874966601579     1.007825032230
         H            0.974311937108    -0.037239004571     0.884966601579     1.007825032230
         H           -0.303688062892     0.992760995429     1.553966601579     1.007825032230
         H            2.518311937108     0.631760995429     2.714966601579     1.007825032230
         H            1.029311937108    -0.118239004571     3.284966601579     1.007825032230
         H            1.250191937108     1.666837395429     3.450036601579     1.007825032230
         C           -0.979688062892    -0.514239004571    -1.446033398421    12.000000000000
         C           -1.244688062892    -1.137239004571    -2.818033398421    12.000000000000
         H           -0.742688062892    -1.286239004571    -0.716033398421     1.007825032230
         H           -0.130688062892     0.164760995429    -1.508033398421     1.007825032230
         H           -1.855688062892     0.044760995429    -1.117033398421     1.007825032230
         H           -0.398688062892    -1.752239004571    -3.070033398421     1.007825032230
         H           -2.162117062892    -1.742185004571    -2.866653398421     1.007825032230
         H           -1.288298062892    -0.356466004571    -3.591653398421     1.007825032230

  Running in c1 symmetry.

  Rotational constants: A =      1.00216  B =      0.03865  C =      0.03849 [cm^-1]
  Rotational constants: A =  30044.00562  B =   1158.73482  C =   1153.88390 [MHz]
  Nuclear repulsion =  119.631385151415103

  Charge       = 0
  Multiplicity = 1
  Electrons    = 36
  Nalpha       = 18
  Nbeta        = 18

  ==> Algorithm <==

  SCF Algorithm Type is PK.
  DIIS enabled.
  MOM disabled.
  Fractional occupation disabled.
  Guess Type is SAD.
  Energy threshold   = 1.00e-06
  Density threshold  = 1.00e-10
  Integral threshold = 0.00e+00

  ==> Primary Basis <==

  Basis Set: CC-PVDZ
    Blend: CC-PVDZ
    Number of shells: 60
    Number of basis function: 116
    Number of Cartesian functions: 120
    Spherical Harmonics?: true
    Max angular momentum: 2

  ==> Pre-Iterations <==

   -------------------------------------------------------
    Irrep   Nso     Nmo     Nalpha   Nbeta   Ndocc  Nsocc
   -------------------------------------------------------
     A        116     116       0       0       0       0
   -------------------------------------------------------
    Total     116     116      18      18      18       0
   -------------------------------------------------------

  ==> Integral Setup <==

  Using integral reordering PK algorithm.
  Sizing the integral batches needed.
  Building batch lookup table.
   Calculation information:
      Number of atoms:                  16
      Number of AO shells:              60
      Number of primitives:            148
      Number of atomic orbitals:       120
      Number of basis functions:       116

      Integral cutoff                 1.00e-12
      Number of threads:                 1

	Batch   1 pq = [       0,    6786] index = [             0,23028291] size =     23028291
  Task number: 3
  Buffer size: 11059200
  Buffer per thread: 2
  We computed 1319020 shell quartets total.
  Whereas there are 1675365 unique shell quartets.

  ==> DiskJK: Disk-Based J/K Matrices <==

    J tasked:                  Yes
    K tasked:                  Yes
    wK tasked:                  No
    Memory [MiB]:              375
    Schwarz Cutoff:          1E-12

    OpenMP threads:              1

  Minimum eigenvalue in the overlap matrix is 6.1750001303E-03.
  Using Symmetric Orthogonalization.

  SCF Guess: Superposition of Atomic Densities via on-the-fly atomic UHF.

  ==> Iterations <==

                        Total Energy        Delta E     RMS |[F,P]|

   @RHF iter SAD:  -157.33043739678837   -1.57330e+02   0.00000e+00
   @RHF iter   1:  -158.30811568882356   -9.77678e-01   4.19393e-03 DIIS
   @RHF iter   2:  -158.44070191293025   -1.32586e-01   1.77642e-03 DIIS
   @RHF iter   3:  -158.46363589786606   -2.29340e-02   3.48809e-04 DIIS
   @RHF iter   4:  -158.46545576856346   -1.81987e-03   3.91833e-05 DIIS
   @RHF iter   5:  -158.46547971462400   -2.39461e-05   6.94837e-06 DIIS
   @RHF iter   6:  -158.46548040399475   -6.89371e-07   1.29940e-06 DIIS
   @RHF iter   7:  -158.46548041954952   -1.55548e-08   3.28730e-07 DIIS
   @RHF iter   8:  -158.46548042058743   -1.03790e-09   3.83150e-08 DIIS
   @RHF iter   9:  -158.46548042060999   -2.25668e-11   7.58643e-09 DIIS
   @RHF iter  10:  -158.46548042061107   -1.08002e-12   2.38982e-09 DIIS
   @RHF iter  11:  -158.46548042061121   -1.42109e-13   5.48543e-10 DIIS
   @RHF iter  12:  -158.46548042061096    2.55795e-13   9.77017e-11 DIIS
  Energy and wave function converged.

  ==> Post-Iterations <==

    Orbital Energies [Eh]
    ---------------------

    Doubly Occupied:

       1A    -11.218651     2A    -11.217044     3A    -11.216355
       4A    -11.216292     5A     -1.017810     6A     -1.014082
       7A     -0.841566     8A     -0.834769     9A     -0.600046
      10A     -0.597642    11A     -0.594882    12A     -0.594071
      13A     -0.507819    14A     -0.491094    15A     -0.489625
      16A     -0.486987    17A     -0.483572    18A     -0.481845

    Virtual:

      19A      0.177024    20A      0.194079    21A      0.219955
      22A      0.237894    23A      0.239520    24A      0.265756
      25A      0.266710    26A      0.276628    27A      0.283212
      28A      0.292675    29A      0.302216    30A      0.311198
      31A      0.374687    32A      0.418605    33A      0.568256
      34A      0.591905    35A      0.595332    36A      0.601686
      37A      0.604583    38A      0.657364    39A      0.670970
      40A      0.694784    41A      0.708932    42A      0.744066
      43A      0.828339    44A      0.882434    45A      0.891950
      46A      0.894966    47A      0.895224    48A      0.897254
      49A      0.906084    50A      0.915981    51A      0.917025
      52A      0.920924    53A      0.923897    54A      0.949572
      55A      0.959941    56A      0.997745    57A      1.124570
      58A      1.130719    59A      1.131447    60A      1.145915
      61A      1.216248    62A      1.262501    63A      1.455300
      64A      1.465331    65A      1.475297    66A      1.485383
      67A      1.584946    68A      1.588015    69A      1.679463
      70A      1.687877    71A      1.695925    72A      1.699017
      73A      1.846974    74A      1.857924    75A      1.865744
      76A      1.881919    77A      1.886702    78A      1.916816
      79A      1.930667    80A      1.940065    81A      1.943471
      82A      1.946313    83A      1.949967    84A      1.959114
      85A      1.972949    86A      1.979386    87A      1.982206
      88A      2.079731    89A      2.091312    90A      2.093984
      91A      2.125363    92A      2.128939    93A      2.292526
      94A      2.306428    95A      2.317109    96A      2.348484
      97A      2.442223    98A      2.456320    99A      2.470106
     100A      2.480456   101A      2.554139   102A      2.559991
     103A      2.582079   104A      2.586050   105A      2.762655
     106A      2.774678   107A      2.787915   108A      2.796364
     109A      2.837559   110A      2.855867   111A      2.856433
     112A      2.881670   113A      2.942047   114A      2.944442
     115A      2.960397   116A      2.966814

    Final Occupation by Irrep:
              A
    DOCC [    18 ]

  @RHF Final Energy:  -158.46548042061096

   => Energetics <=

    Nuclear Repulsion Energy =            119.6313851514151025
    One-Electron Energy =                -448.3854246606528022
    Two-Electron Energy =                 170.2885590886267551
    Total Energy =                       -158.4654804206109588

Computation Completed

Properties will be evaluated at   0.000000,   0.000000,   0.000000 [a0]

Properties computed using the SCF density matrix

  Nuclear Dipole Moment: [e a0]
     X:     0.0530      Y:    -0.0675      Z:    -0.0990

  Electronic Dipole Moment: [e a0]
     X:    -0.0377      Y:     0.0579      Z:     0.0898

  Dipole Moment: [e a0]
     X:     0.0153      Y:    -0.0096      Z:    -0.0092     Total:     0.0203

  Dipole Moment: [D]
     X:     0.0389      Y:    -0.0243      Z:    -0.0234     Total:     0.0515

*** tstop() called on ds3 at Mon Apr 27 23:21:55 2020
Module time:
	user time   =      10.59 seconds =       0.18 minutes
	system time =       3.42 seconds =       0.06 minutes
	total time  =         14 seconds =       0.23 minutes
Total time:
	user time   =      10.59 seconds =       0.18 minutes
	system time =       3.42 seconds =       0.06 minutes
	total time  =         14 seconds =       0.23 minutes
                                     G D M A

                                 by Anthony Stone

                           version 2.2.06, 22 June 2011

               Distributed Multipoles from Gaussian wavefunctions

Starting at 23:21:55 on 27 Apr 2020

Using SCF density matrix from file ./SSI/SSI-080ILE-112LEU-1-dimer.test.2506.fchk

                         Distributed Multipole Analysis

Standard DMA

Positions and radii in angstrom
Multipole moments in atomic units, ea_0^k for rank k

C          x =  0.774312  y =  0.878761  z =  1.441967 angstrom
           Maximum rank =  0   Radius =  0.650 angstrom
                   Q00  =  -0.248968

C          x =  1.445312  y =  0.778761  z =  2.830967 angstrom
           Maximum rank =  0   Radius =  0.650 angstrom
                   Q00  =  -0.232371

H          x =  1.166312  y =  1.719761  z =  0.874967 angstrom
           Maximum rank =  0   Radius =  0.325 angstrom
                   Q00  =   0.079233

H          x =  0.974312  y = -0.037239  z =  0.884967 angstrom
           Maximum rank =  0   Radius =  0.325 angstrom
                   Q00  =   0.079537

H          x = -0.303688  y =  0.992761  z =  1.553967 angstrom
           Maximum rank =  0   Radius =  0.325 angstrom
                   Q00  =   0.080985

H          x =  2.518312  y =  0.631761  z =  2.714967 angstrom
           Maximum rank =  0   Radius =  0.325 angstrom
                   Q00  =   0.081355

H          x =  1.029312  y = -0.118239  z =  3.284967 angstrom
           Maximum rank =  0   Radius =  0.325 angstrom
                   Q00  =   0.077483

H          x =  1.250192  y =  1.666837  z =  3.450037 angstrom
           Maximum rank =  0   Radius =  0.325 angstrom
                   Q00  =   0.083241

C          x = -0.979688  y = -0.514239  z = -1.446033 angstrom
           Maximum rank =  0   Radius =  0.650 angstrom
                   Q00  =  -0.236118

C          x = -1.244688  y = -1.137239  z = -2.818033 angstrom
           Maximum rank =  0   Radius =  0.650 angstrom
                   Q00  =  -0.240586

H          x = -0.742688  y = -1.286239  z = -0.716033 angstrom
           Maximum rank =  0   Radius =  0.325 angstrom
                   Q00  =   0.077958

H          x = -0.130688  y =  0.164761  z = -1.508033 angstrom
           Maximum rank =  0   Radius =  0.325 angstrom
                   Q00  =   0.081111

H          x = -1.855688  y =  0.044761  z = -1.117033 angstrom
           Maximum rank =  0   Radius =  0.325 angstrom
                   Q00  =   0.079662

H          x = -0.398688  y = -1.752239  z = -3.070033 angstrom
           Maximum rank =  0   Radius =  0.325 angstrom
                   Q00  =   0.078622

H          x = -2.162117  y = -1.742185  z = -2.866653 angstrom
           Maximum rank =  0   Radius =  0.325 angstrom
                   Q00  =   0.082207

H          x = -1.288298  y = -0.356466  z = -3.591653 angstrom
           Maximum rank =  0   Radius =  0.325 angstrom
                   Q00  =   0.076649

Total multipoles referred to origin at
           x =   0.000000,  y =    0.000000,  z =    0.000000 angstrom
                   Q00  =  -0.000000

Finished at 23:21:55 on 27 Apr 2020

  DMA results are available in the Python driver through the
	  variable('DMA DISTRIBUTED MULTIPOLES')
  and
	  variable('DMA TOTAL MULTIPOLES')
  commands.

    Psi4 stopped on: Monday, 27 April 2020 11:21PM
    Psi4 wall time for execution: 0:00:13.60

*** Psi4 exiting successfully. Buy a developer a beer!
