                               Psi4 1.3.2 release

  ==> Input File <==

--------------------------------------------------------------------------
import numpy as np
set {scf_type pk
basis cc-pvdz
d_convergence 10
gdma_switch   0
gdma_limit    0
gdma_origin   [ 0.0,  0.0,  0.0 ]
}
molecule test {
    units Angstrom
    0 1
    --
    0 1
    C               -1.760056165816547    -1.907341408061498    -1.709812855069462
    C                0.388943834183453    -1.925341408061498    -0.337812855069462
    C               -0.861056165816547    -1.468341408061498    -0.616812855069461
    C               -0.027056165816547    -0.353341408061498     1.205187144930538
    C               -1.152056165816548    -0.457341408061498     0.351187144930538
    C                0.021943834183453     0.546658591938502     2.259187144930538
    C               -2.254056165816547     0.378658591938502     0.578187144930538
    C               -1.081056165816547     1.351658591938502     2.475187144930538
    C               -2.213056165816547     1.273658591938502     1.644187144930538
    N                0.888943834183452    -1.270341408061498     0.761187144930539
    H                0.902943834183452    -2.706341408061498    -0.886812855069462
    H                1.816943834183452    -1.445341408061498     1.145187144930538
    H               -1.162056165816548    -2.239341408061498    -2.556812855069461
    H               -2.350056165816548    -1.049341408061498    -2.036812855069461
    H                0.894943834183452     0.596658591938502     2.887187144930538
    H               -3.123056165816547     0.314658591938502    -0.058812855069462
    H               -1.073056165816547     2.051658591938502     3.299187144930538
    H               -3.064056165816547     1.913658591938502     1.827187144930538
    H               -2.440425165816547    -2.715101408061498    -1.402198855069462
    C                2.261943834183453     0.576658591938502    -1.939812855069462
    C                3.473943834183453     1.508658591938502    -1.990812855069462
    O                1.199943834183453     1.424658591938502    -1.533812855069461
    H                2.057943834183452     0.162658591938502    -2.926812855069462
    H                2.431943834183453    -0.227341408061498    -1.222812855069462
    H                4.254943834183453     1.011658591938502    -2.566812855069462
    H                0.517943834183453     0.872658591938502    -1.127812855069461
    H                3.814093834183453     1.698054591938502    -0.962015855069462
    H                3.246843834183453     2.466085591938501    -2.482503855069462

}
e, wfn = energy('scf', return_wfn=True)
gdma(wfn)
dmavals = variable('DMA DISTRIBUTED MULTIPOLES')
charges = np.array(dmavals)
print(charges)
np.save('SSI-039TRP-052SER-1-dimer.npy', np.array(charges))--------------------------------------------------------------------------

*** tstart() called on ds3
*** at Sun Apr 26 20:23:29 2020

   => Loading Basis Set <=

    Name: CC-PVDZ
    Role: ORBITAL
    Keyword: BASIS
    atoms 1-9, 20-21   entry C          line   138 file /theoryfs2/ds/metcalf/miniconda2/envs/tf2gpu/share/psi4/basis/cc-pvdz.gbs
    atoms 10           entry N          line   168 file /theoryfs2/ds/metcalf/miniconda2/envs/tf2gpu/share/psi4/basis/cc-pvdz.gbs
    atoms 11-19, 23-28 entry H          line    22 file /theoryfs2/ds/metcalf/miniconda2/envs/tf2gpu/share/psi4/basis/cc-pvdz.gbs
    atoms 22           entry O          line   198 file /theoryfs2/ds/metcalf/miniconda2/envs/tf2gpu/share/psi4/basis/cc-pvdz.gbs

         ---------------------------------------------------------
                                   SCF
               by Justin Turney, Rob Parrish, Andy Simmonett
                          and Daniel G. A. Smith
                              RHF Reference
                        1 Threads,    500 MiB Core
         ---------------------------------------------------------

  ==> Geometry <==

    Molecular point group: c1
    Full point group: C1

    Geometry (in Angstrom), charge = 0, multiplicity = 1:

       Center              X                  Y                   Z               Mass
    ------------   -----------------  -----------------  -----------------  -----------------
         C           -1.760056165817    -1.907341408061    -1.709812855069    12.000000000000
         C            0.388943834183    -1.925341408061    -0.337812855069    12.000000000000
         C           -0.861056165817    -1.468341408061    -0.616812855069    12.000000000000
         C           -0.027056165817    -0.353341408061     1.205187144931    12.000000000000
         C           -1.152056165817    -0.457341408061     0.351187144931    12.000000000000
         C            0.021943834183     0.546658591939     2.259187144931    12.000000000000
         C           -2.254056165817     0.378658591939     0.578187144931    12.000000000000
         C           -1.081056165817     1.351658591939     2.475187144931    12.000000000000
         C           -2.213056165817     1.273658591939     1.644187144931    12.000000000000
         N            0.888943834183    -1.270341408061     0.761187144931    14.003074004430
         H            0.902943834183    -2.706341408061    -0.886812855069     1.007825032230
         H            1.816943834183    -1.445341408061     1.145187144931     1.007825032230
         H           -1.162056165817    -2.239341408061    -2.556812855069     1.007825032230
         H           -2.350056165817    -1.049341408061    -2.036812855069     1.007825032230
         H            0.894943834183     0.596658591939     2.887187144931     1.007825032230
         H           -3.123056165817     0.314658591939    -0.058812855069     1.007825032230
         H           -1.073056165817     2.051658591939     3.299187144931     1.007825032230
         H           -3.064056165817     1.913658591939     1.827187144931     1.007825032230
         H           -2.440425165817    -2.715101408061    -1.402198855069     1.007825032230
         C            2.261943834183     0.576658591939    -1.939812855069    12.000000000000
         C            3.473943834183     1.508658591939    -1.990812855069    12.000000000000
         O            1.199943834183     1.424658591939    -1.533812855069    15.994914619570
         H            2.057943834183     0.162658591939    -2.926812855069     1.007825032230
         H            2.431943834183    -0.227341408061    -1.222812855069     1.007825032230
         H            4.254943834183     1.011658591939    -2.566812855069     1.007825032230
         H            0.517943834183     0.872658591939    -1.127812855069     1.007825032230
         H            3.814093834183     1.698054591939    -0.962015855069     1.007825032230
         H            3.246843834183     2.466085591939    -2.482503855069     1.007825032230

  Running in c1 symmetry.

  Rotational constants: A =      0.03195  B =      0.01894  C =      0.01540 [cm^-1]
  Rotational constants: A =    957.87529  B =    567.91196  C =    461.61550 [MHz]
  Nuclear repulsion =  778.034749844443695

  Charge       = 0
  Multiplicity = 1
  Electrons    = 96
  Nalpha       = 48
  Nbeta        = 48

  ==> Algorithm <==

  SCF Algorithm Type is PK.
  DIIS enabled.
  MOM disabled.
  Fractional occupation disabled.
  Guess Type is SAD.
  Energy threshold   = 1.00e-06
  Density threshold  = 1.00e-10
  Integral threshold = 0.00e+00

  ==> Primary Basis <==

  Basis Set: CC-PVDZ
    Blend: CC-PVDZ
    Number of shells: 123
    Number of basis function: 257
    Number of Cartesian functions: 270
    Spherical Harmonics?: true
    Max angular momentum: 2

  ==> Pre-Iterations <==

   -------------------------------------------------------
    Irrep   Nso     Nmo     Nalpha   Nbeta   Ndocc  Nsocc
   -------------------------------------------------------
     A        257     257       0       0       0       0
   -------------------------------------------------------
    Total     257     257      48      48      48       0
   -------------------------------------------------------

  ==> Integral Setup <==

  Using integral reordering PK algorithm.
  Sizing the integral batches needed.
  Building batch lookup table.
   Calculation information:
      Number of atoms:                  28
      Number of AO shells:             123
      Number of primitives:            361
      Number of atomic orbitals:       270
      Number of basis functions:       257

      Integral cutoff                 1.00e-12
      Number of threads:                 1

	Batch   1 pq = [       0,    9405] index = [             0,44231715] size =     44231715
	Batch   2 pq = [    9405,   13301] index = [      44231715,88464951] size =     44233236
	Batch   3 pq = [   13301,   16290] index = [      88464951,132690195] size =     44225244
	Batch   4 pq = [   16290,   18810] index = [     132690195,176917455] size =     44227260
	Batch   5 pq = [   18810,   21030] index = [     176917455,221140965] size =     44223510
	Batch   6 pq = [   21030,   23037] index = [     221140965,265363203] size =     44222238
	Batch   7 pq = [   23037,   24883] index = [     265363203,309594286] size =     44231083
	Batch   8 pq = [   24883,   26601] index = [     309594286,353819901] size =     44225615
	Batch   9 pq = [   26601,   28214] index = [     353819901,398029005] size =     44209104
	Batch  10 pq = [   28214,   29740] index = [     398029005,442248670] size =     44219665
	Batch  11 pq = [   29740,   31191] index = [     442248670,486454836] size =     44206166
	Batch  12 pq = [   31191,   32578] index = [     486454836,530679331] size =     44224495
	Batch  13 pq = [   32578,   33153] index = [     530679331,549577281] size =     18897950
  Task number: 50
  Buffer size: 11059200
  Buffer per thread: 2
  We computed 30712384 shell quartets total.
  Whereas there are 29081751 unique shell quartets.
     5.61 percent of shell quartets recomputed by reordering.

  ==> DiskJK: Disk-Based J/K Matrices <==

    J tasked:                  Yes
    K tasked:                  Yes
    wK tasked:                  No
    Memory [MiB]:              375
    Schwarz Cutoff:          1E-12

    OpenMP threads:              1

  Minimum eigenvalue in the overlap matrix is 2.3810913133E-04.
  Using Symmetric Orthogonalization.

  SCF Guess: Superposition of Atomic Densities via on-the-fly atomic UHF.

  ==> Iterations <==

                        Total Energy        Delta E     RMS |[F,P]|

   @RHF iter SAD:  -553.85998674231234   -5.53860e+02   0.00000e+00
   @RHF iter   1:  -554.32350911100798   -4.63522e-01   2.65426e-03 DIIS
   @RHF iter   2:  -554.57004132892826   -2.46532e-01   1.26792e-03 DIIS
   @RHF iter   3:  -554.61969216540456   -4.96508e-02   3.08089e-04 DIIS
   @RHF iter   4:  -554.62386981426835   -4.17765e-03   1.28222e-04 DIIS
   @RHF iter   5:  -554.62448241345351   -6.12599e-04   2.23572e-05 DIIS
   @RHF iter   6:  -554.62451515481916   -3.27414e-05   1.08545e-05 DIIS
   @RHF iter   7:  -554.62452291433124   -7.75951e-06   3.68992e-06 DIIS
   @RHF iter   8:  -554.62452480800221   -1.89367e-06   1.53346e-06 DIIS
   @RHF iter   9:  -554.62452518230396   -3.74302e-07   7.07192e-07 DIIS
   @RHF iter  10:  -554.62452525840047   -7.60965e-08   3.16239e-07 DIIS
   @RHF iter  11:  -554.62452527769540   -1.92949e-08   1.24681e-07 DIIS
   @RHF iter  12:  -554.62452528048016   -2.78476e-09   4.86007e-08 DIIS
   @RHF iter  13:  -554.62452528076119   -2.81034e-10   1.53505e-08 DIIS
   @RHF iter  14:  -554.62452528078029   -1.90994e-11   5.64857e-09 DIIS
   @RHF iter  15:  -554.62452528077893    1.36424e-12   2.05865e-09 DIIS
   @RHF iter  16:  -554.62452528078211   -3.18323e-12   9.71842e-10 DIIS
   @RHF iter  17:  -554.62452528078438   -2.27374e-12   5.08903e-10 DIIS
   @RHF iter  18:  -554.62452528078006    4.32010e-12   1.85913e-10 DIIS
   @RHF iter  19:  -554.62452528078813   -8.07177e-12   8.07444e-11 DIIS
  Energy and wave function converged.

  ==> Post-Iterations <==

    Orbital Energies [Eh]
    ---------------------

    Doubly Occupied:

       1A    -20.529499     2A    -15.611352     3A    -11.271447
       4A    -11.271070     5A    -11.263538     6A    -11.237303
       7A    -11.236147     8A    -11.234884     9A    -11.230843
      10A    -11.227901    11A    -11.227078    12A    -11.224471
      13A    -11.210427    14A     -1.334773    15A     -1.305710
      16A     -1.135693    17A     -1.084494    18A     -1.004799
      19A     -0.996318    20A     -0.994050    21A     -0.939530
      22A     -0.847324    23A     -0.821065    24A     -0.812109
      25A     -0.760123    26A     -0.726844    27A     -0.682502
      28A     -0.670853    29A     -0.649034    30A     -0.632183
      31A     -0.609959    32A     -0.600449    33A     -0.598356
      34A     -0.576232    35A     -0.559997    36A     -0.547467
      37A     -0.546938    38A     -0.532277    39A     -0.514171
      40A     -0.511996    41A     -0.501812    42A     -0.478535
      43A     -0.476475    44A     -0.463269    45A     -0.421293
      46A     -0.381397    47A     -0.303183    48A     -0.283065

    Virtual:

      49A      0.118100    50A      0.161339    51A      0.165489
      52A      0.180100    53A      0.197929    54A      0.209661
      55A      0.213829    56A      0.222593    57A      0.228017
      58A      0.248658    59A      0.258273    60A      0.262124
      61A      0.265143    62A      0.279014    63A      0.280626
      64A      0.288120    65A      0.301561    66A      0.315750
      67A      0.371532    68A      0.380326    69A      0.389719
      70A      0.401493    71A      0.412377    72A      0.418195
      73A      0.439634    74A      0.466563    75A      0.474146
      76A      0.499101    77A      0.516939    78A      0.576911
      79A      0.599683    80A      0.613761    81A      0.621377
      82A      0.632231    83A      0.648195    84A      0.670901
      85A      0.682357    86A      0.692290    87A      0.696681
      88A      0.705259    89A      0.716490    90A      0.727421
      91A      0.731394    92A      0.741125    93A      0.742540
      94A      0.756039    95A      0.767690    96A      0.774723
      97A      0.781576    98A      0.788592    99A      0.792015
     100A      0.827907   101A      0.846371   102A      0.851190
     103A      0.865930   104A      0.871663   105A      0.878034
     106A      0.882205   107A      0.888181   108A      0.895847
     109A      0.899183   110A      0.902569   111A      0.910568
     112A      0.922185   113A      0.923575   114A      0.938608
     115A      0.945677   116A      0.960264   117A      0.962374
     118A      0.968334   119A      0.981156   120A      0.988268
     121A      1.009005   122A      1.053573   123A      1.082281
     124A      1.090208   125A      1.120093   126A      1.125206
     127A      1.133355   128A      1.139857   129A      1.149865
     130A      1.162246   131A      1.175885   132A      1.204328
     133A      1.223294   134A      1.227426   135A      1.231956
     136A      1.244969   137A      1.252631   138A      1.268230
     139A      1.285553   140A      1.293903   141A      1.322259
     142A      1.325357   143A      1.352296   144A      1.363325
     145A      1.369904   146A      1.399662   147A      1.415613
     148A      1.441187   149A      1.471078   150A      1.501992
     151A      1.513008   152A      1.542760   153A      1.557830
     154A      1.574500   155A      1.582322   156A      1.591725
     157A      1.632111   158A      1.643151   159A      1.652675
     160A      1.678518   161A      1.687608   162A      1.694869
     163A      1.705956   164A      1.738965   165A      1.755312
     166A      1.763823   167A      1.781185   168A      1.796537
     169A      1.811865   170A      1.828991   171A      1.859265
     172A      1.866876   173A      1.873949   174A      1.888332
     175A      1.894054   176A      1.903910   177A      1.908089
     178A      1.911766   179A      1.920007   180A      1.929030
     181A      1.930510   182A      1.939579   183A      1.947426
     184A      1.958507   185A      1.975885   186A      1.983177
     187A      1.997497   188A      2.007033   189A      2.019313
     190A      2.033801   191A      2.051054   192A      2.054287
     193A      2.071514   194A      2.084991   195A      2.096759
     196A      2.106180   197A      2.111609   198A      2.123463
     199A      2.126497   200A      2.142520   201A      2.157890
     202A      2.171801   203A      2.177209   204A      2.215228
     205A      2.225064   206A      2.237724   207A      2.261031
     208A      2.294808   209A      2.303279   210A      2.306820
     211A      2.324204   212A      2.331871   213A      2.339052
     214A      2.363092   215A      2.408237   216A      2.415541
     217A      2.443998   218A      2.464021   219A      2.487834
     220A      2.521592   221A      2.553720   222A      2.564087
     223A      2.592530   224A      2.600830   225A      2.603253
     226A      2.647421   227A      2.677567   228A      2.694275
     229A      2.710088   230A      2.762385   231A      2.765840
     232A      2.768769   233A      2.777107   234A      2.784158
     235A      2.804963   236A      2.828999   237A      2.836311
     238A      2.853047   239A      2.879943   240A      2.906462
     241A      2.922232   242A      2.941966   243A      2.970144
     244A      3.028951   245A      3.068250   246A      3.079827
     247A      3.127078   248A      3.204264   249A      3.306269
     250A      3.353006   251A      3.380032   252A      3.453034
     253A      3.483459   254A      3.637744   255A      3.743128
     256A      3.949997   257A      4.180439

    Final Occupation by Irrep:
              A
    DOCC [    48 ]

  @RHF Final Energy:  -554.62452528078813

   => Energetics <=

    Nuclear Repulsion Energy =            778.0347498444436951
    One-Electron Energy =               -2297.1580813461973776
    Two-Electron Energy =                 964.4988062209655482
    Total Energy =                       -554.6245252807881343

Computation Completed

Properties will be evaluated at   0.000000,   0.000000,   0.000000 [a0]

Properties computed using the SCF density matrix

  Nuclear Dipole Moment: [e a0]
     X:     6.3085      Y:     0.6714      Z:    -8.5138

  Electronic Dipole Moment: [e a0]
     X:    -5.8299      Y:    -1.7508      Z:     8.7539

  Dipole Moment: [e a0]
     X:     0.4785      Y:    -1.0794      Z:     0.2401     Total:     1.2048

  Dipole Moment: [D]
     X:     1.2162      Y:    -2.7434      Z:     0.6103     Total:     3.0624

*** tstop() called on ds3 at Sun Apr 26 20:28:43 2020
Module time:
	user time   =     236.32 seconds =       3.94 minutes
	system time =      88.10 seconds =       1.47 minutes
	total time  =        314 seconds =       5.23 minutes
Total time:
	user time   =     236.32 seconds =       3.94 minutes
	system time =      88.10 seconds =       1.47 minutes
	total time  =        314 seconds =       5.23 minutes
                                     G D M A

                                 by Anthony Stone

                           version 2.2.06, 22 June 2011

               Distributed Multipoles from Gaussian wavefunctions

Starting at 20:28:43 on 26 Apr 2020

Using SCF density matrix from file ./SSI/SSI-039TRP-052SER-1-dimer.test.14483.fchk

                         Distributed Multipole Analysis

Standard DMA

Positions and radii in angstrom
Multipole moments in atomic units, ea_0^k for rank k

C          x = -1.760056  y = -1.907341  z = -1.709813 angstrom
           Maximum rank =  0   Radius =  0.650 angstrom
                   Q00  =  -0.213203

C          x =  0.388944  y = -1.925341  z = -0.337813 angstrom
           Maximum rank =  0   Radius =  0.650 angstrom
                   Q00  =   0.062140

C          x = -0.861056  y = -1.468341  z = -0.616813 angstrom
           Maximum rank =  0   Radius =  0.650 angstrom
                   Q00  =  -0.116279

C          x = -0.027056  y = -0.353341  z =  1.205187 angstrom
           Maximum rank =  0   Radius =  0.650 angstrom
                   Q00  =   0.245446

C          x = -1.152056  y = -0.457341  z =  0.351187 angstrom
           Maximum rank =  0   Radius =  0.650 angstrom
                   Q00  =  -0.081593

C          x =  0.021944  y =  0.546659  z =  2.259187 angstrom
           Maximum rank =  0   Radius =  0.650 angstrom
                   Q00  =  -0.111678

C          x = -2.254056  y =  0.378659  z =  0.578187 angstrom
           Maximum rank =  0   Radius =  0.650 angstrom
                   Q00  =  -0.097090

C          x = -1.081056  y =  1.351659  z =  2.475187 angstrom
           Maximum rank =  0   Radius =  0.650 angstrom
                   Q00  =  -0.029976

C          x = -2.213056  y =  1.273659  z =  1.644187 angstrom
           Maximum rank =  0   Radius =  0.650 angstrom
                   Q00  =  -0.090093

N          x =  0.888944  y = -1.270341  z =  0.761187 angstrom
           Maximum rank =  0   Radius =  0.650 angstrom
                   Q00  =  -0.479083

H          x =  0.902944  y = -2.706341  z = -0.886813 angstrom
           Maximum rank =  0   Radius =  0.325 angstrom
                   Q00  =   0.102106

H          x =  1.816944  y = -1.445341  z =  1.145187 angstrom
           Maximum rank =  0   Radius =  0.325 angstrom
                   Q00  =   0.224045

H          x = -1.162056  y = -2.239341  z = -2.556813 angstrom
           Maximum rank =  0   Radius =  0.325 angstrom
                   Q00  =   0.105517

H          x = -2.350056  y = -1.049341  z = -2.036813 angstrom
           Maximum rank =  0   Radius =  0.325 angstrom
                   Q00  =   0.104106

H          x =  0.894944  y =  0.596659  z =  2.887187 angstrom
           Maximum rank =  0   Radius =  0.325 angstrom
                   Q00  =   0.075907

H          x = -3.123056  y =  0.314659  z = -0.058813 angstrom
           Maximum rank =  0   Radius =  0.325 angstrom
                   Q00  =   0.074266

H          x = -1.073056  y =  2.051659  z =  3.299187 angstrom
           Maximum rank =  0   Radius =  0.325 angstrom
                   Q00  =   0.068879

H          x = -3.064056  y =  1.913659  z =  1.827187 angstrom
           Maximum rank =  0   Radius =  0.325 angstrom
                   Q00  =   0.065230

H          x = -2.440425  y = -2.715101  z = -1.402199 angstrom
           Maximum rank =  0   Radius =  0.325 angstrom
                   Q00  =   0.102217

C          x =  2.261944  y =  0.576659  z = -1.939813 angstrom
           Maximum rank =  0   Radius =  0.650 angstrom
                   Q00  =   0.096910

C          x =  3.473944  y =  1.508659  z = -1.990813 angstrom
           Maximum rank =  0   Radius =  0.650 angstrom
                   Q00  =  -0.236292

O          x =  1.199944  y =  1.424659  z = -1.533813 angstrom
           Maximum rank =  0   Radius =  0.650 angstrom
                   Q00  =  -0.601353

H          x =  2.057944  y =  0.162659  z = -2.926813 angstrom
           Maximum rank =  0   Radius =  0.325 angstrom
                   Q00  =   0.042118

H          x =  2.431944  y = -0.227341  z = -1.222813 angstrom
           Maximum rank =  0   Radius =  0.325 angstrom
                   Q00  =   0.023793

H          x =  4.254944  y =  1.011659  z = -2.566813 angstrom
           Maximum rank =  0   Radius =  0.325 angstrom
                   Q00  =   0.066080

H          x =  0.517944  y =  0.872659  z = -1.127813 angstrom
           Maximum rank =  0   Radius =  0.325 angstrom
                   Q00  =   0.420928

H          x =  3.814094  y =  1.698055  z = -0.962016 angstrom
           Maximum rank =  0   Radius =  0.325 angstrom
                   Q00  =   0.077734

H          x =  3.246844  y =  2.466086  z = -2.482504 angstrom
           Maximum rank =  0   Radius =  0.325 angstrom
                   Q00  =   0.099216

Total multipoles referred to origin at
           x =   0.000000,  y =    0.000000,  z =    0.000000 angstrom
                   Q00  =  -0.000000

Finished at 20:28:43 on 26 Apr 2020

  DMA results are available in the Python driver through the
	  variable('DMA DISTRIBUTED MULTIPOLES')
  and
	  variable('DMA TOTAL MULTIPOLES')
  commands.

    Psi4 stopped on: Sunday, 26 April 2020 08:28PM
    Psi4 wall time for execution: 0:05:14.29

*** Psi4 exiting successfully. Buy a developer a beer!
