                               Psi4 1.3.2 release

  ==> Input File <==

--------------------------------------------------------------------------
import numpy as np
set {scf_type pk
basis cc-pvdz
d_convergence 10
gdma_switch   0
gdma_limit    0
gdma_origin   [ 0.0,  0.0,  0.0 ]
}
molecule test {
    units Angstrom
    0 1
    --
    0 1
    C                0.862146461437398     2.305582137300334     1.925265905099188
    C               -0.850853538562602     0.094582137300335    -1.361734094900812
    C               -1.667853538562602     0.599582137300335    -0.366734094900812
    C                0.520146461437398     0.299582137300335    -1.297734094900812
    C               -1.112853538562602     1.324582137300335     0.688265905099188
    C                1.078146461437398     1.017582137300334    -0.234734094900812
    C                0.265146461437398     1.530582137300335     0.770265905099188
    H               -1.278853538562602    -0.464417862699665    -2.183734094900812
    H               -2.730853538562601     0.424582137300335    -0.409734094900812
    H                1.159146461437398    -0.097417862699665    -2.074734094900812
    H               -1.764853538562602     1.729582137300334     1.443265905099188
    H                2.148146461437399     1.163582137300335    -0.195734094900812
    H                0.211146461437398     3.156582137300334     2.131265905099188
    H                1.816146461437398     2.716582137300334     1.633265905099188
    H                0.987316461437398     1.727393137300335     2.852645905099188
    C               -0.245853538562602    -3.438417862699665    -0.583734094900812
    C                0.934146461437398    -2.989417862699665     0.273265905099188
    H               -1.180853538562602    -3.187417862699665    -0.088734094900812
    H               -0.220853538562602    -2.927417862699665    -1.546734094900812
    H               -0.203853538562602    -4.515417862699665    -0.748734094900812
    H                0.864146461437398    -1.912417862699666     0.420265905099188
    H                0.910016461437398    -3.479817862699666     1.257605905099188
    H                1.875956461437398    -3.195507862699665    -0.256374094900812

}
e, wfn = energy('scf', return_wfn=True)
gdma(wfn)
dmavals = variable('DMA DISTRIBUTED MULTIPOLES')
charges = np.array(dmavals)
print(charges)
np.save('SSI-016PHE-036VAL-1-dimer.npy', np.array(charges))--------------------------------------------------------------------------

*** tstart() called on ds3
*** at Tue Apr 28 16:00:18 2020

   => Loading Basis Set <=

    Name: CC-PVDZ
    Role: ORBITAL
    Keyword: BASIS
    atoms 1-7, 16-17  entry C          line   138 file /theoryfs2/ds/metcalf/miniconda2/envs/tf2gpu/share/psi4/basis/cc-pvdz.gbs
    atoms 8-15, 18-23 entry H          line    22 file /theoryfs2/ds/metcalf/miniconda2/envs/tf2gpu/share/psi4/basis/cc-pvdz.gbs

         ---------------------------------------------------------
                                   SCF
               by Justin Turney, Rob Parrish, Andy Simmonett
                          and Daniel G. A. Smith
                              RHF Reference
                        1 Threads,    500 MiB Core
         ---------------------------------------------------------

  ==> Geometry <==

    Molecular point group: c1
    Full point group: C1

    Geometry (in Angstrom), charge = 0, multiplicity = 1:

       Center              X                  Y                   Z               Mass
    ------------   -----------------  -----------------  -----------------  -----------------
         C            0.862146461437     2.305582137300     1.925265905099    12.000000000000
         C           -0.850853538563     0.094582137300    -1.361734094901    12.000000000000
         C           -1.667853538563     0.599582137300    -0.366734094901    12.000000000000
         C            0.520146461437     0.299582137300    -1.297734094901    12.000000000000
         C           -1.112853538563     1.324582137300     0.688265905099    12.000000000000
         C            1.078146461437     1.017582137300    -0.234734094901    12.000000000000
         C            0.265146461437     1.530582137300     0.770265905099    12.000000000000
         H           -1.278853538563    -0.464417862700    -2.183734094901     1.007825032230
         H           -2.730853538563     0.424582137300    -0.409734094901     1.007825032230
         H            1.159146461437    -0.097417862700    -2.074734094901     1.007825032230
         H           -1.764853538563     1.729582137300     1.443265905099     1.007825032230
         H            2.148146461437     1.163582137300    -0.195734094901     1.007825032230
         H            0.211146461437     3.156582137300     2.131265905099     1.007825032230
         H            1.816146461437     2.716582137300     1.633265905099     1.007825032230
         H            0.987316461437     1.727393137300     2.852645905099     1.007825032230
         C           -0.245853538563    -3.438417862700    -0.583734094901    12.000000000000
         C            0.934146461437    -2.989417862700     0.273265905099    12.000000000000
         H           -1.180853538563    -3.187417862700    -0.088734094901     1.007825032230
         H           -0.220853538563    -2.927417862700    -1.546734094901     1.007825032230
         H           -0.203853538563    -4.515417862700    -0.748734094901     1.007825032230
         H            0.864146461437    -1.912417862700     0.420265905099     1.007825032230
         H            0.910016461437    -3.479817862700     1.257605905099     1.007825032230
         H            1.875956461437    -3.195507862700    -0.256374094901     1.007825032230

  Running in c1 symmetry.

  Rotational constants: A =      0.07233  B =      0.02903  C =      0.02577 [cm^-1]
  Rotational constants: A =   2168.40842  B =    870.19071  C =    772.57023 [MHz]
  Nuclear repulsion =  416.701024048021850

  Charge       = 0
  Multiplicity = 1
  Electrons    = 68
  Nalpha       = 34
  Nbeta        = 34

  ==> Algorithm <==

  SCF Algorithm Type is PK.
  DIIS enabled.
  MOM disabled.
  Fractional occupation disabled.
  Guess Type is SAD.
  Energy threshold   = 1.00e-06
  Density threshold  = 1.00e-10
  Integral threshold = 0.00e+00

  ==> Primary Basis <==

  Basis Set: CC-PVDZ
    Blend: CC-PVDZ
    Number of shells: 96
    Number of basis function: 196
    Number of Cartesian functions: 205
    Spherical Harmonics?: true
    Max angular momentum: 2

  ==> Pre-Iterations <==

   -------------------------------------------------------
    Irrep   Nso     Nmo     Nalpha   Nbeta   Ndocc  Nsocc
   -------------------------------------------------------
     A        196     196       0       0       0       0
   -------------------------------------------------------
    Total     196     196      34      34      34       0
   -------------------------------------------------------

  ==> Integral Setup <==

  Using integral reordering PK algorithm.
  Sizing the integral batches needed.
  Building batch lookup table.
   Calculation information:
      Number of atoms:                  23
      Number of AO shells:              96
      Number of primitives:            268
      Number of atomic orbitals:       205
      Number of basis functions:       196

      Integral cutoff                 1.00e-12
      Number of threads:                 1

	Batch   1 pq = [       0,    9405] index = [             0,44231715] size =     44231715
	Batch   2 pq = [    9405,   13301] index = [      44231715,88464951] size =     44233236
	Batch   3 pq = [   13301,   16290] index = [      88464951,132690195] size =     44225244
	Batch   4 pq = [   16290,   18810] index = [     132690195,176917455] size =     44227260
	Batch   5 pq = [   18810,   19306] index = [     176917455,186370471] size =      9453016
  Task number: 17
  Buffer size: 11059200
  Buffer per thread: 2
  We computed 10408511 shell quartets total.
  Whereas there are 10841496 unique shell quartets.

  ==> DiskJK: Disk-Based J/K Matrices <==

    J tasked:                  Yes
    K tasked:                  Yes
    wK tasked:                  No
    Memory [MiB]:              375
    Schwarz Cutoff:          1E-12

    OpenMP threads:              1

  Minimum eigenvalue in the overlap matrix is 3.0723114202E-04.
  Using Symmetric Orthogonalization.

  SCF Guess: Superposition of Atomic Densities via on-the-fly atomic UHF.

  ==> Iterations <==

                        Total Energy        Delta E     RMS |[F,P]|

   @RHF iter SAD:  -347.88104071575287   -3.47881e+02   0.00000e+00
   @RHF iter   1:  -348.76729841151388   -8.86258e-01   2.89908e-03 DIIS
   @RHF iter   2:  -348.95945835587690   -1.92160e-01   1.20792e-03 DIIS
   @RHF iter   3:  -348.98989433884827   -3.04360e-02   2.57999e-04 DIIS
   @RHF iter   4:  -348.99236811199057   -2.47377e-03   4.81868e-05 DIIS
   @RHF iter   5:  -348.99243317015794   -6.50582e-05   1.47026e-05 DIIS
   @RHF iter   6:  -348.99243886844226   -5.69828e-06   3.72557e-06 DIIS
   @RHF iter   7:  -348.99243926580914   -3.97367e-07   1.33284e-06 DIIS
   @RHF iter   8:  -348.99243931746520   -5.16561e-08   3.06414e-07 DIIS
   @RHF iter   9:  -348.99243932383149   -6.36629e-09   1.38915e-07 DIIS
   @RHF iter  10:  -348.99243932533136   -1.49987e-09   6.33399e-08 DIIS
   @RHF iter  11:  -348.99243932587075   -5.39387e-10   2.31695e-08 DIIS
   @RHF iter  12:  -348.99243932593782   -6.70752e-11   9.15535e-09 DIIS
   @RHF iter  13:  -348.99243932594561   -7.78755e-12   3.36993e-09 DIIS
   @RHF iter  14:  -348.99243932594550    1.13687e-13   8.22847e-10 DIIS
   @RHF iter  15:  -348.99243932594595   -4.54747e-13   3.99563e-10 DIIS
   @RHF iter  16:  -348.99243932594658   -6.25278e-13   1.82377e-10 DIIS
   @RHF iter  17:  -348.99243932594430    2.27374e-12   7.26862e-11 DIIS
  Energy and wave function converged.

  ==> Post-Iterations <==

    Orbital Energies [Eh]
    ---------------------

    Doubly Occupied:

       1A    -11.242488     2A    -11.236111     3A    -11.235541
       4A    -11.232017     5A    -11.231702     6A    -11.230758
       7A    -11.229655     8A    -11.209237     9A    -11.208447
      10A     -1.153973    11A     -1.045672    12A     -1.012108
      13A     -1.009726    14A     -0.933434    15A     -0.828039
      16A     -0.826982    17A     -0.796184    18A     -0.692740
      19A     -0.632710    20A     -0.630554    21A     -0.591786
      22A     -0.590253    23A     -0.582315    24A     -0.576467
      25A     -0.564055    26A     -0.536456    27A     -0.494022
      28A     -0.488260    29A     -0.485684    30A     -0.482423
      31A     -0.479017    32A     -0.473117    33A     -0.331836
      34A     -0.324691

    Virtual:

      35A      0.132950    36A      0.140494    37A      0.175166
      38A      0.194494    39A      0.209413    40A      0.216212
      41A      0.232867    42A      0.244143    43A      0.254335
      44A      0.268676    45A      0.270933    46A      0.278792
      47A      0.280370    48A      0.287780    49A      0.314289
      50A      0.320623    51A      0.365347    52A      0.374385
      53A      0.402345    54A      0.454776    55A      0.463547
      56A      0.478248    57A      0.491360    58A      0.562657
      59A      0.577706    60A      0.597821    61A      0.601255
      62A      0.618276    63A      0.636741    64A      0.655942
      65A      0.669953    66A      0.684498    67A      0.692041
      68A      0.708586    69A      0.734658    70A      0.740537
      71A      0.744911    72A      0.758186    73A      0.761336
      74A      0.778100    75A      0.811388    76A      0.827215
      77A      0.848353    78A      0.852409    79A      0.861416
      80A      0.869151    81A      0.871004    82A      0.878897
      83A      0.893869    84A      0.897816    85A      0.907425
      86A      0.910303    87A      0.921175    88A      0.923971
      89A      0.941165    90A      0.946155    91A      0.951575
      92A      0.982203    93A      0.999102    94A      1.010800
      95A      1.038809    96A      1.071744    97A      1.123404
      98A      1.132114    99A      1.134452   100A      1.142775
     101A      1.157971   102A      1.170366   103A      1.188345
     104A      1.229627   105A      1.239984   106A      1.249958
     107A      1.258929   108A      1.288395   109A      1.301589
     110A      1.314817   111A      1.321560   112A      1.326830
     113A      1.415758   114A      1.483513   115A      1.489306
     116A      1.510939   117A      1.517129   118A      1.548662
     119A      1.582784   120A      1.604201   121A      1.669209
     122A      1.693823   123A      1.698729   124A      1.705863
     125A      1.743444   126A      1.751317   127A      1.779425
     128A      1.804546   129A      1.819826   130A      1.861086
     131A      1.869759   132A      1.876916   133A      1.894687
     134A      1.904360   135A      1.910487   136A      1.911977
     137A      1.921880   138A      1.927841   139A      1.945344
     140A      1.948620   141A      1.957256   142A      1.957885
     143A      1.966847   144A      1.969262   145A      1.975242
     146A      1.981343   147A      2.000103   148A      2.008763
     149A      2.050140   150A      2.056317   151A      2.069417
     152A      2.108871   153A      2.123631   154A      2.127499
     155A      2.146150   156A      2.161283   157A      2.169232
     158A      2.179190   159A      2.183044   160A      2.248103
     161A      2.275499   162A      2.292051   163A      2.301563
     164A      2.313786   165A      2.321742   166A      2.323444
     167A      2.341337   168A      2.462978   169A      2.470995
     170A      2.476693   171A      2.478808   172A      2.505124
     173A      2.536992   174A      2.574931   175A      2.586061
     176A      2.620819   177A      2.735159   178A      2.754906
     179A      2.776061   180A      2.777638   181A      2.794081
     182A      2.805818   183A      2.813376   184A      2.851025
     185A      2.866697   186A      2.870035   187A      2.890760
     188A      2.960017   189A      2.974056   190A      3.000240
     191A      3.018450   192A      3.039835   193A      3.157837
     194A      3.201180   195A      3.300286   196A      3.970183

    Final Occupation by Irrep:
              A
    DOCC [    34 ]

  @RHF Final Energy:  -348.99243932594430

   => Energetics <=

    Nuclear Repulsion Energy =            416.7010240480218499
    One-Electron Energy =               -1296.1500099062986919
    Two-Electron Energy =                 530.4565465323325952
    Total Energy =                       -348.9924393259442468

Computation Completed

Properties will be evaluated at   0.000000,   0.000000,   0.000000 [a0]

Properties computed using the SCF density matrix

  Nuclear Dipole Moment: [e a0]
     X:     2.4298      Y:    -8.3074      Z:     2.0941

  Electronic Dipole Moment: [e a0]
     X:    -2.4096      Y:     8.4746      Z:    -1.9874

  Dipole Moment: [e a0]
     X:     0.0202      Y:     0.1672      Z:     0.1067     Total:     0.1994

  Dipole Moment: [D]
     X:     0.0514      Y:     0.4250      Z:     0.2712     Total:     0.5067

*** tstop() called on ds3 at Tue Apr 28 16:03:20 2020
Module time:
	user time   =      71.99 seconds =       1.20 minutes
	system time =      23.98 seconds =       0.40 minutes
	total time  =        182 seconds =       3.03 minutes
Total time:
	user time   =      71.99 seconds =       1.20 minutes
	system time =      23.98 seconds =       0.40 minutes
	total time  =        182 seconds =       3.03 minutes
                                     G D M A

                                 by Anthony Stone

                           version 2.2.06, 22 June 2011

               Distributed Multipoles from Gaussian wavefunctions

Starting at 16:3:20 on 28 Apr 2020

Using SCF density matrix from file ./SSI/SSI-016PHE-036VAL-1-dimer.test.27323.fchk

                         Distributed Multipole Analysis

Standard DMA

Positions and radii in angstrom
Multipole moments in atomic units, ea_0^k for rank k

C          x =  0.862146  y =  2.305582  z =  1.925266 angstrom
           Maximum rank =  0   Radius =  0.650 angstrom
                   Q00  =  -0.208005

C          x = -0.850854  y =  0.094582  z = -1.361734 angstrom
           Maximum rank =  0   Radius =  0.650 angstrom
                   Q00  =  -0.074991

C          x = -1.667854  y =  0.599582  z = -0.366734 angstrom
           Maximum rank =  0   Radius =  0.650 angstrom
                   Q00  =  -0.077877

C          x =  0.520146  y =  0.299582  z = -1.297734 angstrom
           Maximum rank =  0   Radius =  0.650 angstrom
                   Q00  =  -0.063092

C          x = -1.112854  y =  1.324582  z =  0.688266 angstrom
           Maximum rank =  0   Radius =  0.650 angstrom
                   Q00  =   0.005114

C          x =  1.078146  y =  1.017582  z = -0.234734 angstrom
           Maximum rank =  0   Radius =  0.650 angstrom
                   Q00  =  -0.087508

C          x =  0.265146  y =  1.530582  z =  0.770266 angstrom
           Maximum rank =  0   Radius =  0.650 angstrom
                   Q00  =  -0.102662

H          x = -1.278854  y = -0.464418  z = -2.183734 angstrom
           Maximum rank =  0   Radius =  0.325 angstrom
                   Q00  =   0.061600

H          x = -2.730854  y =  0.424582  z = -0.409734 angstrom
           Maximum rank =  0   Radius =  0.325 angstrom
                   Q00  =   0.064755

H          x =  1.159146  y = -0.097418  z = -2.074734 angstrom
           Maximum rank =  0   Radius =  0.325 angstrom
                   Q00  =   0.064512

H          x = -1.764854  y =  1.729582  z =  1.443266 angstrom
           Maximum rank =  0   Radius =  0.325 angstrom
                   Q00  =   0.056303

H          x =  2.148146  y =  1.163582  z = -0.195734 angstrom
           Maximum rank =  0   Radius =  0.325 angstrom
                   Q00  =   0.058945

H          x =  0.211146  y =  3.156582  z =  2.131266 angstrom
           Maximum rank =  0   Radius =  0.325 angstrom
                   Q00  =   0.097683

H          x =  1.816146  y =  2.716582  z =  1.633266 angstrom
           Maximum rank =  0   Radius =  0.325 angstrom
                   Q00  =   0.101242

H          x =  0.987316  y =  1.727393  z =  2.852646 angstrom
           Maximum rank =  0   Radius =  0.325 angstrom
                   Q00  =   0.106349

C          x = -0.245854  y = -3.438418  z = -0.583734 angstrom
           Maximum rank =  0   Radius =  0.650 angstrom
                   Q00  =  -0.229551

C          x =  0.934146  y = -2.989418  z =  0.273266 angstrom
           Maximum rank =  0   Radius =  0.650 angstrom
                   Q00  =  -0.239971

H          x = -1.180854  y = -3.187418  z = -0.088734 angstrom
           Maximum rank =  0   Radius =  0.325 angstrom
                   Q00  =   0.079522

H          x = -0.220854  y = -2.927418  z = -1.546734 angstrom
           Maximum rank =  0   Radius =  0.325 angstrom
                   Q00  =   0.074440

H          x = -0.203854  y = -4.515418  z = -0.748734 angstrom
           Maximum rank =  0   Radius =  0.325 angstrom
                   Q00  =   0.072630

H          x =  0.864146  y = -1.912418  z =  0.420266 angstrom
           Maximum rank =  0   Radius =  0.325 angstrom
                   Q00  =   0.094738

H          x =  0.910016  y = -3.479818  z =  1.257606 angstrom
           Maximum rank =  0   Radius =  0.325 angstrom
                   Q00  =   0.075323

H          x =  1.875956  y = -3.195508  z = -0.256374 angstrom
           Maximum rank =  0   Radius =  0.325 angstrom
                   Q00  =   0.070498

Total multipoles referred to origin at
           x =   0.000000,  y =    0.000000,  z =    0.000000 angstrom
                   Q00  =  -0.000000

Finished at 16:3:20 on 28 Apr 2020

  DMA results are available in the Python driver through the
	  variable('DMA DISTRIBUTED MULTIPOLES')
  and
	  variable('DMA TOTAL MULTIPOLES')
  commands.

    Psi4 stopped on: Tuesday, 28 April 2020 04:03PM
    Psi4 wall time for execution: 0:03:02.50

*** Psi4 exiting successfully. Buy a developer a beer!
