                               Psi4 1.3.2 release

  ==> Input File <==

--------------------------------------------------------------------------
import numpy as np
set {scf_type pk
basis cc-pvdz
d_convergence 10
gdma_switch   0
gdma_limit    0
gdma_origin   [ 0.0,  0.0,  0.0 ]
}
molecule test {
    units Angstrom
    0 1
    --
    0 1
    C               -1.279999549225301    -0.972679439985067     1.006543245799724
    C               -1.818999549225301    -2.412679439985066     1.076543245799723
    C               -0.373999549225301    -0.737679439985067    -0.173456754200276
    C               -0.899999549225301    -0.556679439985067    -1.450456754200276
    C                0.996000450774699    -0.746679439985067    -0.024456754200276
    C               -0.064999549225301    -0.394679439985067    -2.553456754200276
    C                1.843000450774699    -0.579679439985067    -1.122456754200277
    C                1.309000450774699    -0.400679439985067    -2.384456754200276
    H               -2.112999549225301    -0.272679439985067     0.955543245799724
    H               -0.734999549225301    -0.756679439985067     1.924543245799724
    H               -0.971999549225301    -3.090679439985066     1.082543245799724
    H               -1.965999549225301    -0.554679439985067    -1.603456754200276
    H                1.427000450774699    -0.905679439985067     0.953543245799724
    H               -0.489999549225301    -0.267679439985067    -3.539456754200276
    H                2.914000450774699    -0.604679439985067    -0.987456754200276
    H                1.962000450774699    -0.281679439985067    -3.236456754200276
    H               -2.455769549225300    -2.616898439985067     0.203153245799724
    H               -2.416609549225300    -2.550421439985067     1.989723245799724
    C               -0.065999549225301     2.502320560014934     2.020543245799724
    C                0.618000450774699     3.727320560014934     2.631543245799724
    H               -0.609999549225301     1.957320560014933     2.791543245799724
    H               -0.762999549225301     2.822320560014933     1.245543245799724
    H                0.681000450774699     1.847320560014933     1.571543245799724
    H                1.138000450774699     4.227320560014933     1.820543245799723
    H                1.352950450774699     3.380740560014933     3.372983245799723
    H               -0.073219549225301     4.474990560014934     3.047723245799724

}
e, wfn = energy('scf', return_wfn=True)
gdma(wfn)
dmavals = variable('DMA DISTRIBUTED MULTIPOLES')
charges = np.array(dmavals)
print(charges)
np.save('SSI-184PHE-209LEU-1-dimer.npy', np.array(charges))--------------------------------------------------------------------------

*** tstart() called on ds3
*** at Mon Apr 27 14:19:29 2020

   => Loading Basis Set <=

    Name: CC-PVDZ
    Role: ORBITAL
    Keyword: BASIS
    atoms 1-8, 19-20  entry C          line   138 file /theoryfs2/ds/metcalf/miniconda2/envs/tf2gpu/share/psi4/basis/cc-pvdz.gbs
    atoms 9-18, 21-26 entry H          line    22 file /theoryfs2/ds/metcalf/miniconda2/envs/tf2gpu/share/psi4/basis/cc-pvdz.gbs

         ---------------------------------------------------------
                                   SCF
               by Justin Turney, Rob Parrish, Andy Simmonett
                          and Daniel G. A. Smith
                              RHF Reference
                        1 Threads,    500 MiB Core
         ---------------------------------------------------------

  ==> Geometry <==

    Molecular point group: c1
    Full point group: C1

    Geometry (in Angstrom), charge = 0, multiplicity = 1:

       Center              X                  Y                   Z               Mass
    ------------   -----------------  -----------------  -----------------  -----------------
         C           -1.279999549225    -0.972679439985     1.006543245800    12.000000000000
         C           -1.818999549225    -2.412679439985     1.076543245800    12.000000000000
         C           -0.373999549225    -0.737679439985    -0.173456754200    12.000000000000
         C           -0.899999549225    -0.556679439985    -1.450456754200    12.000000000000
         C            0.996000450775    -0.746679439985    -0.024456754200    12.000000000000
         C           -0.064999549225    -0.394679439985    -2.553456754200    12.000000000000
         C            1.843000450775    -0.579679439985    -1.122456754200    12.000000000000
         C            1.309000450775    -0.400679439985    -2.384456754200    12.000000000000
         H           -2.112999549225    -0.272679439985     0.955543245800     1.007825032230
         H           -0.734999549225    -0.756679439985     1.924543245800     1.007825032230
         H           -0.971999549225    -3.090679439985     1.082543245800     1.007825032230
         H           -1.965999549225    -0.554679439985    -1.603456754200     1.007825032230
         H            1.427000450775    -0.905679439985     0.953543245800     1.007825032230
         H           -0.489999549225    -0.267679439985    -3.539456754200     1.007825032230
         H            2.914000450775    -0.604679439985    -0.987456754200     1.007825032230
         H            1.962000450775    -0.281679439985    -3.236456754200     1.007825032230
         H           -2.455769549225    -2.616898439985     0.203153245800     1.007825032230
         H           -2.416609549225    -2.550421439985     1.989723245800     1.007825032230
         C           -0.065999549225     2.502320560015     2.020543245800    12.000000000000
         C            0.618000450775     3.727320560015     2.631543245800    12.000000000000
         H           -0.609999549225     1.957320560015     2.791543245800     1.007825032230
         H           -0.762999549225     2.822320560015     1.245543245800     1.007825032230
         H            0.681000450775     1.847320560015     1.571543245800     1.007825032230
         H            1.138000450775     4.227320560015     1.820543245800     1.007825032230
         H            1.352950450775     3.380740560015     3.372983245800     1.007825032230
         H           -0.073219549225     4.474990560015     3.047723245800     1.007825032230

  Running in c1 symmetry.

  Rotational constants: A =      0.04189  B =      0.02322  C =      0.01745 [cm^-1]
  Rotational constants: A =   1255.91473  B =    696.20572  C =    523.24573 [MHz]
  Nuclear repulsion =  489.920275765810118

  Charge       = 0
  Multiplicity = 1
  Electrons    = 76
  Nalpha       = 38
  Nbeta        = 38

  ==> Algorithm <==

  SCF Algorithm Type is PK.
  DIIS enabled.
  MOM disabled.
  Fractional occupation disabled.
  Guess Type is SAD.
  Energy threshold   = 1.00e-06
  Density threshold  = 1.00e-10
  Integral threshold = 0.00e+00

  ==> Primary Basis <==

  Basis Set: CC-PVDZ
    Blend: CC-PVDZ
    Number of shells: 108
    Number of basis function: 220
    Number of Cartesian functions: 230
    Spherical Harmonics?: true
    Max angular momentum: 2

  ==> Pre-Iterations <==

   -------------------------------------------------------
    Irrep   Nso     Nmo     Nalpha   Nbeta   Ndocc  Nsocc
   -------------------------------------------------------
     A        220     220       0       0       0       0
   -------------------------------------------------------
    Total     220     220      38      38      38       0
   -------------------------------------------------------

  ==> Integral Setup <==

  Using integral reordering PK algorithm.
  Sizing the integral batches needed.
  Building batch lookup table.
   Calculation information:
      Number of atoms:                  26
      Number of AO shells:             108
      Number of primitives:            300
      Number of atomic orbitals:       230
      Number of basis functions:       220

      Integral cutoff                 1.00e-12
      Number of threads:                 1

	Batch   1 pq = [       0,    9405] index = [             0,44231715] size =     44231715
	Batch   2 pq = [    9405,   13301] index = [      44231715,88464951] size =     44233236
	Batch   3 pq = [   13301,   16290] index = [      88464951,132690195] size =     44225244
	Batch   4 pq = [   16290,   18810] index = [     132690195,176917455] size =     44227260
	Batch   5 pq = [   18810,   21030] index = [     176917455,221140965] size =     44223510
	Batch   6 pq = [   21030,   23037] index = [     221140965,265363203] size =     44222238
	Batch   7 pq = [   23037,   24310] index = [     265363203,295500205] size =     30137002
  Task number: 27
  Buffer size: 11059200
  Buffer per thread: 2
  We computed 15425572 shell quartets total.
  Whereas there are 17325441 unique shell quartets.

  ==> DiskJK: Disk-Based J/K Matrices <==

    J tasked:                  Yes
    K tasked:                  Yes
    wK tasked:                  No
    Memory [MiB]:              375
    Schwarz Cutoff:          1E-12

    OpenMP threads:              1

  Minimum eigenvalue in the overlap matrix is 2.9667501453E-04.
  Using Symmetric Orthogonalization.

  SCF Guess: Superposition of Atomic Densities via on-the-fly atomic UHF.

  ==> Iterations <==

                        Total Energy        Delta E     RMS |[F,P]|

   @RHF iter SAD:  -386.90791268126759   -3.86908e+02   0.00000e+00
   @RHF iter   1:  -387.77708333810739   -8.69171e-01   2.73201e-03 DIIS
   @RHF iter   2:  -387.99218918692702   -2.15106e-01   1.14132e-03 DIIS
   @RHF iter   3:  -388.02656990104060   -3.43807e-02   2.47334e-04 DIIS
   @RHF iter   4:  -388.02939081849627   -2.82092e-03   5.59250e-05 DIIS
   @RHF iter   5:  -388.02948648175419   -9.56633e-05   2.09947e-05 DIIS
   @RHF iter   6:  -388.02950018348724   -1.37017e-05   4.05523e-06 DIIS
   @RHF iter   7:  -388.02950086727162   -6.83784e-07   1.13730e-06 DIIS
   @RHF iter   8:  -388.02950092374635   -5.64747e-08   3.18844e-07 DIIS
   @RHF iter   9:  -388.02950093293146   -9.18510e-09   1.36191e-07 DIIS
   @RHF iter  10:  -388.02950093539073   -2.45927e-09   6.74361e-08 DIIS
   @RHF iter  11:  -388.02950093614368   -7.52948e-10   2.26682e-08 DIIS
   @RHF iter  12:  -388.02950093621746   -7.37828e-11   9.47620e-09 DIIS
   @RHF iter  13:  -388.02950093622104   -3.58114e-12   3.99579e-09 DIIS
   @RHF iter  14:  -388.02950093622292   -1.87583e-12   1.08778e-09 DIIS
   @RHF iter  15:  -388.02950093622422   -1.30740e-12   4.14588e-10 DIIS
   @RHF iter  16:  -388.02950093622587   -1.64846e-12   1.83192e-10 DIIS
   @RHF iter  17:  -388.02950093622678   -9.09495e-13   8.01545e-11 DIIS
  Energy and wave function converged.

  ==> Post-Iterations <==

    Orbital Energies [Eh]
    ---------------------

    Doubly Occupied:

       1A    -11.235364     2A    -11.234110     3A    -11.233846
       4A    -11.229498     5A    -11.229096     6A    -11.228587
       7A    -11.228376     8A    -11.223540     9A    -11.215341
      10A    -11.212156    11A     -1.156571    12A     -1.063451
      13A     -1.014371    14A     -1.010829    15A     -0.982758
      16A     -0.861827    17A     -0.832786    18A     -0.826523
      19A     -0.786149    20A     -0.692023    21A     -0.640543
      22A     -0.632959    23A     -0.597216    24A     -0.593566
      25A     -0.591614    26A     -0.586192    27A     -0.575757
      28A     -0.541253    29A     -0.517972    30A     -0.500209
      31A     -0.496997    32A     -0.483535    33A     -0.483430
      34A     -0.476506    35A     -0.476054    36A     -0.468490
      37A     -0.330941    38A     -0.324048

    Virtual:

      39A      0.135417    40A      0.141585    41A      0.176845
      42A      0.192674    43A      0.200460    44A      0.211023
      45A      0.223048    46A      0.238577    47A      0.242239
      48A      0.257025    49A      0.262542    50A      0.266663
      51A      0.279069    52A      0.280038    53A      0.292135
      54A      0.299264    55A      0.305706    56A      0.319735
      57A      0.340957    58A      0.393116    59A      0.394582
      60A      0.423872    61A      0.454333    62A      0.469751
      63A      0.490012    64A      0.500345    65A      0.569707
      66A      0.572252    67A      0.596564    68A      0.600724
      69A      0.608410    70A      0.620028    71A      0.629459
      72A      0.661792    73A      0.685875    74A      0.689571
      75A      0.701274    76A      0.708543    77A      0.721041
      78A      0.735872    79A      0.742878    80A      0.749846
      81A      0.752445    82A      0.763965    83A      0.781619
      84A      0.804413    85A      0.817157    86A      0.842216
      87A      0.850513    88A      0.863789    89A      0.882354
      90A      0.890487    91A      0.894377    92A      0.897177
      93A      0.897966    94A      0.905527    95A      0.907833
      96A      0.910170    97A      0.917453    98A      0.923344
      99A      0.934929   100A      0.938946   101A      0.948260
     102A      0.967330   103A      0.969421   104A      0.999220
     105A      1.002004   106A      1.023102   107A      1.034278
     108A      1.080228   109A      1.125356   110A      1.126148
     111A      1.137673   112A      1.143868   113A      1.152461
     114A      1.160574   115A      1.186317   116A      1.214323
     117A      1.234444   118A      1.252389   119A      1.254839
     120A      1.265291   121A      1.300971   122A      1.306708
     123A      1.325108   124A      1.333319   125A      1.385505
     126A      1.427444   127A      1.439193   128A      1.462952
     129A      1.490938   130A      1.515933   131A      1.533909
     132A      1.595863   133A      1.608928   134A      1.621982
     135A      1.681188   136A      1.682313   137A      1.687362
     138A      1.697363   139A      1.721505   140A      1.745977
     141A      1.761245   142A      1.770697   143A      1.838877
     144A      1.851515   145A      1.861127   146A      1.872708
     147A      1.878877   148A      1.883295   149A      1.888409
     150A      1.896829   151A      1.902546   152A      1.922616
     153A      1.924544   154A      1.933167   155A      1.937472
     156A      1.946768   157A      1.955894   158A      1.958665
     159A      1.962168   160A      1.965984   161A      1.970713
     162A      1.975958   163A      1.987833   164A      2.003286
     165A      2.011221   166A      2.030862   167A      2.042936
     168A      2.057805   169A      2.075012   170A      2.090711
     171A      2.110998   172A      2.131540   173A      2.143282
     174A      2.154498   175A      2.164767   176A      2.170606
     177A      2.176956   178A      2.201037   179A      2.240991
     180A      2.259412   181A      2.275575   182A      2.301847
     183A      2.304145   184A      2.315124   185A      2.321773
     186A      2.378683   187A      2.393256   188A      2.450837
     189A      2.458294   190A      2.478437   191A      2.482183
     192A      2.489413   193A      2.531246   194A      2.548046
     195A      2.553310   196A      2.588816   197A      2.589490
     198A      2.638146   199A      2.742266   200A      2.763442
     201A      2.771670   202A      2.781731   203A      2.794267
     204A      2.797965   205A      2.809904   206A      2.846583
     207A      2.851049   208A      2.865779   209A      2.875823
     210A      2.909778   211A      2.946049   212A      2.961684
     213A      2.975277   214A      3.006172   215A      3.034178
     216A      3.060423   217A      3.194236   218A      3.215363
     219A      3.314682   220A      3.984938

    Final Occupation by Irrep:
              A
    DOCC [    38 ]

  @RHF Final Energy:  -388.02950093622678

   => Energetics <=

    Nuclear Repulsion Energy =            489.9202757658101177
    One-Electron Energy =               -1494.2705817510991437
    Two-Electron Energy =                 616.3208050490621872
    Total Energy =                       -388.0295009362267820

Computation Completed

Properties will be evaluated at   0.000000,   0.000000,   0.000000 [a0]

Properties computed using the SCF density matrix

  Nuclear Dipole Moment: [e a0]
     X:    -2.9246      Y:     6.3825      Z:    10.8672

  Electronic Dipole Moment: [e a0]
     X:     2.8545      Y:    -6.4558      Z:   -10.8367

  Dipole Moment: [e a0]
     X:    -0.0700      Y:    -0.0733      Z:     0.0305     Total:     0.1058

  Dipole Moment: [D]
     X:    -0.1780      Y:    -0.1862      Z:     0.0776     Total:     0.2690

*** tstop() called on ds3 at Mon Apr 27 14:24:01 2020
Module time:
	user time   =     105.43 seconds =       1.76 minutes
	system time =      42.06 seconds =       0.70 minutes
	total time  =        272 seconds =       4.53 minutes
Total time:
	user time   =     105.43 seconds =       1.76 minutes
	system time =      42.06 seconds =       0.70 minutes
	total time  =        272 seconds =       4.53 minutes
                                     G D M A

                                 by Anthony Stone

                           version 2.2.06, 22 June 2011

               Distributed Multipoles from Gaussian wavefunctions

Starting at 14:24:1 on 27 Apr 2020

Using SCF density matrix from file ./SSI/SSI-184PHE-209LEU-1-dimer.test.9197.fchk

                         Distributed Multipole Analysis

Standard DMA

Positions and radii in angstrom
Multipole moments in atomic units, ea_0^k for rank k

C          x = -1.280000  y = -0.972679  z =  1.006543 angstrom
           Maximum rank =  0   Radius =  0.650 angstrom
                   Q00  =  -0.047458

C          x = -1.819000  y = -2.412679  z =  1.076543 angstrom
           Maximum rank =  0   Radius =  0.650 angstrom
                   Q00  =  -0.233122

C          x = -0.374000  y = -0.737679  z = -0.173457 angstrom
           Maximum rank =  0   Radius =  0.650 angstrom
                   Q00  =  -0.102124

C          x = -0.900000  y = -0.556679  z = -1.450457 angstrom
           Maximum rank =  0   Radius =  0.650 angstrom
                   Q00  =  -0.064280

C          x =  0.996000  y = -0.746679  z = -0.024457 angstrom
           Maximum rank =  0   Radius =  0.650 angstrom
                   Q00  =  -0.004954

C          x = -0.065000  y = -0.394679  z = -2.553457 angstrom
           Maximum rank =  0   Radius =  0.650 angstrom
                   Q00  =  -0.077951

C          x =  1.843000  y = -0.579679  z = -1.122457 angstrom
           Maximum rank =  0   Radius =  0.650 angstrom
                   Q00  =  -0.080997

C          x =  1.309000  y = -0.400679  z = -2.384457 angstrom
           Maximum rank =  0   Radius =  0.650 angstrom
                   Q00  =  -0.075101

H          x = -2.113000  y = -0.272679  z =  0.955543 angstrom
           Maximum rank =  0   Radius =  0.325 angstrom
                   Q00  =   0.070897

H          x = -0.735000  y = -0.756679  z =  1.924543 angstrom
           Maximum rank =  0   Radius =  0.325 angstrom
                   Q00  =   0.067050

H          x = -0.972000  y = -3.090679  z =  1.082543 angstrom
           Maximum rank =  0   Radius =  0.325 angstrom
                   Q00  =   0.086285

H          x = -1.966000  y = -0.554679  z = -1.603457 angstrom
           Maximum rank =  0   Radius =  0.325 angstrom
                   Q00  =   0.054257

H          x =  1.427000  y = -0.905679  z =  0.953543 angstrom
           Maximum rank =  0   Radius =  0.325 angstrom
                   Q00  =   0.054046

H          x = -0.490000  y = -0.267679  z = -3.539457 angstrom
           Maximum rank =  0   Radius =  0.325 angstrom
                   Q00  =   0.063723

H          x =  2.914000  y = -0.604679  z = -0.987457 angstrom
           Maximum rank =  0   Radius =  0.325 angstrom
                   Q00  =   0.063827

H          x =  1.962000  y = -0.281679  z = -3.236457 angstrom
           Maximum rank =  0   Radius =  0.325 angstrom
                   Q00  =   0.059831

H          x = -2.455770  y = -2.616898  z =  0.203153 angstrom
           Maximum rank =  0   Radius =  0.325 angstrom
                   Q00  =   0.082570

H          x = -2.416610  y = -2.550421  z =  1.989723 angstrom
           Maximum rank =  0   Radius =  0.325 angstrom
                   Q00  =   0.083625

C          x = -0.066000  y =  2.502321  z =  2.020543 angstrom
           Maximum rank =  0   Radius =  0.650 angstrom
                   Q00  =  -0.235847

C          x =  0.618000  y =  3.727321  z =  2.631543 angstrom
           Maximum rank =  0   Radius =  0.650 angstrom
                   Q00  =  -0.237962

H          x = -0.610000  y =  1.957321  z =  2.791543 angstrom
           Maximum rank =  0   Radius =  0.325 angstrom
                   Q00  =   0.072290

H          x = -0.763000  y =  2.822321  z =  1.245543 angstrom
           Maximum rank =  0   Radius =  0.325 angstrom
                   Q00  =   0.080247

H          x =  0.681000  y =  1.847321  z =  1.571543 angstrom
           Maximum rank =  0   Radius =  0.325 angstrom
                   Q00  =   0.087505

H          x =  1.138000  y =  4.227321  z =  1.820543 angstrom
           Maximum rank =  0   Radius =  0.325 angstrom
                   Q00  =   0.076240

H          x =  1.352950  y =  3.380741  z =  3.372983 angstrom
           Maximum rank =  0   Radius =  0.325 angstrom
                   Q00  =   0.076358

H          x = -0.073220  y =  4.474991  z =  3.047723 angstrom
           Maximum rank =  0   Radius =  0.325 angstrom
                   Q00  =   0.081046

Total multipoles referred to origin at
           x =   0.000000,  y =    0.000000,  z =    0.000000 angstrom
                   Q00  =  -0.000000

Finished at 14:24:1 on 27 Apr 2020

  DMA results are available in the Python driver through the
	  variable('DMA DISTRIBUTED MULTIPOLES')
  and
	  variable('DMA TOTAL MULTIPOLES')
  commands.

    Psi4 stopped on: Monday, 27 April 2020 02:24PM
    Psi4 wall time for execution: 0:04:32.33

*** Psi4 exiting successfully. Buy a developer a beer!
