                               Psi4 1.3.2 release

  ==> Input File <==

--------------------------------------------------------------------------
import numpy as np
set {scf_type pk
basis cc-pvdz
d_convergence 10
gdma_switch   0
gdma_limit    0
gdma_origin   [ 0.0,  0.0,  0.0 ]
}
molecule test {
    units Angstrom
    0 1
    --
    0 1
    C               -0.951577987025018     2.377009850666130    -2.734952439322748
    C               -0.490577987025018     1.563009850666130    -1.518952439322749
    O               -0.909577987025018     1.883009850666130    -0.390952439322749
    O                0.319422012974982     0.620009850666130    -1.703952439322749
    H               -0.959577987025018     1.741009850666130    -3.619952439322749
    H               -0.214577987025018     3.164009850666130    -2.907952439322749
    H               -1.935547987025018     2.858809850666129    -2.636625439322749
    C                0.869422012974982    -2.626990149333870    -0.159952439322749
    C                0.308422012974982    -0.943990149333870     1.614047560677251
    N               -0.148577987025018     0.271009850666130     1.920047560677251
    N                0.517422012974982    -1.276990149333870     0.344047560677251
    N                0.482422012974982    -1.845990149333870     2.567047560677252
    H               -0.346577987025018     0.919009850666130     1.152047560677251
    H               -0.288577987025018     0.555009850666130     2.878047560677251
    H                0.390422012974982    -0.538990149333870    -0.355952439322749
    H                0.881422012974982    -2.744990149333870     2.356047560677251
    H                0.242422012974982    -1.573990149333870     3.516047560677252
    H                1.626422012974982    -3.089990149333870     0.477047560677251
    H                1.300422012974982    -2.500990149333870    -1.155952439322749
    H               -0.010717987025018    -3.281450149333870    -0.243875439322749

}
e, wfn = energy('scf', return_wfn=True)
gdma(wfn)
dmavals = variable('DMA DISTRIBUTED MULTIPOLES')
charges = np.array(dmavals)
print(charges)
np.save('SSI-054GLU-058ARG-1-dimer.npy', np.array(charges))--------------------------------------------------------------------------

*** tstart() called on ds3
*** at Tue Apr 28 19:57:07 2020

   => Loading Basis Set <=

    Name: CC-PVDZ
    Role: ORBITAL
    Keyword: BASIS
    atoms 1-2, 8-9   entry C          line   138 file /theoryfs2/ds/metcalf/miniconda2/envs/tf2gpu/share/psi4/basis/cc-pvdz.gbs
    atoms 3-4        entry O          line   198 file /theoryfs2/ds/metcalf/miniconda2/envs/tf2gpu/share/psi4/basis/cc-pvdz.gbs
    atoms 5-7, 13-20 entry H          line    22 file /theoryfs2/ds/metcalf/miniconda2/envs/tf2gpu/share/psi4/basis/cc-pvdz.gbs
    atoms 10-12      entry N          line   168 file /theoryfs2/ds/metcalf/miniconda2/envs/tf2gpu/share/psi4/basis/cc-pvdz.gbs

         ---------------------------------------------------------
                                   SCF
               by Justin Turney, Rob Parrish, Andy Simmonett
                          and Daniel G. A. Smith
                              RHF Reference
                        1 Threads,    500 MiB Core
         ---------------------------------------------------------

  ==> Geometry <==

    Molecular point group: c1
    Full point group: C1

    Geometry (in Angstrom), charge = 0, multiplicity = 1:

       Center              X                  Y                   Z               Mass
    ------------   -----------------  -----------------  -----------------  -----------------
         C           -0.951577987025     2.377009850666    -2.734952439323    12.000000000000
         C           -0.490577987025     1.563009850666    -1.518952439323    12.000000000000
         O           -0.909577987025     1.883009850666    -0.390952439323    15.994914619570
         O            0.319422012975     0.620009850666    -1.703952439323    15.994914619570
         H           -0.959577987025     1.741009850666    -3.619952439323     1.007825032230
         H           -0.214577987025     3.164009850666    -2.907952439323     1.007825032230
         H           -1.935547987025     2.858809850666    -2.636625439323     1.007825032230
         C            0.869422012975    -2.626990149334    -0.159952439323    12.000000000000
         C            0.308422012975    -0.943990149334     1.614047560677    12.000000000000
         N           -0.148577987025     0.271009850666     1.920047560677    14.003074004430
         N            0.517422012975    -1.276990149334     0.344047560677    14.003074004430
         N            0.482422012975    -1.845990149334     2.567047560677    14.003074004430
         H           -0.346577987025     0.919009850666     1.152047560677     1.007825032230
         H           -0.288577987025     0.555009850666     2.878047560677     1.007825032230
         H            0.390422012975    -0.538990149334    -0.355952439323     1.007825032230
         H            0.881422012975    -2.744990149334     2.356047560677     1.007825032230
         H            0.242422012975    -1.573990149334     3.516047560677     1.007825032230
         H            1.626422012975    -3.089990149334     0.477047560677     1.007825032230
         H            1.300422012975    -2.500990149334    -1.155952439323     1.007825032230
         H           -0.010717987025    -3.281450149334    -0.243875439323     1.007825032230

  Running in c1 symmetry.

  Rotational constants: A =      0.09748  B =      0.02488  C =      0.02018 [cm^-1]
  Rotational constants: A =   2922.34018  B =    745.75616  C =    605.05079 [MHz]
  Nuclear repulsion =  463.853273587898002

  Charge       = 0
  Multiplicity = 1
  Electrons    = 72
  Nalpha       = 36
  Nbeta        = 36

  ==> Algorithm <==

  SCF Algorithm Type is PK.
  DIIS enabled.
  MOM disabled.
  Fractional occupation disabled.
  Guess Type is SAD.
  Energy threshold   = 1.00e-06
  Density threshold  = 1.00e-10
  Integral threshold = 0.00e+00

  ==> Primary Basis <==

  Basis Set: CC-PVDZ
    Blend: CC-PVDZ
    Number of shells: 87
    Number of basis function: 181
    Number of Cartesian functions: 190
    Spherical Harmonics?: true
    Max angular momentum: 2

  ==> Pre-Iterations <==

   -------------------------------------------------------
    Irrep   Nso     Nmo     Nalpha   Nbeta   Ndocc  Nsocc
   -------------------------------------------------------
     A        181     181       0       0       0       0
   -------------------------------------------------------
    Total     181     181      36      36      36       0
   -------------------------------------------------------

  ==> Integral Setup <==

  Using integral reordering PK algorithm.
  Sizing the integral batches needed.
  Building batch lookup table.
   Calculation information:
      Number of atoms:                  20
      Number of AO shells:              87
      Number of primitives:            253
      Number of atomic orbitals:       190
      Number of basis functions:       181

      Integral cutoff                 1.00e-12
      Number of threads:                 1

	Batch   1 pq = [       0,    9405] index = [             0,44231715] size =     44231715
	Batch   2 pq = [    9405,   13301] index = [      44231715,88464951] size =     44233236
	Batch   3 pq = [   13301,   16471] index = [      88464951,135655156] size =     47190205
  Task number: 13
  Buffer size: 11059200
  Buffer per thread: 2
  We computed 5935284 shell quartets total.
  Whereas there are 7328706 unique shell quartets.

  ==> DiskJK: Disk-Based J/K Matrices <==

    J tasked:                  Yes
    K tasked:                  Yes
    wK tasked:                  No
    Memory [MiB]:              375
    Schwarz Cutoff:          1E-12

    OpenMP threads:              1

  Minimum eigenvalue in the overlap matrix is 3.8851791488E-03.
  Using Symmetric Orthogonalization.

  SCF Guess: Superposition of Atomic Densities via on-the-fly atomic UHF.

  ==> Iterations <==

                        Total Energy        Delta E     RMS |[F,P]|

   @RHF iter SAD:  -469.62670718330071   -4.69627e+02   0.00000e+00
   @RHF iter   1:  -470.73446727811597   -1.10776e+00   4.15897e-03 DIIS
   @RHF iter   2:  -470.95163633152464   -2.17169e-01   2.14377e-03 DIIS
   @RHF iter   3:  -471.00665054671532   -5.50142e-02   3.85825e-04 DIIS
   @RHF iter   4:  -471.00975466043525   -3.10411e-03   1.26934e-04 DIIS
   @RHF iter   5:  -471.01009527935844   -3.40619e-04   2.33372e-05 DIIS
   @RHF iter   6:  -471.01011209520169   -1.68158e-05   7.43620e-06 DIIS
   @RHF iter   7:  -471.01011347431159   -1.37911e-06   1.96232e-06 DIIS
   @RHF iter   8:  -471.01011362921003   -1.54898e-07   6.24579e-07 DIIS
   @RHF iter   9:  -471.01011364136684   -1.21568e-08   1.79446e-07 DIIS
   @RHF iter  10:  -471.01011364235455   -9.87711e-10   8.83894e-08 DIIS
   @RHF iter  11:  -471.01011364256539   -2.10832e-10   2.44531e-08 DIIS
   @RHF iter  12:  -471.01011364260069   -3.52998e-11   1.33921e-08 DIIS
   @RHF iter  13:  -471.01011364260376   -3.06954e-12   4.23230e-09 DIIS
   @RHF iter  14:  -471.01011364260671   -2.95586e-12   1.29357e-09 DIIS
   @RHF iter  15:  -471.01011364260813   -1.42109e-12   4.31772e-10 DIIS
   @RHF iter  16:  -471.01011364260751    6.25278e-13   1.37117e-10 DIIS
   @RHF iter  17:  -471.01011364260745    5.68434e-14   6.14889e-11 DIIS
  Energy and wave function converged.

  ==> Post-Iterations <==

    Orbital Energies [Eh]
    ---------------------

    Doubly Occupied:

       1A    -20.431168     2A    -20.429937     3A    -15.645930
       4A    -15.607825     5A    -15.602752     6A    -11.425279
       7A    -11.302729     8A    -11.278593     9A    -11.175147
      10A     -1.376422    11A     -1.320623    12A     -1.234150
      13A     -1.220430    14A     -1.204842    15A     -0.987055
      16A     -0.923435    17A     -0.873632    18A     -0.814987
      19A     -0.774087    20A     -0.701379    21A     -0.693006
      22A     -0.661331    23A     -0.648136    24A     -0.627323
      25A     -0.596339    26A     -0.578194    27A     -0.561966
      28A     -0.550652    29A     -0.541421    30A     -0.485594
      31A     -0.463397    32A     -0.456428    33A     -0.413782
      34A     -0.348007    35A     -0.342110    36A     -0.335286

    Virtual:

      37A      0.125602    38A      0.157554    39A      0.179831
      40A      0.209373    41A      0.216592    42A      0.243957
      43A      0.249327    44A      0.259092    45A      0.274867
      46A      0.301315    47A      0.309299    48A      0.345275
      49A      0.355449    50A      0.415524    51A      0.431661
      52A      0.447944    53A      0.484441    54A      0.498048
      55A      0.581508    56A      0.595710    57A      0.601725
      58A      0.609225    59A      0.659801    60A      0.675920
      61A      0.678587    62A      0.695213    63A      0.696265
      64A      0.711622    65A      0.732999    66A      0.775376
      67A      0.800820    68A      0.813225    69A      0.830328
      70A      0.831646    71A      0.844899    72A      0.854541
      73A      0.892996    74A      0.907628    75A      0.911233
      76A      0.920102    77A      0.923943    78A      0.947739
      79A      0.959006    80A      0.965423    81A      0.990332
      82A      1.000000    83A      1.050195    84A      1.078742
      85A      1.091195    86A      1.110527    87A      1.131434
      88A      1.142726    89A      1.197046    90A      1.212143
      91A      1.246062    92A      1.270827    93A      1.293524
      94A      1.313666    95A      1.330077    96A      1.344065
      97A      1.365812    98A      1.394923    99A      1.402902
     100A      1.419557   101A      1.453219   102A      1.480308
     103A      1.492639   104A      1.549707   105A      1.573513
     106A      1.589034   107A      1.617668   108A      1.648834
     109A      1.665236   110A      1.686269   111A      1.696151
     112A      1.703166   113A      1.730786   114A      1.748504
     115A      1.804942   116A      1.819341   117A      1.853798
     118A      1.879078   119A      1.889570   120A      1.896050
     121A      1.922243   122A      1.924308   123A      1.936436
     124A      1.950752   125A      1.954135   126A      1.980080
     127A      1.984283   128A      2.006906   129A      2.018771
     130A      2.066509   131A      2.081988   132A      2.117955
     133A      2.150920   134A      2.163379   135A      2.222562
     136A      2.251152   137A      2.263106   138A      2.283200
     139A      2.300022   140A      2.327608   141A      2.347262
     142A      2.392472   143A      2.408581   144A      2.443116
     145A      2.470568   146A      2.480884   147A      2.500879
     148A      2.546325   149A      2.550945   150A      2.585754
     151A      2.611295   152A      2.621409   153A      2.658210
     154A      2.705636   155A      2.730677   156A      2.747770
     157A      2.784128   158A      2.792372   159A      2.856098
     160A      2.863981   161A      2.874442   162A      2.903991
     163A      2.943974   164A      2.959994   165A      2.966341
     166A      3.039914   167A      3.075849   168A      3.124637
     169A      3.146703   170A      3.183434   171A      3.258389
     172A      3.298191   173A      3.398248   174A      3.472073
     175A      3.617581   176A      3.666486   177A      3.739774
     178A      3.788055   179A      3.910354   180A      3.931859
     181A      4.067693

    Final Occupation by Irrep:
              A
    DOCC [    36 ]

  @RHF Final Energy:  -471.01011364260745

   => Energetics <=

    Nuclear Repulsion Energy =            463.8532735878980020
    One-Electron Energy =               -1564.4600219068390743
    Two-Electron Energy =                 629.5966346763336787
    Total Energy =                       -471.0101136426073936

Computation Completed

Properties will be evaluated at   0.000000,   0.000000,   0.000000 [a0]

Properties computed using the SCF density matrix

  Nuclear Dipole Moment: [e a0]
     X:     0.6374      Y:    -4.1913      Z:    -0.5313

  Electronic Dipole Moment: [e a0]
     X:     0.0868      Y:     1.2242      Z:     3.7429

  Dipole Moment: [e a0]
     X:     0.7242      Y:    -2.9672      Z:     3.2116     Total:     4.4320

  Dipole Moment: [D]
     X:     1.8406      Y:    -7.5418      Z:     8.1630     Total:    11.2650

*** tstop() called on ds3 at Tue Apr 28 19:58:14 2020
Module time:
	user time   =      47.07 seconds =       0.78 minutes
	system time =      22.34 seconds =       0.37 minutes
	total time  =         67 seconds =       1.12 minutes
Total time:
	user time   =      47.07 seconds =       0.78 minutes
	system time =      22.34 seconds =       0.37 minutes
	total time  =         67 seconds =       1.12 minutes
                                     G D M A

                                 by Anthony Stone

                           version 2.2.06, 22 June 2011

               Distributed Multipoles from Gaussian wavefunctions

Starting at 19:58:14 on 28 Apr 2020

Using SCF density matrix from file ./SSI/SSI-054GLU-058ARG-1-dimer.test.22503.fchk

                         Distributed Multipole Analysis

Standard DMA

Positions and radii in angstrom
Multipole moments in atomic units, ea_0^k for rank k

C          x = -0.951578  y =  2.377010  z = -2.734952 angstrom
           Maximum rank =  0   Radius =  0.650 angstrom
                   Q00  =  -0.255235

C          x = -0.490578  y =  1.563010  z = -1.518952 angstrom
           Maximum rank =  0   Radius =  0.650 angstrom
                   Q00  =   0.865859

O          x = -0.909578  y =  1.883010  z = -0.390952 angstrom
           Maximum rank =  0   Radius =  0.650 angstrom
                   Q00  =  -0.913021

O          x =  0.319422  y =  0.620010  z = -1.703952 angstrom
           Maximum rank =  0   Radius =  0.650 angstrom
                   Q00  =  -0.936768

H          x = -0.959578  y =  1.741010  z = -3.619952 angstrom
           Maximum rank =  0   Radius =  0.325 angstrom
                   Q00  =   0.083551

H          x = -0.214578  y =  3.164010  z = -2.907952 angstrom
           Maximum rank =  0   Radius =  0.325 angstrom
                   Q00  =   0.107553

H          x = -1.935548  y =  2.858810  z = -2.636625 angstrom
           Maximum rank =  0   Radius =  0.325 angstrom
                   Q00  =   0.084825

C          x =  0.869422  y = -2.626990  z = -0.159952 angstrom
           Maximum rank =  0   Radius =  0.650 angstrom
                   Q00  =  -0.105014

C          x =  0.308422  y = -0.943990  z =  1.614048 angstrom
           Maximum rank =  0   Radius =  0.650 angstrom
                   Q00  =   1.056274

N          x = -0.148578  y =  0.271010  z =  1.920048 angstrom
           Maximum rank =  0   Radius =  0.650 angstrom
                   Q00  =  -0.613819

N          x =  0.517422  y = -1.276990  z =  0.344048 angstrom
           Maximum rank =  0   Radius =  0.650 angstrom
                   Q00  =  -0.527536

N          x =  0.482422  y = -1.845990  z =  2.567048 angstrom
           Maximum rank =  0   Radius =  0.650 angstrom
                   Q00  =  -0.582833

H          x = -0.346578  y =  0.919010  z =  1.152048 angstrom
           Maximum rank =  0   Radius =  0.325 angstrom
                   Q00  =   0.343601

H          x = -0.288578  y =  0.555010  z =  2.878048 angstrom
           Maximum rank =  0   Radius =  0.325 angstrom
                   Q00  =   0.224464

H          x =  0.390422  y = -0.538990  z = -0.355952 angstrom
           Maximum rank =  0   Radius =  0.325 angstrom
                   Q00  =   0.341932

H          x =  0.881422  y = -2.744990  z =  2.356048 angstrom
           Maximum rank =  0   Radius =  0.325 angstrom
                   Q00  =   0.249924

H          x =  0.242422  y = -1.573990  z =  3.516048 angstrom
           Maximum rank =  0   Radius =  0.325 angstrom
                   Q00  =   0.235823

H          x =  1.626422  y = -3.089990  z =  0.477048 angstrom
           Maximum rank =  0   Radius =  0.325 angstrom
                   Q00  =   0.076015

H          x =  1.300422  y = -2.500990  z = -1.155952 angstrom
           Maximum rank =  0   Radius =  0.325 angstrom
                   Q00  =   0.161456

H          x = -0.010718  y = -3.281450  z = -0.243875 angstrom
           Maximum rank =  0   Radius =  0.325 angstrom
                   Q00  =   0.102952

Total multipoles referred to origin at
           x =   0.000000,  y =    0.000000,  z =    0.000000 angstrom
                   Q00  =  -0.000000

Finished at 19:58:14 on 28 Apr 2020

  DMA results are available in the Python driver through the
	  variable('DMA DISTRIBUTED MULTIPOLES')
  and
	  variable('DMA TOTAL MULTIPOLES')
  commands.

    Psi4 stopped on: Tuesday, 28 April 2020 07:58PM
    Psi4 wall time for execution: 0:01:07.29

*** Psi4 exiting successfully. Buy a developer a beer!
