                               Psi4 1.3.2 release

  ==> Input File <==

--------------------------------------------------------------------------
import numpy as np
set {scf_type pk
basis cc-pvdz
d_convergence 10
gdma_switch   0
gdma_limit    0
gdma_origin   [ 0.0,  0.0,  0.0 ]
}
molecule test {
    units Angstrom
    0 1
    --
    0 1
    C               -1.181521597497364     0.022057636089911    -1.686556047202477
    C               -2.153521597497364    -1.102942363910089    -1.458556047202477
    H               -0.499521597497364     0.098057636089911    -0.847556047202477
    H               -0.609521597497364    -0.167942363910089    -2.594556047202477
    H               -1.726521597497364     0.959057636089911    -1.795556047202477
    H               -1.627521597497364    -2.048942363910089    -1.483556047202478
    H               -2.807521597497364    -1.079942363910089    -2.329556047202477
    H               -2.766361597497364    -1.069449363910089    -0.545706047202477
    C                1.582478402502636     0.852057636089911     0.891443952797523
    C                1.759478402502636     0.233057636089911     2.265443952797523
    H                2.472478402502636     1.422057636089911     0.621443952797523
    H                1.441478402502636     0.084057636089911     0.136443952797523
    H                0.715478402502636     1.511057636089911     0.868443952797523
    H                0.795478402502636    -0.180942363910089     2.562443952797523
    H                2.032238402502636     1.005171636089911     2.999913952797522
    H                2.497498402502636    -0.582613363910089     2.267583952797523

}
e, wfn = energy('scf', return_wfn=True)
gdma(wfn)
dmavals = variable('DMA DISTRIBUTED MULTIPOLES')
charges = np.array(dmavals)
print(charges)
np.save('SSI-061ILE-091ILE-1-dimer.npy', np.array(charges))--------------------------------------------------------------------------

*** tstart() called on ds3
*** at Mon Apr 27 18:38:42 2020

   => Loading Basis Set <=

    Name: CC-PVDZ
    Role: ORBITAL
    Keyword: BASIS
    atoms 1-2, 9-10  entry C          line   138 file /theoryfs2/ds/metcalf/miniconda2/envs/tf2gpu/share/psi4/basis/cc-pvdz.gbs
    atoms 3-8, 11-16 entry H          line    22 file /theoryfs2/ds/metcalf/miniconda2/envs/tf2gpu/share/psi4/basis/cc-pvdz.gbs

         ---------------------------------------------------------
                                   SCF
               by Justin Turney, Rob Parrish, Andy Simmonett
                          and Daniel G. A. Smith
                              RHF Reference
                        1 Threads,    500 MiB Core
         ---------------------------------------------------------

  ==> Geometry <==

    Molecular point group: c1
    Full point group: C1

    Geometry (in Angstrom), charge = 0, multiplicity = 1:

       Center              X                  Y                   Z               Mass
    ------------   -----------------  -----------------  -----------------  -----------------
         C           -1.181521597497     0.022057636090    -1.686556047202    12.000000000000
         C           -2.153521597497    -1.102942363910    -1.458556047202    12.000000000000
         H           -0.499521597497     0.098057636090    -0.847556047202     1.007825032230
         H           -0.609521597497    -0.167942363910    -2.594556047202     1.007825032230
         H           -1.726521597497     0.959057636090    -1.795556047202     1.007825032230
         H           -1.627521597497    -2.048942363910    -1.483556047202     1.007825032230
         H           -2.807521597497    -1.079942363910    -2.329556047202     1.007825032230
         H           -2.766361597497    -1.069449363910    -0.545706047202     1.007825032230
         C            1.582478402503     0.852057636090     0.891443952798    12.000000000000
         C            1.759478402503     0.233057636090     2.265443952798    12.000000000000
         H            2.472478402503     1.422057636090     0.621443952798     1.007825032230
         H            1.441478402503     0.084057636090     0.136443952798     1.007825032230
         H            0.715478402503     1.511057636090     0.868443952798     1.007825032230
         H            0.795478402503    -0.180942363910     2.562443952798     1.007825032230
         H            2.032238402503     1.005171636090     2.999913952798     1.007825032230
         H            2.497498402503    -0.582613363910     2.267583952798     1.007825032230

  Running in c1 symmetry.

  Rotational constants: A =      0.44658  B =      0.04697  C =      0.04392 [cm^-1]
  Rotational constants: A =  13388.24817  B =   1408.19329  C =   1316.77422 [MHz]
  Nuclear repulsion =  121.453907222792708

  Charge       = 0
  Multiplicity = 1
  Electrons    = 36
  Nalpha       = 18
  Nbeta        = 18

  ==> Algorithm <==

  SCF Algorithm Type is PK.
  DIIS enabled.
  MOM disabled.
  Fractional occupation disabled.
  Guess Type is SAD.
  Energy threshold   = 1.00e-06
  Density threshold  = 1.00e-10
  Integral threshold = 0.00e+00

  ==> Primary Basis <==

  Basis Set: CC-PVDZ
    Blend: CC-PVDZ
    Number of shells: 60
    Number of basis function: 116
    Number of Cartesian functions: 120
    Spherical Harmonics?: true
    Max angular momentum: 2

  ==> Pre-Iterations <==

   -------------------------------------------------------
    Irrep   Nso     Nmo     Nalpha   Nbeta   Ndocc  Nsocc
   -------------------------------------------------------
     A        116     116       0       0       0       0
   -------------------------------------------------------
    Total     116     116      18      18      18       0
   -------------------------------------------------------

  ==> Integral Setup <==

  Using integral reordering PK algorithm.
  Sizing the integral batches needed.
  Building batch lookup table.
   Calculation information:
      Number of atoms:                  16
      Number of AO shells:              60
      Number of primitives:            148
      Number of atomic orbitals:       120
      Number of basis functions:       116

      Integral cutoff                 1.00e-12
      Number of threads:                 1

	Batch   1 pq = [       0,    6786] index = [             0,23028291] size =     23028291
  Task number: 3
  Buffer size: 11059200
  Buffer per thread: 2
  We computed 1385136 shell quartets total.
  Whereas there are 1675365 unique shell quartets.

  ==> DiskJK: Disk-Based J/K Matrices <==

    J tasked:                  Yes
    K tasked:                  Yes
    wK tasked:                  No
    Memory [MiB]:              375
    Schwarz Cutoff:          1E-12

    OpenMP threads:              1

  Minimum eigenvalue in the overlap matrix is 6.8840199280E-03.
  Using Symmetric Orthogonalization.

  SCF Guess: Superposition of Atomic Densities via on-the-fly atomic UHF.

  ==> Iterations <==

                        Total Energy        Delta E     RMS |[F,P]|

   @RHF iter SAD:  -157.42782172788753   -1.57428e+02   0.00000e+00
   @RHF iter   1:  -158.30087276328990   -8.73051e-01   4.27323e-03 DIIS
   @RHF iter   2:  -158.43673607730449   -1.35863e-01   1.83271e-03 DIIS
   @RHF iter   3:  -158.46099108570962   -2.42550e-02   3.53264e-04 DIIS
   @RHF iter   4:  -158.46285799829411   -1.86691e-03   3.96752e-05 DIIS
   @RHF iter   5:  -158.46288272217561   -2.47239e-05   6.96955e-06 DIIS
   @RHF iter   6:  -158.46288341228438   -6.90109e-07   1.37832e-06 DIIS
   @RHF iter   7:  -158.46288343011864   -1.78343e-08   3.26176e-07 DIIS
   @RHF iter   8:  -158.46288343125596   -1.13732e-09   4.89679e-08 DIIS
   @RHF iter   9:  -158.46288343130297   -4.70095e-11   8.36285e-09 DIIS
   @RHF iter  10:  -158.46288343130419   -1.22213e-12   1.90452e-09 DIIS
   @RHF iter  11:  -158.46288343130462   -4.26326e-13   5.22986e-10 DIIS
   @RHF iter  12:  -158.46288343130473   -1.13687e-13   9.48281e-11 DIIS
  Energy and wave function converged.

  ==> Post-Iterations <==

    Orbital Energies [Eh]
    ---------------------

    Doubly Occupied:

       1A    -11.219088     2A    -11.215743     3A    -11.214314
       4A    -11.213118     5A     -1.025289     6A     -1.021052
       7A     -0.839755     8A     -0.833964     9A     -0.606946
      10A     -0.600345    11A     -0.598703    12A     -0.594202
      13A     -0.510554    14A     -0.507214    15A     -0.488842
      16A     -0.484497    17A     -0.482717    18A     -0.471028

    Virtual:

      19A      0.174077    20A      0.199693    21A      0.228837
      22A      0.237450    23A      0.249722    24A      0.252749
      25A      0.259539    26A      0.276619    27A      0.282998
      28A      0.286578    29A      0.299374    30A      0.347312
      31A      0.388213    32A      0.412038    33A      0.577805
      34A      0.591971    35A      0.601700    36A      0.606185
      37A      0.614534    38A      0.624923    39A      0.659969
      40A      0.693528    41A      0.710590    42A      0.794218
      43A      0.845397    44A      0.865707    45A      0.883637
      46A      0.888385    47A      0.890839    48A      0.895676
      49A      0.900142    50A      0.902957    51A      0.917110
      52A      0.920296    53A      0.929860    54A      0.948445
      55A      0.973490    56A      1.009969    57A      1.118102
      58A      1.128721    59A      1.146460    60A      1.171158
      61A      1.230857    62A      1.308388    63A      1.456932
      64A      1.470504    65A      1.488407    66A      1.502714
      67A      1.567752    68A      1.604275    69A      1.680745
      70A      1.686381    71A      1.696141    72A      1.711593
      73A      1.859351    74A      1.861248    75A      1.871241
      76A      1.880662    77A      1.890324    78A      1.901976
      79A      1.928578    80A      1.943730    81A      1.946487
      82A      1.948338    83A      1.957101    84A      1.961837
      85A      1.972445    86A      1.976704    87A      2.002573
      88A      2.032593    89A      2.083314    90A      2.090164
      91A      2.133901    92A      2.154504    93A      2.302052
      94A      2.311168    95A      2.326413    96A      2.329276
      97A      2.439407    98A      2.460751    99A      2.479346
     100A      2.489272   101A      2.546055   102A      2.554929
     103A      2.592537   104A      2.606908   105A      2.758056
     106A      2.775525   107A      2.784395   108A      2.801309
     109A      2.849951   110A      2.865138   111A      2.873110
     112A      2.885220   113A      2.942847   114A      2.960089
     115A      2.967610   116A      3.015311

    Final Occupation by Irrep:
              A
    DOCC [    18 ]

  @RHF Final Energy:  -158.46288343130473

   => Energetics <=

    Nuclear Repulsion Energy =            121.4539072227927079
    One-Electron Energy =                -451.9788401789917884
    Two-Electron Energy =                 172.0620495248943769
    Total Energy =                       -158.4628834313047321

Computation Completed

Properties will be evaluated at   0.000000,   0.000000,   0.000000 [a0]

Properties computed using the SCF density matrix

  Nuclear Dipole Moment: [e a0]
     X:    -0.0772      Y:    -0.0472      Z:    -0.1314

  Electronic Dipole Moment: [e a0]
     X:     0.0923      Y:     0.0490      Z:     0.1256

  Dipole Moment: [e a0]
     X:     0.0151      Y:     0.0018      Z:    -0.0059     Total:     0.0163

  Dipole Moment: [D]
     X:     0.0384      Y:     0.0046      Z:    -0.0149     Total:     0.0415

*** tstop() called on ds3 at Mon Apr 27 18:38:51 2020
Module time:
	user time   =       7.34 seconds =       0.12 minutes
	system time =       2.68 seconds =       0.04 minutes
	total time  =          9 seconds =       0.15 minutes
Total time:
	user time   =       7.34 seconds =       0.12 minutes
	system time =       2.68 seconds =       0.04 minutes
	total time  =          9 seconds =       0.15 minutes
                                     G D M A

                                 by Anthony Stone

                           version 2.2.06, 22 June 2011

               Distributed Multipoles from Gaussian wavefunctions

Starting at 18:38:52 on 27 Apr 2020

Using SCF density matrix from file ./SSI/SSI-061ILE-091ILE-1-dimer.test.26997.fchk

                         Distributed Multipole Analysis

Standard DMA

Positions and radii in angstrom
Multipole moments in atomic units, ea_0^k for rank k

C          x = -1.181522  y =  0.022058  z = -1.686556 angstrom
           Maximum rank =  0   Radius =  0.650 angstrom
                   Q00  =  -0.228469

C          x = -2.153522  y = -1.102942  z = -1.458556 angstrom
           Maximum rank =  0   Radius =  0.650 angstrom
                   Q00  =  -0.236553

H          x = -0.499522  y =  0.098058  z = -0.847556 angstrom
           Maximum rank =  0   Radius =  0.325 angstrom
                   Q00  =   0.086405

H          x = -0.609522  y = -0.167942  z = -2.594556 angstrom
           Maximum rank =  0   Radius =  0.325 angstrom
                   Q00  =   0.078657

H          x = -1.726522  y =  0.959058  z = -1.795556 angstrom
           Maximum rank =  0   Radius =  0.325 angstrom
                   Q00  =   0.074937

H          x = -1.627522  y = -2.048942  z = -1.483556 angstrom
           Maximum rank =  0   Radius =  0.325 angstrom
                   Q00  =   0.075296

H          x = -2.807522  y = -1.079942  z = -2.329556 angstrom
           Maximum rank =  0   Radius =  0.325 angstrom
                   Q00  =   0.068821

H          x = -2.766362  y = -1.069449  z = -0.545706 angstrom
           Maximum rank =  0   Radius =  0.325 angstrom
                   Q00  =   0.081333

C          x =  1.582478  y =  0.852058  z =  0.891444 angstrom
           Maximum rank =  0   Radius =  0.650 angstrom
                   Q00  =  -0.243009

C          x =  1.759478  y =  0.233058  z =  2.265444 angstrom
           Maximum rank =  0   Radius =  0.650 angstrom
                   Q00  =  -0.225320

H          x =  2.472478  y =  1.422058  z =  0.621444 angstrom
           Maximum rank =  0   Radius =  0.325 angstrom
                   Q00  =   0.076659

H          x =  1.441478  y =  0.084058  z =  0.136444 angstrom
           Maximum rank =  0   Radius =  0.325 angstrom
                   Q00  =   0.079212

H          x =  0.715478  y =  1.511058  z =  0.868444 angstrom
           Maximum rank =  0   Radius =  0.325 angstrom
                   Q00  =   0.079132

H          x =  0.795478  y = -0.180942  z =  2.562444 angstrom
           Maximum rank =  0   Radius =  0.325 angstrom
                   Q00  =   0.073750

H          x =  2.032238  y =  1.005172  z =  2.999914 angstrom
           Maximum rank =  0   Radius =  0.325 angstrom
                   Q00  =   0.078285

H          x =  2.497498  y = -0.582613  z =  2.267584 angstrom
           Maximum rank =  0   Radius =  0.325 angstrom
                   Q00  =   0.080865

Total multipoles referred to origin at
           x =   0.000000,  y =    0.000000,  z =    0.000000 angstrom
                   Q00  =  -0.000000

Finished at 18:38:52 on 27 Apr 2020

  DMA results are available in the Python driver through the
	  variable('DMA DISTRIBUTED MULTIPOLES')
  and
	  variable('DMA TOTAL MULTIPOLES')
  commands.

    Psi4 stopped on: Monday, 27 April 2020 06:38PM
    Psi4 wall time for execution: 0:00:09.86

*** Psi4 exiting successfully. Buy a developer a beer!
