                               Psi4 1.3.2 release

  ==> Input File <==

--------------------------------------------------------------------------
import numpy as np
set {scf_type pk
basis cc-pvdz
d_convergence 10
gdma_switch   0
gdma_limit    0
gdma_origin   [ 0.0,  0.0,  0.0 ]
}
molecule test {
    units Angstrom
    -1 1
    --
    -1 1
    C                1.639994773338862     2.055386069374654    -0.119060441283551
    C                0.713994773338862     0.962386069374654     0.398939558716449
    O               -0.410005226661138     0.870386069374654    -0.198060441283551
    O                1.023994773338862     0.257386069374654     1.370939558716449
    H                1.101994773338862     3.005386069374655    -0.132060441283551
    H                1.907994773338862     1.826386069374654    -1.151060441283551
    H                2.568164773338862     2.177586069374654     0.458499558716449
    C               -1.232005226661138    -2.565613930625346    -0.379060441283551
    O               -1.523005226661138    -1.325613930625346    -0.972060441283551
    H               -1.025005226661138    -0.589613930625346    -0.536060441283551
    H               -1.633005226661138    -3.373613930625345    -0.993060441283551
    H               -1.707005226661138    -2.603613930625345     0.602939558716449
    H               -0.145675226661138    -2.686393930625345    -0.255400441283551

}
e, wfn = energy('scf', return_wfn=True)
gdma(wfn)
dmavals = variable('DMA DISTRIBUTED MULTIPOLES')
charges = np.array(dmavals)
print(charges)
np.save('SSI-240ASP-270SER-1-dimer.npy', np.array(charges))--------------------------------------------------------------------------

*** tstart() called on ds3
*** at Tue Apr 28 09:50:39 2020

   => Loading Basis Set <=

    Name: CC-PVDZ
    Role: ORBITAL
    Keyword: BASIS
    atoms 1-2, 8     entry C          line   138 file /theoryfs2/ds/metcalf/miniconda2/envs/tf2gpu/share/psi4/basis/cc-pvdz.gbs
    atoms 3-4, 9     entry O          line   198 file /theoryfs2/ds/metcalf/miniconda2/envs/tf2gpu/share/psi4/basis/cc-pvdz.gbs
    atoms 5-7, 10-13 entry H          line    22 file /theoryfs2/ds/metcalf/miniconda2/envs/tf2gpu/share/psi4/basis/cc-pvdz.gbs

         ---------------------------------------------------------
                                   SCF
               by Justin Turney, Rob Parrish, Andy Simmonett
                          and Daniel G. A. Smith
                              RHF Reference
                        1 Threads,    500 MiB Core
         ---------------------------------------------------------

  ==> Geometry <==

    Molecular point group: c1
    Full point group: C1

    Geometry (in Angstrom), charge = -1, multiplicity = 1:

       Center              X                  Y                   Z               Mass
    ------------   -----------------  -----------------  -----------------  -----------------
         C            1.639994773339     2.055386069375    -0.119060441284    12.000000000000
         C            0.713994773339     0.962386069375     0.398939558716    12.000000000000
         O           -0.410005226661     0.870386069375    -0.198060441284    15.994914619570
         O            1.023994773339     0.257386069375     1.370939558716    15.994914619570
         H            1.101994773339     3.005386069375    -0.132060441284     1.007825032230
         H            1.907994773339     1.826386069375    -1.151060441284     1.007825032230
         H            2.568164773339     2.177586069375     0.458499558716     1.007825032230
         C           -1.232005226661    -2.565613930625    -0.379060441284    12.000000000000
         O           -1.523005226661    -1.325613930625    -0.972060441284    15.994914619570
         H           -1.025005226661    -0.589613930625    -0.536060441284     1.007825032230
         H           -1.633005226661    -3.373613930625    -0.993060441284     1.007825032230
         H           -1.707005226661    -2.603613930625     0.602939558716     1.007825032230
         H           -0.145675226661    -2.686393930625    -0.255400441284     1.007825032230

  Running in c1 symmetry.

  Rotational constants: A =      0.24438  B =      0.04770  C =      0.04249 [cm^-1]
  Rotational constants: A =   7326.28723  B =   1429.96457  C =   1273.95442 [MHz]
  Nuclear repulsion =  230.590880255278336

  Charge       = -1
  Multiplicity = 1
  Electrons    = 50
  Nalpha       = 25
  Nbeta        = 25

  ==> Algorithm <==

  SCF Algorithm Type is PK.
  DIIS enabled.
  MOM disabled.
  Fractional occupation disabled.
  Guess Type is SAD.
  Energy threshold   = 1.00e-06
  Density threshold  = 1.00e-10
  Integral threshold = 0.00e+00

  ==> Primary Basis <==

  Basis Set: CC-PVDZ
    Blend: CC-PVDZ
    Number of shells: 57
    Number of basis function: 119
    Number of Cartesian functions: 125
    Spherical Harmonics?: true
    Max angular momentum: 2

  ==> Pre-Iterations <==

   -------------------------------------------------------
    Irrep   Nso     Nmo     Nalpha   Nbeta   Ndocc  Nsocc
   -------------------------------------------------------
     A        119     119       0       0       0       0
   -------------------------------------------------------
    Total     119     119      25      25      25       0
   -------------------------------------------------------

  ==> Integral Setup <==

  Using integral reordering PK algorithm.
  Sizing the integral batches needed.
  Building batch lookup table.
   Calculation information:
      Number of atoms:                  13
      Number of AO shells:              57
      Number of primitives:            167
      Number of atomic orbitals:       125
      Number of basis functions:       119

      Integral cutoff                 1.00e-12
      Number of threads:                 1

	Batch   1 pq = [       0,    7140] index = [             0,25493370] size =     25493370
  Task number: 3
  Buffer size: 11059200
  Buffer per thread: 2
  We computed 1123209 shell quartets total.
  Whereas there are 1367031 unique shell quartets.

  ==> DiskJK: Disk-Based J/K Matrices <==

    J tasked:                  Yes
    K tasked:                  Yes
    wK tasked:                  No
    Memory [MiB]:              375
    Schwarz Cutoff:          1E-12

    OpenMP threads:              1

  Minimum eigenvalue in the overlap matrix is 5.4892973581E-03.
  Using Symmetric Orthogonalization.

  SCF Guess: Superposition of Atomic Densities via on-the-fly atomic UHF.

  ==> Iterations <==

                        Total Energy        Delta E     RMS |[F,P]|

   @RHF iter SAD:  -340.66454719937656   -3.40665e+02   0.00000e+00
   @RHF iter   1:  -342.07999745828869   -1.41545e+00   5.98152e-03 DIIS
   @RHF iter   2:  -342.25199644320480   -1.71999e-01   3.44297e-03 DIIS
   @RHF iter   3:  -342.31034653248037   -5.83501e-02   4.74564e-04 DIIS
   @RHF iter   4:  -342.31247897393496   -2.13244e-03   1.72011e-04 DIIS
   @RHF iter   5:  -342.31277422640437   -2.95252e-04   3.60761e-05 DIIS
   @RHF iter   6:  -342.31278760849443   -1.33821e-05   1.61108e-05 DIIS
   @RHF iter   7:  -342.31278978927116   -2.18078e-06   4.05948e-06 DIIS
   @RHF iter   8:  -342.31279013327315   -3.44002e-07   2.15054e-06 DIIS
   @RHF iter   9:  -342.31279019862990   -6.53567e-08   8.59204e-07 DIIS
   @RHF iter  10:  -342.31279021548107   -1.68512e-08   2.43900e-07 DIIS
   @RHF iter  11:  -342.31279021683468   -1.35361e-09   5.57516e-08 DIIS
   @RHF iter  12:  -342.31279021688806   -5.33760e-11   1.76766e-08 DIIS
   @RHF iter  13:  -342.31279021689278   -4.71800e-12   4.58011e-09 DIIS
   @RHF iter  14:  -342.31279021689454   -1.76215e-12   1.44213e-09 DIIS
   @RHF iter  15:  -342.31279021689443    1.13687e-13   5.70232e-10 DIIS
   @RHF iter  16:  -342.31279021689494   -5.11591e-13   2.03453e-10 DIIS
   @RHF iter  17:  -342.31279021689443    5.11591e-13   7.98550e-11 DIIS
  Energy and wave function converged.

  ==> Post-Iterations <==

    Orbital Energies [Eh]
    ---------------------

    Doubly Occupied:

       1A    -20.340588     2A    -20.289488     3A    -20.283072
       4A    -11.142877     5A    -11.114496     6A    -11.066485
       7A     -1.174826     8A     -1.150057     9A     -1.060616
      10A     -0.812911    11A     -0.752410    12A     -0.536711
      13A     -0.493045    14A     -0.447278    15A     -0.432360
      16A     -0.427153    17A     -0.425279    18A     -0.411385
      19A     -0.361864    20A     -0.327223    21A     -0.307048
      22A     -0.251579    23A     -0.207798    24A     -0.198676
      25A     -0.188508

    Virtual:

      26A      0.336925    27A      0.345299    28A      0.382197
      29A      0.401221    30A      0.402979    31A      0.415095
      32A      0.462192    33A      0.480584    34A      0.558066
      35A      0.600197    36A      0.677854    37A      0.752444
      38A      0.788024    39A      0.802152    40A      0.811433
      41A      0.865266    42A      0.904211    43A      0.933257
      44A      0.949952    45A      0.970893    46A      1.016992
      47A      1.021692    48A      1.022531    49A      1.037676
      50A      1.055143    51A      1.068185    52A      1.078727
      53A      1.116769    54A      1.199802    55A      1.287370
      56A      1.313370    57A      1.320283    58A      1.329780
      59A      1.333073    60A      1.430937    61A      1.480865
      62A      1.536310    63A      1.542947    64A      1.549778
      65A      1.588247    66A      1.596502    67A      1.645357
      68A      1.682010    69A      1.720018    70A      1.818049
      71A      1.822072    72A      1.834437    73A      1.855743
      74A      1.880481    75A      1.922694    76A      2.015307
      77A      2.022419    78A      2.065760    79A      2.068016
      80A      2.083334    81A      2.091553    82A      2.120067
      83A      2.127641    84A      2.202024    85A      2.252287
      86A      2.260180    87A      2.292654    88A      2.333214
      89A      2.387924    90A      2.423470    91A      2.501301
      92A      2.521935    93A      2.538441    94A      2.592958
      95A      2.623824    96A      2.693651    97A      2.742924
      98A      2.820452    99A      2.898156   100A      2.901145
     101A      2.930033   102A      2.937334   103A      2.952700
     104A      2.986190   105A      3.233855   106A      3.248174
     107A      3.325031   108A      3.465199   109A      3.495688
     110A      3.590281   111A      3.609185   112A      3.640383
     113A      3.755056   114A      3.795335   115A      3.853052
     116A      4.037070   117A      4.059473   118A      4.162368
     119A      4.384085

    Final Occupation by Irrep:
              A
    DOCC [    25 ]

  @RHF Final Energy:  -342.31279021689443

   => Energetics <=

    Nuclear Repulsion Energy =            230.5908802552783357
    One-Electron Energy =                -937.3998743944198395
    Two-Electron Energy =                 364.4962039222471049
    Total Energy =                       -342.3127902168944274

Computation Completed

Properties will be evaluated at   0.000000,   0.000000,   0.000000 [a0]

Properties computed using the SCF density matrix

  Nuclear Dipole Moment: [e a0]
     X:     0.9963      Y:    -2.1045      Z:    -1.8798

  Electronic Dipole Moment: [e a0]
     X:    -0.4772      Y:     1.9001      Z:     1.4766

  Dipole Moment: [e a0]
     X:     0.5192      Y:    -0.2045      Z:    -0.4032     Total:     0.6884

  Dipole Moment: [D]
     X:     1.3197      Y:    -0.5197      Z:    -1.0248     Total:     1.7498

*** tstop() called on ds3 at Tue Apr 28 09:50:53 2020
Module time:
	user time   =       9.45 seconds =       0.16 minutes
	system time =       4.53 seconds =       0.08 minutes
	total time  =         14 seconds =       0.23 minutes
Total time:
	user time   =       9.45 seconds =       0.16 minutes
	system time =       4.53 seconds =       0.08 minutes
	total time  =         14 seconds =       0.23 minutes
                                     G D M A

                                 by Anthony Stone

                           version 2.2.06, 22 June 2011

               Distributed Multipoles from Gaussian wavefunctions

Starting at 9:50:53 on 28 Apr 2020

Using SCF density matrix from file ./SSI/SSI-240ASP-270SER-1-dimer.test.6448.fchk

                         Distributed Multipole Analysis

Standard DMA

Positions and radii in angstrom
Multipole moments in atomic units, ea_0^k for rank k

C          x =  1.639995  y =  2.055386  z = -0.119060 angstrom
           Maximum rank =  0   Radius =  0.650 angstrom
                   Q00  =  -0.274431

C          x =  0.713995  y =  0.962386  z =  0.398940 angstrom
           Maximum rank =  0   Radius =  0.650 angstrom
                   Q00  =   0.936577

O          x = -0.410005  y =  0.870386  z = -0.198060 angstrom
           Maximum rank =  0   Radius =  0.650 angstrom
                   Q00  =  -0.969724

O          x =  1.023995  y =  0.257386  z =  1.370940 angstrom
           Maximum rank =  0   Radius =  0.650 angstrom
                   Q00  =  -0.875246

H          x =  1.101995  y =  3.005386  z = -0.132060 angstrom
           Maximum rank =  0   Radius =  0.325 angstrom
                   Q00  =   0.080290

H          x =  1.907995  y =  1.826386  z = -1.151060 angstrom
           Maximum rank =  0   Radius =  0.325 angstrom
                   Q00  =   0.080450

H          x =  2.568165  y =  2.177586  z =  0.458500 angstrom
           Maximum rank =  0   Radius =  0.325 angstrom
                   Q00  =   0.050269

C          x = -1.232005  y = -2.565614  z = -0.379060 angstrom
           Maximum rank =  0   Radius =  0.650 angstrom
                   Q00  =   0.012729

O          x = -1.523005  y = -1.325614  z = -0.972060 angstrom
           Maximum rank =  0   Radius =  0.650 angstrom
                   Q00  =  -0.715103

H          x = -1.025005  y = -0.589614  z = -0.536060 angstrom
           Maximum rank =  0   Radius =  0.325 angstrom
                   Q00  =   0.553725

H          x = -1.633005  y = -3.373614  z = -0.993060 angstrom
           Maximum rank =  0   Radius =  0.325 angstrom
                   Q00  =   0.042320

H          x = -1.707005  y = -2.603614  z =  0.602940 angstrom
           Maximum rank =  0   Radius =  0.325 angstrom
                   Q00  =   0.032015

H          x = -0.145675  y = -2.686394  z = -0.255400 angstrom
           Maximum rank =  0   Radius =  0.325 angstrom
                   Q00  =   0.046129

Total multipoles referred to origin at
           x =   0.000000,  y =    0.000000,  z =    0.000000 angstrom
                   Q00  =  -1.000000

Finished at 9:50:53 on 28 Apr 2020

  DMA results are available in the Python driver through the
	  variable('DMA DISTRIBUTED MULTIPOLES')
  and
	  variable('DMA TOTAL MULTIPOLES')
  commands.

    Psi4 stopped on: Tuesday, 28 April 2020 09:50AM
    Psi4 wall time for execution: 0:00:14.11

*** Psi4 exiting successfully. Buy a developer a beer!
