                               Psi4 1.3.2 release

  ==> Input File <==

--------------------------------------------------------------------------
import numpy as np
set {scf_type pk
basis cc-pvdz
d_convergence 10
gdma_switch   0
gdma_limit    0
gdma_origin   [ 0.0,  0.0,  0.0 ]
}
molecule test {
    units Angstrom
    0 1
    --
    0 1
    C               -1.297534323268644    -0.206734000790122    -1.341734551849524
    C               -1.154534323268644    -1.092734000790122    -2.568734551849524
    H               -0.355534323268644     0.304265999209878    -1.163734551849524
    H               -2.072534323268644     0.540265999209878    -1.523734551849524
    H               -1.584534323268644    -0.805734000790122    -0.476734551849524
    H               -2.143534323268644    -1.438734000790122    -2.873734551849524
    H               -0.525967323268644    -1.966700000790122    -2.342704551849524
    H               -0.703890323268644    -0.508681000790122    -3.384701551849524
    C                0.393465676731356     0.761265999209878     1.526265448150476
    C                1.498465676731356     1.283265999209878     0.602265448150476
    C                0.592465676731356    -0.702734000790122     1.891265448150476
    H                0.353465676731356     1.367265999209878     2.435265448150476
    H               -0.569534323268644     0.883265999209878     1.030265448150476
    H                1.071465676731356     2.104265999209878     0.023265448150476
    H                1.810465676731356     0.506265999209878    -0.096734551849524
    H                0.675465676731356    -1.294734000790122     0.973265448150476
    H                1.534465676731356    -0.796734000790122     2.444265448150476
    H                2.368715676731356     1.673502999209878     1.150335448150476
    H               -0.243443323268644    -1.071798000790122     2.503675448150476

}
e, wfn = energy('scf', return_wfn=True)
gdma(wfn)
dmavals = variable('DMA DISTRIBUTED MULTIPOLES')
charges = np.array(dmavals)
print(charges)
np.save('SSI-021THR-150LYS-1-dimer.npy', np.array(charges))--------------------------------------------------------------------------

*** tstart() called on ds3
*** at Tue Apr 28 09:17:57 2020

   => Loading Basis Set <=

    Name: CC-PVDZ
    Role: ORBITAL
    Keyword: BASIS
    atoms 1-2, 9-11  entry C          line   138 file /theoryfs2/ds/metcalf/miniconda2/envs/tf2gpu/share/psi4/basis/cc-pvdz.gbs
    atoms 3-8, 12-19 entry H          line    22 file /theoryfs2/ds/metcalf/miniconda2/envs/tf2gpu/share/psi4/basis/cc-pvdz.gbs

         ---------------------------------------------------------
                                   SCF
               by Justin Turney, Rob Parrish, Andy Simmonett
                          and Daniel G. A. Smith
                              RHF Reference
                        1 Threads,    500 MiB Core
         ---------------------------------------------------------

  ==> Geometry <==

    Molecular point group: c1
    Full point group: C1

    Geometry (in Angstrom), charge = 0, multiplicity = 1:

       Center              X                  Y                   Z               Mass
    ------------   -----------------  -----------------  -----------------  -----------------
         C           -1.297534323269    -0.206734000790    -1.341734551850    12.000000000000
         C           -1.154534323269    -1.092734000790    -2.568734551850    12.000000000000
         H           -0.355534323269     0.304265999210    -1.163734551850     1.007825032230
         H           -2.072534323269     0.540265999210    -1.523734551850     1.007825032230
         H           -1.584534323269    -0.805734000790    -0.476734551850     1.007825032230
         H           -2.143534323269    -1.438734000790    -2.873734551850     1.007825032230
         H           -0.525967323269    -1.966700000790    -2.342704551850     1.007825032230
         H           -0.703890323269    -0.508681000790    -3.384701551850     1.007825032230
         C            0.393465676731     0.761265999210     1.526265448150    12.000000000000
         C            1.498465676731     1.283265999210     0.602265448150    12.000000000000
         C            0.592465676731    -0.702734000790     1.891265448150    12.000000000000
         H            0.353465676731     1.367265999210     2.435265448150     1.007825032230
         H           -0.569534323269     0.883265999210     1.030265448150     1.007825032230
         H            1.071465676731     2.104265999210     0.023265448150     1.007825032230
         H            1.810465676731     0.506265999210    -0.096734551850     1.007825032230
         H            0.675465676731    -1.294734000790     0.973265448150     1.007825032230
         H            1.534465676731    -0.796734000790     2.444265448150     1.007825032230
         H            2.368715676731     1.673502999210     1.150335448150     1.007825032230
         H           -0.243443323269    -1.071798000790     2.503675448150     1.007825032230

  Running in c1 symmetry.

  Rotational constants: A =      0.20874  B =      0.05067  C =      0.04585 [cm^-1]
  Rotational constants: A =   6257.97316  B =   1518.96344  C =   1374.54253 [MHz]
  Nuclear repulsion =  184.658591500873001

  Charge       = 0
  Multiplicity = 1
  Electrons    = 44
  Nalpha       = 22
  Nbeta        = 22

  ==> Algorithm <==

  SCF Algorithm Type is PK.
  DIIS enabled.
  MOM disabled.
  Fractional occupation disabled.
  Guess Type is SAD.
  Energy threshold   = 1.00e-06
  Density threshold  = 1.00e-10
  Integral threshold = 0.00e+00

  ==> Primary Basis <==

  Basis Set: CC-PVDZ
    Blend: CC-PVDZ
    Number of shells: 72
    Number of basis function: 140
    Number of Cartesian functions: 145
    Spherical Harmonics?: true
    Max angular momentum: 2

  ==> Pre-Iterations <==

   -------------------------------------------------------
    Irrep   Nso     Nmo     Nalpha   Nbeta   Ndocc  Nsocc
   -------------------------------------------------------
     A        140     140       0       0       0       0
   -------------------------------------------------------
    Total     140     140      22      22      22       0
   -------------------------------------------------------

  ==> Integral Setup <==

  Using integral reordering PK algorithm.
  Sizing the integral batches needed.
  Building batch lookup table.
   Calculation information:
      Number of atoms:                  19
      Number of AO shells:              72
      Number of primitives:            180
      Number of atomic orbitals:       145
      Number of basis functions:       140

      Integral cutoff                 1.00e-12
      Number of threads:                 1

	Batch   1 pq = [       0,    9405] index = [             0,44231715] size =     44231715
	Batch   2 pq = [    9405,    9870] index = [      44231715,48713385] size =      4481670
  Task number: 5
  Buffer size: 11059200
  Buffer per thread: 2
  We computed 3169831 shell quartets total.
  Whereas there are 3454506 unique shell quartets.

  ==> DiskJK: Disk-Based J/K Matrices <==

    J tasked:                  Yes
    K tasked:                  Yes
    wK tasked:                  No
    Memory [MiB]:              375
    Schwarz Cutoff:          1E-12

    OpenMP threads:              1

  Minimum eigenvalue in the overlap matrix is 5.3731277229E-03.
  Using Symmetric Orthogonalization.

  SCF Guess: Superposition of Atomic Densities via on-the-fly atomic UHF.

  ==> Iterations <==

                        Total Energy        Delta E     RMS |[F,P]|

   @RHF iter SAD:  -196.43090679525321   -1.96431e+02   0.00000e+00
   @RHF iter   1:  -197.30567849390994   -8.74772e-01   3.81218e-03 DIIS
   @RHF iter   2:  -197.46697275111251   -1.61294e-01   1.64377e-03 DIIS
   @RHF iter   3:  -197.49554530011778   -2.85725e-02   3.29562e-04 DIIS
   @RHF iter   4:  -197.49782254080307   -2.27724e-03   5.01146e-05 DIIS
   @RHF iter   5:  -197.49786408617592   -4.15454e-05   1.52409e-05 DIIS
   @RHF iter   6:  -197.49786769033093   -3.60416e-06   2.59918e-06 DIIS
   @RHF iter   7:  -197.49786781094411   -1.20613e-07   4.94872e-07 DIIS
   @RHF iter   8:  -197.49786781607907   -5.13495e-09   1.22923e-07 DIIS
   @RHF iter   9:  -197.49786781638826   -3.09200e-10   4.00265e-08 DIIS
   @RHF iter  10:  -197.49786781642467   -3.64082e-11   8.47361e-09 DIIS
   @RHF iter  11:  -197.49786781642737   -2.70006e-12   1.60001e-09 DIIS
   @RHF iter  12:  -197.49786781642655    8.24230e-13   3.15345e-10 DIIS
   @RHF iter  13:  -197.49786781642615    3.97904e-13   6.35359e-11 DIIS
  Energy and wave function converged.

  ==> Post-Iterations <==

    Orbital Energies [Eh]
    ---------------------

    Doubly Occupied:

       1A    -11.218510     2A    -11.217214     3A    -11.216174
       4A    -11.215990     5A    -11.215358     6A     -1.053785
       7A     -1.021033     8A     -0.923245     9A     -0.835734
      10A     -0.795728    11A     -0.627564    12A     -0.602404
      13A     -0.596727    14A     -0.595961    15A     -0.548082
      16A     -0.532361    17A     -0.500647    18A     -0.486374
      19A     -0.483907    20A     -0.473363    21A     -0.468398
      22A     -0.460173

    Virtual:

      23A      0.171558    24A      0.197605    25A      0.217507
      26A      0.220542    27A      0.239234    28A      0.253671
      29A      0.261033    30A      0.270053    31A      0.271998
      32A      0.282405    33A      0.292558    34A      0.315191
      35A      0.320416    36A      0.333100    37A      0.375223
      38A      0.424327    39A      0.433071    40A      0.576811
      41A      0.591360    42A      0.600857    43A      0.611519
      44A      0.613060    45A      0.638898    46A      0.646558
      47A      0.674351    48A      0.718981    49A      0.770978
      50A      0.787598    51A      0.811662    52A      0.847440
      53A      0.872233    54A      0.882669    55A      0.884968
      56A      0.886584    57A      0.890924    58A      0.899765
      59A      0.910080    60A      0.914554    61A      0.925237
      62A      0.926370    63A      0.942166    64A      0.963689
      65A      0.977126    66A      0.984266    67A      0.990372
      68A      1.043981    69A      1.111077    70A      1.120849
      71A      1.126500    72A      1.164553    73A      1.199734
      74A      1.287011    75A      1.384033    76A      1.455894
      77A      1.475233    78A      1.486118    79A      1.517635
      80A      1.538237    81A      1.593620    82A      1.663652
      83A      1.668391    84A      1.680981    85A      1.684066
      86A      1.695825    87A      1.719445    88A      1.846783
      89A      1.852609    90A      1.858838    91A      1.874255
      92A      1.882464    93A      1.899560    94A      1.920151
      95A      1.926212    96A      1.932627    97A      1.951006
      98A      1.955141    99A      1.959870   100A      1.962895
     101A      1.974524   102A      1.982985   103A      2.009376
     104A      2.019853   105A      2.034540   106A      2.061319
     107A      2.094921   108A      2.125446   109A      2.137949
     110A      2.150983   111A      2.194995   112A      2.270333
     113A      2.299329   114A      2.308601   115A      2.323465
     116A      2.332445   117A      2.369449   118A      2.452942
     119A      2.457106   120A      2.469951   121A      2.528937
     122A      2.561613   123A      2.574258   124A      2.591906
     125A      2.620227   126A      2.651032   127A      2.757995
     128A      2.765698   129A      2.780089   130A      2.792455
     131A      2.801706   132A      2.841226   133A      2.843335
     134A      2.855983   135A      2.908598   136A      2.940013
     137A      2.956556   138A      2.976160   139A      2.991584
     140A      3.068854

    Final Occupation by Irrep:
              A
    DOCC [    22 ]

  @RHF Final Energy:  -197.49786781642615

   => Energetics <=

    Nuclear Repulsion Energy =            184.6585915008730012
    One-Electron Energy =                -630.1354545318993132
    Two-Electron Energy =                 247.9789952146001610
    Total Energy =                       -197.4978678164261510

Computation Completed

Properties will be evaluated at   0.000000,   0.000000,   0.000000 [a0]

Properties computed using the SCF density matrix

  Nuclear Dipole Moment: [e a0]
     X:    -0.3609      Y:    -0.4725      Z:    -1.2203

  Electronic Dipole Moment: [e a0]
     X:     0.3251      Y:     0.5128      Z:     1.2261

  Dipole Moment: [e a0]
     X:    -0.0358      Y:     0.0403      Z:     0.0057     Total:     0.0542

  Dipole Moment: [D]
     X:    -0.0910      Y:     0.1025      Z:     0.0145     Total:     0.1378

*** tstop() called on ds3 at Tue Apr 28 09:18:26 2020
Module time:
	user time   =      21.97 seconds =       0.37 minutes
	system time =       7.88 seconds =       0.13 minutes
	total time  =         29 seconds =       0.48 minutes
Total time:
	user time   =      21.97 seconds =       0.37 minutes
	system time =       7.88 seconds =       0.13 minutes
	total time  =         29 seconds =       0.48 minutes
                                     G D M A

                                 by Anthony Stone

                           version 2.2.06, 22 June 2011

               Distributed Multipoles from Gaussian wavefunctions

Starting at 9:18:26 on 28 Apr 2020

Using SCF density matrix from file ./SSI/SSI-021THR-150LYS-1-dimer.test.10056.fchk

                         Distributed Multipole Analysis

Standard DMA

Positions and radii in angstrom
Multipole moments in atomic units, ea_0^k for rank k

C          x = -1.297534  y = -0.206734  z = -1.341735 angstrom
           Maximum rank =  0   Radius =  0.650 angstrom
                   Q00  =  -0.234011

C          x = -1.154534  y = -1.092734  z = -2.568735 angstrom
           Maximum rank =  0   Radius =  0.650 angstrom
                   Q00  =  -0.233125

H          x = -0.355534  y =  0.304266  z = -1.163735 angstrom
           Maximum rank =  0   Radius =  0.325 angstrom
                   Q00  =   0.080146

H          x = -2.072534  y =  0.540266  z = -1.523735 angstrom
           Maximum rank =  0   Radius =  0.325 angstrom
                   Q00  =   0.077140

H          x = -1.584534  y = -0.805734  z = -0.476735 angstrom
           Maximum rank =  0   Radius =  0.325 angstrom
                   Q00  =   0.077805

H          x = -2.143534  y = -1.438734  z = -2.873735 angstrom
           Maximum rank =  0   Radius =  0.325 angstrom
                   Q00  =   0.078716

H          x = -0.525967  y = -1.966700  z = -2.342705 angstrom
           Maximum rank =  0   Radius =  0.325 angstrom
                   Q00  =   0.077342

H          x = -0.703890  y = -0.508681  z = -3.384702 angstrom
           Maximum rank =  0   Radius =  0.325 angstrom
                   Q00  =   0.077699

C          x =  0.393466  y =  0.761266  z =  1.526265 angstrom
           Maximum rank =  0   Radius =  0.650 angstrom
                   Q00  =  -0.092556

C          x =  1.498466  y =  1.283266  z =  0.602265 angstrom
           Maximum rank =  0   Radius =  0.650 angstrom
                   Q00  =  -0.259586

C          x =  0.592466  y = -0.702734  z =  1.891265 angstrom
           Maximum rank =  0   Radius =  0.650 angstrom
                   Q00  =  -0.228696

H          x =  0.353466  y =  1.367266  z =  2.435265 angstrom
           Maximum rank =  0   Radius =  0.325 angstrom
                   Q00  =   0.049400

H          x = -0.569534  y =  0.883266  z =  1.030265 angstrom
           Maximum rank =  0   Radius =  0.325 angstrom
                   Q00  =   0.055358

H          x =  1.071466  y =  2.104266  z =  0.023265 angstrom
           Maximum rank =  0   Radius =  0.325 angstrom
                   Q00  =   0.083980

H          x =  1.810466  y =  0.506266  z = -0.096735 angstrom
           Maximum rank =  0   Radius =  0.325 angstrom
                   Q00  =   0.074658

H          x =  0.675466  y = -1.294734  z =  0.973265 angstrom
           Maximum rank =  0   Radius =  0.325 angstrom
                   Q00  =   0.074906

H          x =  1.534466  y = -0.796734  z =  2.444265 angstrom
           Maximum rank =  0   Radius =  0.325 angstrom
                   Q00  =   0.074398

H          x =  2.368716  y =  1.673503  z =  1.150335 angstrom
           Maximum rank =  0   Radius =  0.325 angstrom
                   Q00  =   0.083523

H          x = -0.243443  y = -1.071798  z =  2.503675 angstrom
           Maximum rank =  0   Radius =  0.325 angstrom
                   Q00  =   0.082904

Total multipoles referred to origin at
           x =   0.000000,  y =    0.000000,  z =    0.000000 angstrom
                   Q00  =  -0.000000

Finished at 9:18:26 on 28 Apr 2020

  DMA results are available in the Python driver through the
	  variable('DMA DISTRIBUTED MULTIPOLES')
  and
	  variable('DMA TOTAL MULTIPOLES')
  commands.

    Psi4 stopped on: Tuesday, 28 April 2020 09:18AM
    Psi4 wall time for execution: 0:00:29.30

*** Psi4 exiting successfully. Buy a developer a beer!
