                               Psi4 1.3.2 release

  ==> Input File <==

--------------------------------------------------------------------------
import numpy as np
set {scf_type pk
basis cc-pvdz
d_convergence 10
gdma_switch   0
gdma_limit    0
gdma_origin   [ 0.0,  0.0,  0.0 ]
}
molecule test {
    units Angstrom
    0 1
    --
    0 1
    C                1.422814434887255    -2.504035584643634    -0.979713841658180
    C                1.925814434887255    -2.772035584643633     0.443286158341820
    H                0.409814434887255    -2.099035584643633    -0.944713841658180
    H                2.068814434887255    -1.766035584643634    -1.454713841658180
    H                1.430814434887255    -3.412035584643634    -1.578713841658180
    H                1.923814434887255    -1.825035584643634     0.983286158341820
    H                1.233394434887255    -3.453757584643634     0.958856158341820
    H                2.954094434887256    -3.162172584643634     0.463896158341820
    C               -2.018185565112744     0.520964415356366     2.016286158341820
    C                0.570814434887255     1.092964415356366    -1.374713841658180
    C               -0.803185565112745     1.098964415356366    -1.543713841658180
    C                1.104814434887255     0.913964415356366    -0.112713841658180
    C               -1.638185565112745     0.936964415356366    -0.440713841658180
    C                0.257814434887255     0.746964415356366     0.985286158341820
    C               -1.112185565112745     0.755964415356366     0.836286158341820
    H                1.223814434887255     1.211964415356366    -2.226713841658181
    H               -1.228185565112745     1.225964415356366    -2.529713841658180
    H                2.175814434887255     0.888964415356366     0.022286158341820
    H               -2.704185565112744     0.938964415356366    -0.593713841658180
    H                0.688814434887255     0.587964415356366     1.963286158341820
    H               -2.851185565112745     1.220964415356366     1.965286158341820
    H               -1.473185565112745     0.736964415356366     2.934286158341819
    H               -2.403395565112745    -0.508166584643634     2.066316158341820

}
e, wfn = energy('scf', return_wfn=True)
gdma(wfn)
dmavals = variable('DMA DISTRIBUTED MULTIPOLES')
charges = np.array(dmavals)
print(charges)
np.save('SSI-129VAL-184PHE-1-dimer.npy', np.array(charges))--------------------------------------------------------------------------

*** tstart() called on ds3
*** at Tue Apr 28 09:01:56 2020

   => Loading Basis Set <=

    Name: CC-PVDZ
    Role: ORBITAL
    Keyword: BASIS
    atoms 1-2, 9-15  entry C          line   138 file /theoryfs2/ds/metcalf/miniconda2/envs/tf2gpu/share/psi4/basis/cc-pvdz.gbs
    atoms 3-8, 16-23 entry H          line    22 file /theoryfs2/ds/metcalf/miniconda2/envs/tf2gpu/share/psi4/basis/cc-pvdz.gbs

         ---------------------------------------------------------
                                   SCF
               by Justin Turney, Rob Parrish, Andy Simmonett
                          and Daniel G. A. Smith
                              RHF Reference
                        1 Threads,    500 MiB Core
         ---------------------------------------------------------

  ==> Geometry <==

    Molecular point group: c1
    Full point group: C1

    Geometry (in Angstrom), charge = 0, multiplicity = 1:

       Center              X                  Y                   Z               Mass
    ------------   -----------------  -----------------  -----------------  -----------------
         C            1.422814434887    -2.504035584644    -0.979713841658    12.000000000000
         C            1.925814434887    -2.772035584644     0.443286158342    12.000000000000
         H            0.409814434887    -2.099035584644    -0.944713841658     1.007825032230
         H            2.068814434887    -1.766035584644    -1.454713841658     1.007825032230
         H            1.430814434887    -3.412035584644    -1.578713841658     1.007825032230
         H            1.923814434887    -1.825035584644     0.983286158342     1.007825032230
         H            1.233394434887    -3.453757584644     0.958856158342     1.007825032230
         H            2.954094434887    -3.162172584644     0.463896158342     1.007825032230
         C           -2.018185565113     0.520964415356     2.016286158342    12.000000000000
         C            0.570814434887     1.092964415356    -1.374713841658    12.000000000000
         C           -0.803185565113     1.098964415356    -1.543713841658    12.000000000000
         C            1.104814434887     0.913964415356    -0.112713841658    12.000000000000
         C           -1.638185565113     0.936964415356    -0.440713841658    12.000000000000
         C            0.257814434887     0.746964415356     0.985286158342    12.000000000000
         C           -1.112185565113     0.755964415356     0.836286158342    12.000000000000
         H            1.223814434887     1.211964415356    -2.226713841658     1.007825032230
         H           -1.228185565113     1.225964415356    -2.529713841658     1.007825032230
         H            2.175814434887     0.888964415356     0.022286158342     1.007825032230
         H           -2.704185565113     0.938964415356    -0.593713841658     1.007825032230
         H            0.688814434887     0.587964415356     1.963286158342     1.007825032230
         H           -2.851185565113     1.220964415356     1.965286158342     1.007825032230
         H           -1.473185565113     0.736964415356     2.934286158342     1.007825032230
         H           -2.403395565113    -0.508166584644     2.066316158342     1.007825032230

  Running in c1 symmetry.

  Rotational constants: A =      0.06328  B =      0.03277  C =      0.02665 [cm^-1]
  Rotational constants: A =   1897.19424  B =    982.49397  C =    798.80776 [MHz]
  Nuclear repulsion =  419.158788450292604

  Charge       = 0
  Multiplicity = 1
  Electrons    = 68
  Nalpha       = 34
  Nbeta        = 34

  ==> Algorithm <==

  SCF Algorithm Type is PK.
  DIIS enabled.
  MOM disabled.
  Fractional occupation disabled.
  Guess Type is SAD.
  Energy threshold   = 1.00e-06
  Density threshold  = 1.00e-10
  Integral threshold = 0.00e+00

  ==> Primary Basis <==

  Basis Set: CC-PVDZ
    Blend: CC-PVDZ
    Number of shells: 96
    Number of basis function: 196
    Number of Cartesian functions: 205
    Spherical Harmonics?: true
    Max angular momentum: 2

  ==> Pre-Iterations <==

   -------------------------------------------------------
    Irrep   Nso     Nmo     Nalpha   Nbeta   Ndocc  Nsocc
   -------------------------------------------------------
     A        196     196       0       0       0       0
   -------------------------------------------------------
    Total     196     196      34      34      34       0
   -------------------------------------------------------

  ==> Integral Setup <==

  Using integral reordering PK algorithm.
  Sizing the integral batches needed.
  Building batch lookup table.
   Calculation information:
      Number of atoms:                  23
      Number of AO shells:              96
      Number of primitives:            268
      Number of atomic orbitals:       205
      Number of basis functions:       196

      Integral cutoff                 1.00e-12
      Number of threads:                 1

	Batch   1 pq = [       0,    9405] index = [             0,44231715] size =     44231715
	Batch   2 pq = [    9405,   13301] index = [      44231715,88464951] size =     44233236
	Batch   3 pq = [   13301,   16290] index = [      88464951,132690195] size =     44225244
	Batch   4 pq = [   16290,   18810] index = [     132690195,176917455] size =     44227260
	Batch   5 pq = [   18810,   19306] index = [     176917455,186370471] size =      9453016
  Task number: 17
  Buffer size: 11059200
  Buffer per thread: 2
  We computed 10481379 shell quartets total.
  Whereas there are 10841496 unique shell quartets.

  ==> DiskJK: Disk-Based J/K Matrices <==

    J tasked:                  Yes
    K tasked:                  Yes
    wK tasked:                  No
    Memory [MiB]:              375
    Schwarz Cutoff:          1E-12

    OpenMP threads:              1

  Minimum eigenvalue in the overlap matrix is 2.9849118846E-04.
  Using Symmetric Orthogonalization.

  SCF Guess: Superposition of Atomic Densities via on-the-fly atomic UHF.

  ==> Iterations <==

                        Total Energy        Delta E     RMS |[F,P]|

   @RHF iter SAD:  -347.92207201802114   -3.47922e+02   0.00000e+00
   @RHF iter   1:  -348.76599266805727   -8.43921e-01   2.90794e-03 DIIS
   @RHF iter   2:  -348.95895897691901   -1.92966e-01   1.21943e-03 DIIS
   @RHF iter   3:  -348.98992735359104   -3.09684e-02   2.60787e-04 DIIS
   @RHF iter   4:  -348.99241899596154   -2.49164e-03   5.48846e-05 DIIS
   @RHF iter   5:  -348.99249753494132   -7.85390e-05   1.83549e-05 DIIS
   @RHF iter   6:  -348.99250584468638   -8.30975e-06   5.04141e-06 DIIS
   @RHF iter   7:  -348.99250659199083   -7.47304e-07   1.31419e-06 DIIS
   @RHF iter   8:  -348.99250666753267   -7.55418e-08   4.21544e-07 DIIS
   @RHF iter   9:  -348.99250668494096   -1.74083e-08   2.07783e-07 DIIS
   @RHF iter  10:  -348.99250668979499   -4.85403e-09   9.54432e-08 DIIS
   @RHF iter  11:  -348.99250669100837   -1.21338e-09   3.24756e-08 DIIS
   @RHF iter  12:  -348.99250669109375   -8.53788e-11   1.41004e-08 DIIS
   @RHF iter  13:  -348.99250669110364   -9.89075e-12   3.86865e-09 DIIS
   @RHF iter  14:  -348.99250669110347    1.70530e-13   1.18508e-09 DIIS
   @RHF iter  15:  -348.99250669110410   -6.25278e-13   5.69269e-10 DIIS
   @RHF iter  16:  -348.99250669110569   -1.59162e-12   2.63256e-10 DIIS
   @RHF iter  17:  -348.99250669110478    9.09495e-13   9.39155e-11 DIIS
  Energy and wave function converged.

  ==> Post-Iterations <==

    Orbital Energies [Eh]
    ---------------------

    Doubly Occupied:

       1A    -11.239316     2A    -11.234921     3A    -11.234341
       4A    -11.230414     5A    -11.229995     6A    -11.229572
       7A    -11.229295     8A    -11.212806     9A    -11.207972
      10A     -1.156369    11A     -1.047556    12A     -1.012432
      13A     -1.008242    14A     -0.933494    15A     -0.830057
      16A     -0.827179    17A     -0.796590    18A     -0.693060
      19A     -0.633316    20A     -0.629964    21A     -0.590679
      22A     -0.589867    23A     -0.581064    24A     -0.577867
      25A     -0.565055    26A     -0.535688    27A     -0.495929
      28A     -0.486481    29A     -0.485868    30A     -0.481714
      31A     -0.478697    32A     -0.476552    33A     -0.331864
      34A     -0.325188

    Virtual:

      35A      0.134286    36A      0.141156    37A      0.173937
      38A      0.197663    39A      0.205163    40A      0.216416
      41A      0.232623    42A      0.250528    43A      0.254971
      44A      0.258085    45A      0.271654    46A      0.278162
      47A      0.281964    48A      0.290769    49A      0.309843
      50A      0.329884    51A      0.367439    52A      0.379016
      53A      0.401856    54A      0.454404    55A      0.463837
      56A      0.478942    57A      0.498684    58A      0.562436
      59A      0.574861    60A      0.600985    61A      0.603920
      62A      0.613147    63A      0.633719    64A      0.649726
      65A      0.676683    66A      0.689134    67A      0.700699
      68A      0.704639    69A      0.737276    70A      0.741194
      71A      0.748392    72A      0.758588    73A      0.766059
      74A      0.778079    75A      0.801500    76A      0.830281
      77A      0.850149    78A      0.857157    79A      0.863201
      80A      0.867366    81A      0.873933    82A      0.883136
      83A      0.893215    84A      0.896767    85A      0.899195
      86A      0.907546    87A      0.916623    88A      0.925129
      89A      0.937814    90A      0.948291    91A      0.969176
      92A      0.986601    93A      0.997401    94A      1.000601
      95A      1.032722    96A      1.073247    97A      1.120287
      98A      1.131994    99A      1.140708   100A      1.144103
     101A      1.161160   102A      1.165491   103A      1.192870
     104A      1.228684   105A      1.242242   106A      1.245758
     107A      1.256162   108A      1.277614   109A      1.307070
     110A      1.310051   111A      1.326427   112A      1.332615
     113A      1.414714   114A      1.473265   115A      1.488283
     116A      1.505329   117A      1.521805   118A      1.560032
     119A      1.578406   120A      1.625497   121A      1.670295
     122A      1.688649   123A      1.697338   124A      1.703230
     125A      1.743151   126A      1.756114   127A      1.766043
     128A      1.798501   129A      1.824572   130A      1.861813
     131A      1.868876   132A      1.883515   133A      1.886084
     134A      1.904230   135A      1.907605   136A      1.913773
     137A      1.925468   138A      1.938373   139A      1.946318
     140A      1.950042   141A      1.954106   142A      1.958393
     143A      1.965054   144A      1.972402   145A      1.978026
     146A      1.987834   147A      2.003105   148A      2.011016
     149A      2.052327   150A      2.059393   151A      2.077272
     152A      2.108552   153A      2.111867   154A      2.128371
     155A      2.152361   156A      2.159636   157A      2.177420
     158A      2.185382   159A      2.189389   160A      2.255359
     161A      2.278526   162A      2.297757   163A      2.302933
     164A      2.312115   165A      2.322613   166A      2.329450
     167A      2.333173   168A      2.460626   169A      2.461981
     170A      2.473718   171A      2.485166   172A      2.507216
     173A      2.542023   174A      2.565645   175A      2.584149
     176A      2.630204   177A      2.740040   178A      2.760775
     179A      2.770614   180A      2.772578   181A      2.791292
     182A      2.808629   183A      2.816712   184A      2.847125
     185A      2.865727   186A      2.875823   187A      2.883787
     188A      2.955709   189A      2.974306   190A      2.998343
     191A      3.025844   192A      3.035623   193A      3.164123
     194A      3.212407   195A      3.308104   196A      3.981908

    Final Occupation by Irrep:
              A
    DOCC [    34 ]

  @RHF Final Energy:  -348.99250669110478

   => Energetics <=

    Nuclear Repulsion Energy =            419.1587884502926045
    One-Electron Energy =               -1301.0637801135308109
    Two-Electron Energy =                 532.9124849721333703
    Total Energy =                       -348.9925066911048361

Computation Completed

Properties will be evaluated at   0.000000,   0.000000,   0.000000 [a0]

Properties computed using the SCF density matrix

  Nuclear Dipole Moment: [e a0]
     X:     3.2334      Y:    -8.8258      Z:     1.9023

  Electronic Dipole Moment: [e a0]
     X:    -3.3690      Y:     8.8617      Z:    -1.8296

  Dipole Moment: [e a0]
     X:    -0.1357      Y:     0.0359      Z:     0.0728     Total:     0.1581

  Dipole Moment: [D]
     X:    -0.3448      Y:     0.0914      Z:     0.1849     Total:     0.4018

*** tstop() called on ds3 at Tue Apr 28 09:03:39 2020
Module time:
	user time   =      77.08 seconds =       1.28 minutes
	system time =      29.23 seconds =       0.49 minutes
	total time  =        103 seconds =       1.72 minutes
Total time:
	user time   =      77.08 seconds =       1.28 minutes
	system time =      29.23 seconds =       0.49 minutes
	total time  =        103 seconds =       1.72 minutes
                                     G D M A

                                 by Anthony Stone

                           version 2.2.06, 22 June 2011

               Distributed Multipoles from Gaussian wavefunctions

Starting at 9:3:39 on 28 Apr 2020

Using SCF density matrix from file ./SSI/SSI-129VAL-184PHE-1-dimer.test.9254.fchk

                         Distributed Multipole Analysis

Standard DMA

Positions and radii in angstrom
Multipole moments in atomic units, ea_0^k for rank k

C          x =  1.422814  y = -2.504036  z = -0.979714 angstrom
           Maximum rank =  0   Radius =  0.650 angstrom
                   Q00  =  -0.220547

C          x =  1.925814  y = -2.772036  z =  0.443286 angstrom
           Maximum rank =  0   Radius =  0.650 angstrom
                   Q00  =  -0.247528

H          x =  0.409814  y = -2.099036  z = -0.944714 angstrom
           Maximum rank =  0   Radius =  0.325 angstrom
                   Q00  =   0.089672

H          x =  2.068814  y = -1.766036  z = -1.454714 angstrom
           Maximum rank =  0   Radius =  0.325 angstrom
                   Q00  =   0.073510

H          x =  1.430814  y = -3.412036  z = -1.578714 angstrom
           Maximum rank =  0   Radius =  0.325 angstrom
                   Q00  =   0.074507

H          x =  1.923814  y = -1.825036  z =  0.983286 angstrom
           Maximum rank =  0   Radius =  0.325 angstrom
                   Q00  =   0.077373

H          x =  1.233394  y = -3.453758  z =  0.958856 angstrom
           Maximum rank =  0   Radius =  0.325 angstrom
                   Q00  =   0.076288

H          x =  2.954094  y = -3.162173  z =  0.463896 angstrom
           Maximum rank =  0   Radius =  0.325 angstrom
                   Q00  =   0.075944

C          x = -2.018186  y =  0.520964  z =  2.016286 angstrom
           Maximum rank =  0   Radius =  0.650 angstrom
                   Q00  =  -0.205511

C          x =  0.570814  y =  1.092964  z = -1.374714 angstrom
           Maximum rank =  0   Radius =  0.650 angstrom
                   Q00  =  -0.071549

C          x = -0.803186  y =  1.098964  z = -1.543714 angstrom
           Maximum rank =  0   Radius =  0.650 angstrom
                   Q00  =  -0.079153

C          x =  1.104814  y =  0.913964  z = -0.112714 angstrom
           Maximum rank =  0   Radius =  0.650 angstrom
                   Q00  =  -0.079511

C          x = -1.638186  y =  0.936964  z = -0.440714 angstrom
           Maximum rank =  0   Radius =  0.650 angstrom
                   Q00  =  -0.060413

C          x =  0.257814  y =  0.746964  z =  0.985286 angstrom
           Maximum rank =  0   Radius =  0.650 angstrom
                   Q00  =  -0.005017

C          x = -1.112186  y =  0.755964  z =  0.836286 angstrom
           Maximum rank =  0   Radius =  0.650 angstrom
                   Q00  =  -0.100936

H          x =  1.223814  y =  1.211964  z = -2.226714 angstrom
           Maximum rank =  0   Radius =  0.325 angstrom
                   Q00  =   0.060094

H          x = -1.228186  y =  1.225964  z = -2.529714 angstrom
           Maximum rank =  0   Radius =  0.325 angstrom
                   Q00  =   0.064368

H          x =  2.175814  y =  0.888964  z =  0.022286 angstrom
           Maximum rank =  0   Radius =  0.325 angstrom
                   Q00  =   0.063559

H          x = -2.704186  y =  0.938964  z = -0.593714 angstrom
           Maximum rank =  0   Radius =  0.325 angstrom
                   Q00  =   0.054611

H          x =  0.688814  y =  0.587964  z =  1.963286 angstrom
           Maximum rank =  0   Radius =  0.325 angstrom
                   Q00  =   0.056083

H          x = -2.851186  y =  1.220964  z =  1.965286 angstrom
           Maximum rank =  0   Radius =  0.325 angstrom
                   Q00  =   0.100143

H          x = -1.473186  y =  0.736964  z =  2.934286 angstrom
           Maximum rank =  0   Radius =  0.325 angstrom
                   Q00  =   0.098264

H          x = -2.403396  y = -0.508167  z =  2.066316 angstrom
           Maximum rank =  0   Radius =  0.325 angstrom
                   Q00  =   0.105749

Total multipoles referred to origin at
           x =   0.000000,  y =    0.000000,  z =    0.000000 angstrom
                   Q00  =  -0.000000

Finished at 9:3:39 on 28 Apr 2020

  DMA results are available in the Python driver through the
	  variable('DMA DISTRIBUTED MULTIPOLES')
  and
	  variable('DMA TOTAL MULTIPOLES')
  commands.

    Psi4 stopped on: Tuesday, 28 April 2020 09:03AM
    Psi4 wall time for execution: 0:01:43.28

*** Psi4 exiting successfully. Buy a developer a beer!
