                               Psi4 1.3.2 release

  ==> Input File <==

--------------------------------------------------------------------------
import numpy as np
set {scf_type pk
basis cc-pvdz
d_convergence 10
gdma_switch   0
gdma_limit    0
gdma_origin   [ 0.0,  0.0,  0.0 ]
}
molecule test {
    units Angstrom
    0 1
    --
    0 1
    C               -0.825088846186446     1.465335268468221    -0.754320770882884
    C               -1.470088846186445     1.216335268468221    -2.085320770882884
    C               -0.116088846186446     2.792335268468221    -0.920320770882884
    H               -0.084088846186446     0.699335268468221    -0.580320770882884
    H               -1.551088846186446     1.479335268468221     0.053679229117116
    H               -1.478088846186446     0.148335268468221    -2.311320770882884
    H               -2.485088846186446     1.611335268468221    -2.063320770882884
    H                0.711911153813554     2.902335268468221    -0.218320770882884
    H               -0.832088846186446     3.601335268468221    -0.774320770882885
    H               -0.854788846186446     1.775356268468221    -2.805670770882884
    H                0.220131153813554     2.790901268468221    -1.967680770882885
    C                0.470911153813554    -1.494664731531779     0.962679229117116
    C                0.424911153813554    -3.032664731531779     0.869679229117116
    C                1.486911153813554    -0.951664731531779     1.957679229117115
    H                0.736911153813554    -1.133664731531779    -0.025320770882884
    H               -0.512088846186446    -1.095664731531779     1.220679229117116
    H                0.053911153813554    -3.433664731531779     1.814679229117116
    H                2.462911153813554    -1.382664731531779     1.741679229117115
    H                1.418101153813555    -3.445103731531779     0.638439229117116
    H               -0.283728846186446    -3.338124731531779     0.085759229117116
    H                1.608491153813554     0.136867868468221     1.856119229117116
    H                1.208421153813554    -1.256853731531779     2.977139229117116

}
e, wfn = energy('scf', return_wfn=True)
gdma(wfn)
dmavals = variable('DMA DISTRIBUTED MULTIPOLES')
charges = np.array(dmavals)
print(charges)
np.save('SSI-182PRO-186LEU-1-dimer.npy', np.array(charges))--------------------------------------------------------------------------

*** tstart() called on ds3
*** at Tue Apr 28 08:59:14 2020

   => Loading Basis Set <=

    Name: CC-PVDZ
    Role: ORBITAL
    Keyword: BASIS
    atoms 1-3, 12-14  entry C          line   138 file /theoryfs2/ds/metcalf/miniconda2/envs/tf2gpu/share/psi4/basis/cc-pvdz.gbs
    atoms 4-11, 15-22 entry H          line    22 file /theoryfs2/ds/metcalf/miniconda2/envs/tf2gpu/share/psi4/basis/cc-pvdz.gbs

         ---------------------------------------------------------
                                   SCF
               by Justin Turney, Rob Parrish, Andy Simmonett
                          and Daniel G. A. Smith
                              RHF Reference
                        1 Threads,    500 MiB Core
         ---------------------------------------------------------

  ==> Geometry <==

    Molecular point group: c1
    Full point group: C1

    Geometry (in Angstrom), charge = 0, multiplicity = 1:

       Center              X                  Y                   Z               Mass
    ------------   -----------------  -----------------  -----------------  -----------------
         C           -0.825088846186     1.465335268468    -0.754320770883    12.000000000000
         C           -1.470088846186     1.216335268468    -2.085320770883    12.000000000000
         C           -0.116088846186     2.792335268468    -0.920320770883    12.000000000000
         H           -0.084088846186     0.699335268468    -0.580320770883     1.007825032230
         H           -1.551088846186     1.479335268468     0.053679229117     1.007825032230
         H           -1.478088846186     0.148335268468    -2.311320770883     1.007825032230
         H           -2.485088846186     1.611335268468    -2.063320770883     1.007825032230
         H            0.711911153814     2.902335268468    -0.218320770883     1.007825032230
         H           -0.832088846186     3.601335268468    -0.774320770883     1.007825032230
         H           -0.854788846186     1.775356268468    -2.805670770883     1.007825032230
         H            0.220131153814     2.790901268468    -1.967680770883     1.007825032230
         C            0.470911153814    -1.494664731532     0.962679229117    12.000000000000
         C            0.424911153814    -3.032664731532     0.869679229117    12.000000000000
         C            1.486911153814    -0.951664731532     1.957679229117    12.000000000000
         H            0.736911153814    -1.133664731532    -0.025320770883     1.007825032230
         H           -0.512088846186    -1.095664731532     1.220679229117     1.007825032230
         H            0.053911153814    -3.433664731532     1.814679229117     1.007825032230
         H            2.462911153814    -1.382664731532     1.741679229117     1.007825032230
         H            1.418101153814    -3.445103731532     0.638439229117     1.007825032230
         H           -0.283728846186    -3.338124731532     0.085759229117     1.007825032230
         H            1.608491153814     0.136867868468     1.856119229117     1.007825032230
         H            1.208421153814    -1.256853731532     2.977139229117     1.007825032230

  Running in c1 symmetry.

  Rotational constants: A =      0.14956  B =      0.03159  C =      0.02709 [cm^-1]
  Rotational constants: A =   4483.60963  B =    947.18467  C =    812.01555 [MHz]
  Nuclear repulsion =  240.465783415853110

  Charge       = 0
  Multiplicity = 1
  Electrons    = 52
  Nalpha       = 26
  Nbeta        = 26

  ==> Algorithm <==

  SCF Algorithm Type is PK.
  DIIS enabled.
  MOM disabled.
  Fractional occupation disabled.
  Guess Type is SAD.
  Energy threshold   = 1.00e-06
  Density threshold  = 1.00e-10
  Integral threshold = 0.00e+00

  ==> Primary Basis <==

  Basis Set: CC-PVDZ
    Blend: CC-PVDZ
    Number of shells: 84
    Number of basis function: 164
    Number of Cartesian functions: 170
    Spherical Harmonics?: true
    Max angular momentum: 2

  ==> Pre-Iterations <==

   -------------------------------------------------------
    Irrep   Nso     Nmo     Nalpha   Nbeta   Ndocc  Nsocc
   -------------------------------------------------------
     A        164     164       0       0       0       0
   -------------------------------------------------------
    Total     164     164      26      26      26       0
   -------------------------------------------------------

  ==> Integral Setup <==

  Using integral reordering PK algorithm.
  Sizing the integral batches needed.
  Building batch lookup table.
   Calculation information:
      Number of atoms:                  22
      Number of AO shells:              84
      Number of primitives:            212
      Number of atomic orbitals:       170
      Number of basis functions:       164

      Integral cutoff                 1.00e-12
      Number of threads:                 1

	Batch   1 pq = [       0,    9405] index = [             0,44231715] size =     44231715
	Batch   2 pq = [    9405,   13530] index = [      44231715,91537215] size =     47305500
  Task number: 9
  Buffer size: 11059200
  Buffer per thread: 2
  We computed 5423854 shell quartets total.
  Whereas there are 6374235 unique shell quartets.

  ==> DiskJK: Disk-Based J/K Matrices <==

    J tasked:                  Yes
    K tasked:                  Yes
    wK tasked:                  No
    Memory [MiB]:              375
    Schwarz Cutoff:          1E-12

    OpenMP threads:              1

  Minimum eigenvalue in the overlap matrix is 4.4793799855E-03.
  Using Symmetric Orthogonalization.

  SCF Guess: Superposition of Atomic Densities via on-the-fly atomic UHF.

  ==> Iterations <==

                        Total Energy        Delta E     RMS |[F,P]|

   @RHF iter SAD:  -235.55147365976407   -2.35551e+02   0.00000e+00
   @RHF iter   1:  -236.29208441596245   -7.40611e-01   3.54885e-03 DIIS
   @RHF iter   2:  -236.48189983476524   -1.89815e-01   1.55528e-03 DIIS
   @RHF iter   3:  -236.51673757061980   -3.48377e-02   3.08812e-04 DIIS
   @RHF iter   4:  -236.51936927116853   -2.63170e-03   4.83892e-05 DIIS
   @RHF iter   5:  -236.51942067403786   -5.14029e-05   1.36639e-05 DIIS
   @RHF iter   6:  -236.51942489724661   -4.22321e-06   2.39684e-06 DIIS
   @RHF iter   7:  -236.51942503773463   -1.40488e-07   4.61667e-07 DIIS
   @RHF iter   8:  -236.51942504431838   -6.58375e-09   8.80139e-08 DIIS
   @RHF iter   9:  -236.51942504456889   -2.50509e-10   2.82758e-08 DIIS
   @RHF iter  10:  -236.51942504458833   -1.94404e-11   7.23443e-09 DIIS
   @RHF iter  11:  -236.51942504458989   -1.56319e-12   1.28121e-09 DIIS
   @RHF iter  12:  -236.51942504458924    6.53699e-13   3.06871e-10 DIIS
   @RHF iter  13:  -236.51942504458844    7.95808e-13   7.48315e-11 DIIS
  Energy and wave function converged.

  ==> Post-Iterations <==

    Orbital Energies [Eh]
    ---------------------

    Doubly Occupied:

       1A    -11.220039     2A    -11.219311     3A    -11.217373
       4A    -11.211930     5A    -11.210029     6A    -11.208740
       7A     -1.070014     8A     -1.052353     9A     -0.924873
      10A     -0.914848    11A     -0.802724    12A     -0.792383
      13A     -0.639229    14A     -0.626959    15A     -0.614253
      16A     -0.592832    17A     -0.547735    18A     -0.540657
      19A     -0.533654    20A     -0.514735    21A     -0.485968
      22A     -0.475323    23A     -0.473749    24A     -0.470173
      25A     -0.459066    26A     -0.452228

    Virtual:

      27A      0.167752    28A      0.194832    29A      0.204575
      30A      0.215671    31A      0.221395    32A      0.237957
      33A      0.245698    34A      0.258754    35A      0.269959
      36A      0.278498    37A      0.283942    38A      0.303544
      39A      0.314093    40A      0.318996    41A      0.336883
      42A      0.347469    43A      0.385459    44A      0.389222
      45A      0.419759    46A      0.445530    47A      0.556038
      48A      0.574773    49A      0.592425    50A      0.607360
      51A      0.607734    52A      0.616162    53A      0.620056
      54A      0.656087    55A      0.665940    56A      0.754449
      57A      0.781863    58A      0.791614    59A      0.812140
      60A      0.819041    61A      0.848968    62A      0.862884
      63A      0.870205    64A      0.873301    65A      0.886601
      66A      0.890005    67A      0.895344    68A      0.897501
      69A      0.905060    70A      0.907832    71A      0.911965
      72A      0.918293    73A      0.924580    74A      0.931397
      75A      0.950601    76A      0.959837    77A      0.967191
      78A      0.981847    79A      0.992418    80A      1.024588
      81A      1.098431    82A      1.111898    83A      1.120602
      84A      1.155478    85A      1.200639    86A      1.264804
      87A      1.374775    88A      1.415545    89A      1.467696
      90A      1.474354    91A      1.494797    92A      1.506673
      93A      1.537342    94A      1.596515    95A      1.622461
      96A      1.634684    97A      1.639554    98A      1.673564
      99A      1.684756   100A      1.696753   101A      1.729276
     102A      1.736075   103A      1.815560   104A      1.863633
     105A      1.874202   106A      1.880528   107A      1.884006
     108A      1.889350   109A      1.902967   110A      1.914110
     111A      1.928738   112A      1.934310   113A      1.941855
     114A      1.948815   115A      1.963975   116A      1.975145
     117A      1.983900   118A      1.987307   119A      1.988899
     120A      2.000517   121A      2.014723   122A      2.027000
     123A      2.033897   124A      2.052512   125A      2.069332
     126A      2.099495   127A      2.120871   128A      2.147261
     129A      2.158353   130A      2.230979   131A      2.239809
     132A      2.286407   133A      2.296831   134A      2.313281
     135A      2.331759   136A      2.348284   137A      2.359073
     138A      2.442937   139A      2.478736   140A      2.501998
     141A      2.514937   142A      2.530297   143A      2.560137
     144A      2.575014   145A      2.609494   146A      2.630502
     147A      2.645815   148A      2.710635   149A      2.750971
     150A      2.753552   151A      2.763330   152A      2.784891
     153A      2.787094   154A      2.800444   155A      2.810136
     156A      2.847289   157A      2.864145   158A      2.908951
     159A      2.924775   160A      2.962134   161A      2.964486
     162A      2.987570   163A      3.068524   164A      3.099717

    Final Occupation by Irrep:
              A
    DOCC [    26 ]

  @RHF Final Energy:  -236.51942504458844

   => Energetics <=

    Nuclear Repulsion Energy =            240.4657834158531102
    One-Electron Energy =                -793.4280598377265505
    Two-Electron Energy =                 316.4428513772849669
    Total Energy =                       -236.5194250445884450

Computation Completed

Properties will be evaluated at   0.000000,   0.000000,   0.000000 [a0]

Properties computed using the SCF density matrix

  Nuclear Dipole Moment: [e a0]
     X:     0.3185      Y:     0.0557      Z:    -0.3357

  Electronic Dipole Moment: [e a0]
     X:    -0.3300      Y:    -0.0850      Z:     0.3579

  Dipole Moment: [e a0]
     X:    -0.0115      Y:    -0.0294      Z:     0.0221     Total:     0.0385

  Dipole Moment: [D]
     X:    -0.0293      Y:    -0.0746      Z:     0.0563     Total:     0.0979

*** tstop() called on ds3 at Tue Apr 28 08:59:55 2020
Module time:
	user time   =      29.82 seconds =       0.50 minutes
	system time =      12.42 seconds =       0.21 minutes
	total time  =         41 seconds =       0.68 minutes
Total time:
	user time   =      29.82 seconds =       0.50 minutes
	system time =      12.42 seconds =       0.21 minutes
	total time  =         41 seconds =       0.68 minutes
                                     G D M A

                                 by Anthony Stone

                           version 2.2.06, 22 June 2011

               Distributed Multipoles from Gaussian wavefunctions

Starting at 8:59:55 on 28 Apr 2020

Using SCF density matrix from file ./SSI/SSI-182PRO-186LEU-1-dimer.test.19286.fchk

                         Distributed Multipole Analysis

Standard DMA

Positions and radii in angstrom
Multipole moments in atomic units, ea_0^k for rank k

C          x = -0.825089  y =  1.465335  z = -0.754321 angstrom
           Maximum rank =  0   Radius =  0.650 angstrom
                   Q00  =  -0.089451

C          x = -1.470089  y =  1.216335  z = -2.085321 angstrom
           Maximum rank =  0   Radius =  0.650 angstrom
                   Q00  =  -0.234875

C          x = -0.116089  y =  2.792335  z = -0.920321 angstrom
           Maximum rank =  0   Radius =  0.650 angstrom
                   Q00  =  -0.217968

H          x = -0.084089  y =  0.699335  z = -0.580321 angstrom
           Maximum rank =  0   Radius =  0.325 angstrom
                   Q00  =   0.052674

H          x = -1.551089  y =  1.479335  z =  0.053679 angstrom
           Maximum rank =  0   Radius =  0.325 angstrom
                   Q00  =   0.052293

H          x = -1.478089  y =  0.148335  z = -2.311321 angstrom
           Maximum rank =  0   Radius =  0.325 angstrom
                   Q00  =   0.083150

H          x = -2.485089  y =  1.611335  z = -2.063321 angstrom
           Maximum rank =  0   Radius =  0.325 angstrom
                   Q00  =   0.082289

H          x =  0.711911  y =  2.902335  z = -0.218321 angstrom
           Maximum rank =  0   Radius =  0.325 angstrom
                   Q00  =   0.079057

H          x = -0.832089  y =  3.601335  z = -0.774321 angstrom
           Maximum rank =  0   Radius =  0.325 angstrom
                   Q00  =   0.075330

H          x = -0.854789  y =  1.775356  z = -2.805671 angstrom
           Maximum rank =  0   Radius =  0.325 angstrom
                   Q00  =   0.060044

H          x =  0.220131  y =  2.790901  z = -1.967681 angstrom
           Maximum rank =  0   Radius =  0.325 angstrom
                   Q00  =   0.052094

C          x =  0.470911  y = -1.494665  z =  0.962679 angstrom
           Maximum rank =  0   Radius =  0.650 angstrom
                   Q00  =  -0.062572

C          x =  0.424911  y = -3.032665  z =  0.869679 angstrom
           Maximum rank =  0   Radius =  0.650 angstrom
                   Q00  =  -0.256049

C          x =  1.486911  y = -0.951665  z =  1.957679 angstrom
           Maximum rank =  0   Radius =  0.650 angstrom
                   Q00  =  -0.240538

H          x =  0.736911  y = -1.133665  z = -0.025321 angstrom
           Maximum rank =  0   Radius =  0.325 angstrom
                   Q00  =   0.036844

H          x = -0.512089  y = -1.095665  z =  1.220679 angstrom
           Maximum rank =  0   Radius =  0.325 angstrom
                   Q00  =   0.049816

H          x =  0.053911  y = -3.433665  z =  1.814679 angstrom
           Maximum rank =  0   Radius =  0.325 angstrom
                   Q00  =   0.076689

H          x =  2.462911  y = -1.382665  z =  1.741679 angstrom
           Maximum rank =  0   Radius =  0.325 angstrom
                   Q00  =   0.073246

H          x =  1.418101  y = -3.445104  z =  0.638439 angstrom
           Maximum rank =  0   Radius =  0.325 angstrom
                   Q00  =   0.081029

H          x = -0.283729  y = -3.338125  z =  0.085759 angstrom
           Maximum rank =  0   Radius =  0.325 angstrom
                   Q00  =   0.084565

H          x =  1.608491  y =  0.136868  z =  1.856119 angstrom
           Maximum rank =  0   Radius =  0.325 angstrom
                   Q00  =   0.086002

H          x =  1.208421  y = -1.256854  z =  2.977139 angstrom
           Maximum rank =  0   Radius =  0.325 angstrom
                   Q00  =   0.076331

Total multipoles referred to origin at
           x =   0.000000,  y =    0.000000,  z =    0.000000 angstrom
                   Q00  =  -0.000000

Finished at 8:59:55 on 28 Apr 2020

  DMA results are available in the Python driver through the
	  variable('DMA DISTRIBUTED MULTIPOLES')
  and
	  variable('DMA TOTAL MULTIPOLES')
  commands.

    Psi4 stopped on: Tuesday, 28 April 2020 08:59AM
    Psi4 wall time for execution: 0:00:40.99

*** Psi4 exiting successfully. Buy a developer a beer!
