                               Psi4 1.3.2 release

  ==> Input File <==

--------------------------------------------------------------------------
import numpy as np
set {scf_type pk
basis cc-pvdz
d_convergence 10
gdma_switch   0
gdma_limit    0
gdma_origin   [ 0.0,  0.0,  0.0 ]
}
molecule test {
    units Angstrom
    0 1
    --
    0 1
    C                0.497875384567695    -2.545706426118099    -0.470041206833171
    C               -0.462124615432305    -3.678706426118099    -0.116041206833171
    C                0.823875384567695    -2.499706426118099    -1.952041206833171
    H                0.030875384567695    -1.599706426118099    -0.189041206833171
    H                1.416875384567695    -2.640706426118099     0.109958793166829
    H               -0.041124615432305    -4.613706426118100    -0.496041206833171
    H               -0.000124615432305    -2.919706426118099    -2.523041206833170
    H                0.958875384567695    -1.462706426118099    -2.257041206833170
    H               -1.451224615432305    -3.487996426118099    -0.557991206833171
    H               -0.565254615432305    -3.776026426118099     0.974778793166829
    H                1.738805384567695    -3.068716426118100    -2.173691206833170
    C               -2.343124615432305     1.869293573881901     1.365958793166829
    C                0.443875384567695     1.257293573881901    -1.158041206833170
    C               -0.810124615432305     1.526293573881901    -0.612041206833171
    C                1.539875384567695     1.036293573881901    -0.318041206833171
    C               -0.986124615432305     1.575293573881901     0.775958793166829
    C                1.375875384567695     1.083293573881901     1.070958793166829
    C                0.113875384567695     1.351293573881901     1.612958793166829
    H                0.561875384567695     1.213293573881901    -2.225041206833171
    H               -1.647124615432305     1.703293573881901    -1.270041206833171
    H                2.514875384567695     0.836293573881901    -0.741041206833171
    H                2.221875384567695     0.917293573881901     1.722958793166830
    H               -2.858124615432305     2.586293573881901     0.726958793166829
    H               -2.208124615432305     2.350293573881901     2.334958793166829
    H               -0.007124615432305     1.376293573881901     2.683958793166829
    H               -2.972824615432305     0.977823573881901     1.502938793166829

}
e, wfn = energy('scf', return_wfn=True)
gdma(wfn)
dmavals = variable('DMA DISTRIBUTED MULTIPOLES')
charges = np.array(dmavals)
print(charges)
np.save('SSI-112ARG-125PHE-1-dimer.npy', np.array(charges))--------------------------------------------------------------------------

*** tstart() called on ds3
*** at Sun Apr 26 17:12:18 2020

   => Loading Basis Set <=

    Name: CC-PVDZ
    Role: ORBITAL
    Keyword: BASIS
    atoms 1-3, 12-18  entry C          line   138 file /theoryfs2/ds/metcalf/miniconda2/envs/tf2gpu/share/psi4/basis/cc-pvdz.gbs
    atoms 4-11, 19-26 entry H          line    22 file /theoryfs2/ds/metcalf/miniconda2/envs/tf2gpu/share/psi4/basis/cc-pvdz.gbs

         ---------------------------------------------------------
                                   SCF
               by Justin Turney, Rob Parrish, Andy Simmonett
                          and Daniel G. A. Smith
                              RHF Reference
                        1 Threads,    500 MiB Core
         ---------------------------------------------------------

  ==> Geometry <==

    Molecular point group: c1
    Full point group: C1

    Geometry (in Angstrom), charge = 0, multiplicity = 1:

       Center              X                  Y                   Z               Mass
    ------------   -----------------  -----------------  -----------------  -----------------
         C            0.497875384568    -2.545706426118    -0.470041206833    12.000000000000
         C           -0.462124615432    -3.678706426118    -0.116041206833    12.000000000000
         C            0.823875384568    -2.499706426118    -1.952041206833    12.000000000000
         H            0.030875384568    -1.599706426118    -0.189041206833     1.007825032230
         H            1.416875384568    -2.640706426118     0.109958793167     1.007825032230
         H           -0.041124615432    -4.613706426118    -0.496041206833     1.007825032230
         H           -0.000124615432    -2.919706426118    -2.523041206833     1.007825032230
         H            0.958875384568    -1.462706426118    -2.257041206833     1.007825032230
         H           -1.451224615432    -3.487996426118    -0.557991206833     1.007825032230
         H           -0.565254615432    -3.776026426118     0.974778793167     1.007825032230
         H            1.738805384568    -3.068716426118    -2.173691206833     1.007825032230
         C           -2.343124615432     1.869293573882     1.365958793167    12.000000000000
         C            0.443875384568     1.257293573882    -1.158041206833    12.000000000000
         C           -0.810124615432     1.526293573882    -0.612041206833    12.000000000000
         C            1.539875384568     1.036293573882    -0.318041206833    12.000000000000
         C           -0.986124615432     1.575293573882     0.775958793167    12.000000000000
         C            1.375875384568     1.083293573882     1.070958793167    12.000000000000
         C            0.113875384568     1.351293573882     1.612958793167    12.000000000000
         H            0.561875384568     1.213293573882    -2.225041206833     1.007825032230
         H           -1.647124615432     1.703293573882    -1.270041206833     1.007825032230
         H            2.514875384568     0.836293573882    -0.741041206833     1.007825032230
         H            2.221875384568     0.917293573882     1.722958793167     1.007825032230
         H           -2.858124615432     2.586293573882     0.726958793167     1.007825032230
         H           -2.208124615432     2.350293573882     2.334958793167     1.007825032230
         H           -0.007124615432     1.376293573882     2.683958793167     1.007825032230
         H           -2.972824615432     0.977823573882     1.502938793167     1.007825032230

  Running in c1 symmetry.

  Rotational constants: A =      0.05422  B =      0.02198  C =      0.01965 [cm^-1]
  Rotational constants: A =   1625.46753  B =    658.85780  C =    589.03345 [MHz]
  Nuclear repulsion =  493.916727309944804

  Charge       = 0
  Multiplicity = 1
  Electrons    = 76
  Nalpha       = 38
  Nbeta        = 38

  ==> Algorithm <==

  SCF Algorithm Type is PK.
  DIIS enabled.
  MOM disabled.
  Fractional occupation disabled.
  Guess Type is SAD.
  Energy threshold   = 1.00e-06
  Density threshold  = 1.00e-10
  Integral threshold = 0.00e+00

  ==> Primary Basis <==

  Basis Set: CC-PVDZ
    Blend: CC-PVDZ
    Number of shells: 108
    Number of basis function: 220
    Number of Cartesian functions: 230
    Spherical Harmonics?: true
    Max angular momentum: 2

  ==> Pre-Iterations <==

   -------------------------------------------------------
    Irrep   Nso     Nmo     Nalpha   Nbeta   Ndocc  Nsocc
   -------------------------------------------------------
     A        220     220       0       0       0       0
   -------------------------------------------------------
    Total     220     220      38      38      38       0
   -------------------------------------------------------

  ==> Integral Setup <==

  Using integral reordering PK algorithm.
  Sizing the integral batches needed.
  Building batch lookup table.
   Calculation information:
      Number of atoms:                  26
      Number of AO shells:             108
      Number of primitives:            300
      Number of atomic orbitals:       230
      Number of basis functions:       220

      Integral cutoff                 1.00e-12
      Number of threads:                 1

	Batch   1 pq = [       0,    9405] index = [             0,44231715] size =     44231715
	Batch   2 pq = [    9405,   13301] index = [      44231715,88464951] size =     44233236
	Batch   3 pq = [   13301,   16290] index = [      88464951,132690195] size =     44225244
	Batch   4 pq = [   16290,   18810] index = [     132690195,176917455] size =     44227260
	Batch   5 pq = [   18810,   21030] index = [     176917455,221140965] size =     44223510
	Batch   6 pq = [   21030,   23037] index = [     221140965,265363203] size =     44222238
	Batch   7 pq = [   23037,   24310] index = [     265363203,295500205] size =     30137002
  Task number: 27
  Buffer size: 11059200
  Buffer per thread: 2
  We computed 16321343 shell quartets total.
  Whereas there are 17325441 unique shell quartets.

  ==> DiskJK: Disk-Based J/K Matrices <==

    J tasked:                  Yes
    K tasked:                  Yes
    wK tasked:                  No
    Memory [MiB]:              375
    Schwarz Cutoff:          1E-12

    OpenMP threads:              1

  Minimum eigenvalue in the overlap matrix is 3.2323529990E-04.
  Using Symmetric Orthogonalization.

  SCF Guess: Superposition of Atomic Densities via on-the-fly atomic UHF.

  ==> Iterations <==

                        Total Energy        Delta E     RMS |[F,P]|

   @RHF iter SAD:  -386.83854757032339   -3.86839e+02   0.00000e+00
   @RHF iter   1:  -387.77019126205386   -9.31644e-01   2.74749e-03 DIIS
   @RHF iter   2:  -387.98823871109028   -2.18047e-01   1.15726e-03 DIIS
   @RHF iter   3:  -388.02345418948767   -3.52155e-02   2.49815e-04 DIIS
   @RHF iter   4:  -388.02633680537133   -2.88262e-03   5.19390e-05 DIIS
   @RHF iter   5:  -388.02642540702828   -8.86017e-05   1.62069e-05 DIIS
   @RHF iter   6:  -388.02643367367784   -8.26665e-06   4.90757e-06 DIIS
   @RHF iter   7:  -388.02643449626203   -8.22584e-07   1.15203e-06 DIIS
   @RHF iter   8:  -388.02643455038094   -5.41189e-08   2.64422e-07 DIIS
   @RHF iter   9:  -388.02643455560820   -5.22726e-09   9.92105e-08 DIIS
   @RHF iter  10:  -388.02643455657358   -9.65372e-10   4.87756e-08 DIIS
   @RHF iter  11:  -388.02643455688559   -3.12014e-10   1.96431e-08 DIIS
   @RHF iter  12:  -388.02643455695255   -6.69615e-11   8.49141e-09 DIIS
   @RHF iter  13:  -388.02643455696307   -1.05160e-11   3.89661e-09 DIIS
   @RHF iter  14:  -388.02643455696438   -1.30740e-12   9.65453e-10 DIIS
   @RHF iter  15:  -388.02643455696477   -3.97904e-13   2.81874e-10 DIIS
   @RHF iter  16:  -388.02643455696443    3.41061e-13   9.60374e-11 DIIS
  Energy and wave function converged.

  ==> Post-Iterations <==

    Orbital Energies [Eh]
    ---------------------

    Doubly Occupied:

       1A    -11.244129     2A    -11.238710     3A    -11.237378
       4A    -11.234263     5A    -11.233532     6A    -11.233071
       7A    -11.230633     8A    -11.210682     9A    -11.206997
      10A    -11.206381    11A     -1.150567    12A     -1.047228
      13A     -1.042982    14A     -1.012074    15A     -0.931258
      16A     -0.916738    17A     -0.825292    18A     -0.796670
      19A     -0.786808    20A     -0.691090    21A     -0.633632
      22A     -0.630100    23A     -0.618207    24A     -0.590807
      25A     -0.584464    26A     -0.577503    27A     -0.562424
      28A     -0.538069    29A     -0.535252    30A     -0.529537
      31A     -0.487278    32A     -0.486082    33A     -0.483185
      34A     -0.463352    35A     -0.462379    36A     -0.451097
      37A     -0.333085    38A     -0.321777

    Virtual:

      39A      0.132450    40A      0.137194    41A      0.175743
      42A      0.194789    43A      0.201863    44A      0.212940
      45A      0.236175    46A      0.239259    47A      0.243007
      48A      0.251932    49A      0.258086    50A      0.269769
      51A      0.277997    52A      0.283258    53A      0.287893
      54A      0.294638    55A      0.303828    56A      0.346266
      57A      0.363575    58A      0.373936    59A      0.391419
      60A      0.431789    61A      0.449785    62A      0.462689
      63A      0.476989    64A      0.487741    65A      0.561223
      66A      0.585886    67A      0.595964    68A      0.608597
      69A      0.612144    70A      0.632815    71A      0.638630
      72A      0.643383    73A      0.676706    74A      0.685185
      75A      0.705834    76A      0.735553    77A      0.741627
      78A      0.742942    79A      0.754354    80A      0.763942
      81A      0.772582    82A      0.776644    83A      0.782912
      84A      0.803735    85A      0.834302    86A      0.851468
      87A      0.854626    88A      0.860066    89A      0.869006
      90A      0.873636    91A      0.886688    92A      0.890572
      93A      0.893373    94A      0.897508    95A      0.902170
      96A      0.908437    97A      0.911033    98A      0.923784
      99A      0.928993   100A      0.936056   101A      0.942241
     102A      0.945571   103A      0.952397   104A      0.980393
     105A      0.998751   106A      1.004350   107A      1.041469
     108A      1.109596   109A      1.112766   110A      1.116447
     111A      1.122921   112A      1.141302   113A      1.147961
     114A      1.159839   115A      1.185758   116A      1.234651
     117A      1.236581   118A      1.239282   119A      1.249792
     120A      1.268282   121A      1.292559   122A      1.307510
     123A      1.315540   124A      1.321249   125A      1.401403
     126A      1.421003   127A      1.460010   128A      1.490403
     129A      1.510833   130A      1.516871   131A      1.554808
     132A      1.559199   133A      1.596708   134A      1.660552
     135A      1.676002   136A      1.679445   137A      1.691665
     138A      1.699654   139A      1.723626   140A      1.737061
     141A      1.747117   142A      1.765855   143A      1.786876
     144A      1.821838   145A      1.841405   146A      1.854116
     147A      1.872924   148A      1.878735   149A      1.885849
     150A      1.895287   151A      1.907823   152A      1.912521
     153A      1.913850   154A      1.932490   155A      1.939499
     156A      1.945109   157A      1.948474   158A      1.962795
     159A      1.969775   160A      1.973763   161A      1.979142
     162A      1.988609   163A      1.990971   164A      2.002335
     165A      2.009649   166A      2.032930   167A      2.044920
     168A      2.060774   169A      2.062303   170A      2.074498
     171A      2.109688   172A      2.145614   173A      2.152947
     174A      2.156360   175A      2.166678   176A      2.171671
     177A      2.185295   178A      2.211355   179A      2.251771
     180A      2.271784   181A      2.277583   182A      2.289449
     183A      2.299360   184A      2.306789   185A      2.310295
     186A      2.327877   187A      2.350199   188A      2.369427
     189A      2.459824   190A      2.469978   191A      2.470818
     192A      2.485841   193A      2.535350   194A      2.541581
     195A      2.564644   196A      2.615253   197A      2.624711
     198A      2.674906   199A      2.742015   200A      2.749416
     201A      2.765348   202A      2.769475   203A      2.778934
     204A      2.792719   205A      2.797013   206A      2.808124
     207A      2.848201   208A      2.856335   209A      2.867884
     210A      2.901924   211A      2.945637   212A      2.967192
     213A      2.978116   214A      3.002428   215A      3.017250
     216A      3.067002   217A      3.146446   218A      3.190141
     219A      3.287755   220A      3.950617

    Final Occupation by Irrep:
              A
    DOCC [    38 ]

  @RHF Final Energy:  -388.02643455696443

   => Energetics <=

    Nuclear Repulsion Energy =            493.9167273099448039
    One-Electron Energy =               -1502.3568991431284303
    Two-Electron Energy =                 620.4137372762191944
    Total Energy =                       -388.0264345569644320

Computation Completed

Properties will be evaluated at   0.000000,   0.000000,   0.000000 [a0]

Properties computed using the SCF density matrix

  Nuclear Dipole Moment: [e a0]
     X:    -2.1627      Y:   -10.8825      Z:    -2.2279

  Electronic Dipole Moment: [e a0]
     X:     2.0536      Y:    11.0400      Z:     2.3412

  Dipole Moment: [e a0]
     X:    -0.1091      Y:     0.1575      Z:     0.1134     Total:     0.2226

  Dipole Moment: [D]
     X:    -0.2774      Y:     0.4003      Z:     0.2881     Total:     0.5658

*** tstop() called on ds3 at Sun Apr 26 17:16:19 2020
Module time:
	user time   =     115.29 seconds =       1.92 minutes
	system time =      43.81 seconds =       0.73 minutes
	total time  =        241 seconds =       4.02 minutes
Total time:
	user time   =     115.29 seconds =       1.92 minutes
	system time =      43.81 seconds =       0.73 minutes
	total time  =        241 seconds =       4.02 minutes
                                     G D M A

                                 by Anthony Stone

                           version 2.2.06, 22 June 2011

               Distributed Multipoles from Gaussian wavefunctions

Starting at 17:16:19 on 26 Apr 2020

Using SCF density matrix from file ./SSI/SSI-112ARG-125PHE-1-dimer.test.17893.fchk

                         Distributed Multipole Analysis

Standard DMA

Positions and radii in angstrom
Multipole moments in atomic units, ea_0^k for rank k

C          x =  0.497875  y = -2.545706  z = -0.470041 angstrom
           Maximum rank =  0   Radius =  0.650 angstrom
                   Q00  =  -0.105159

C          x = -0.462125  y = -3.678706  z = -0.116041 angstrom
           Maximum rank =  0   Radius =  0.650 angstrom
                   Q00  =  -0.230680

C          x =  0.823875  y = -2.499706  z = -1.952041 angstrom
           Maximum rank =  0   Radius =  0.650 angstrom
                   Q00  =  -0.226641

H          x =  0.030875  y = -1.599706  z = -0.189041 angstrom
           Maximum rank =  0   Radius =  0.325 angstrom
                   Q00  =   0.062153

H          x =  1.416875  y = -2.640706  z =  0.109959 angstrom
           Maximum rank =  0   Radius =  0.325 angstrom
                   Q00  =   0.041968

H          x = -0.041125  y = -4.613706  z = -0.496041 angstrom
           Maximum rank =  0   Radius =  0.325 angstrom
                   Q00  =   0.068545

H          x = -0.000125  y = -2.919706  z = -2.523041 angstrom
           Maximum rank =  0   Radius =  0.325 angstrom
                   Q00  =   0.070887

H          x =  0.958875  y = -1.462706  z = -2.257041 angstrom
           Maximum rank =  0   Radius =  0.325 angstrom
                   Q00  =   0.085838

H          x = -1.451225  y = -3.487996  z = -0.557991 angstrom
           Maximum rank =  0   Radius =  0.325 angstrom
                   Q00  =   0.076239

H          x = -0.565255  y = -3.776026  z =  0.974779 angstrom
           Maximum rank =  0   Radius =  0.325 angstrom
                   Q00  =   0.079766

H          x =  1.738805  y = -3.068716  z = -2.173691 angstrom
           Maximum rank =  0   Radius =  0.325 angstrom
                   Q00  =   0.073751

C          x = -2.343125  y =  1.869294  z =  1.365959 angstrom
           Maximum rank =  0   Radius =  0.650 angstrom
                   Q00  =  -0.199246

C          x =  0.443875  y =  1.257294  z = -1.158041 angstrom
           Maximum rank =  0   Radius =  0.650 angstrom
                   Q00  =  -0.079352

C          x = -0.810125  y =  1.526294  z = -0.612041 angstrom
           Maximum rank =  0   Radius =  0.650 angstrom
                   Q00  =  -0.022062

C          x =  1.539875  y =  1.036294  z = -0.318041 angstrom
           Maximum rank =  0   Radius =  0.650 angstrom
                   Q00  =  -0.089057

C          x = -0.986125  y =  1.575294  z =  0.775959 angstrom
           Maximum rank =  0   Radius =  0.650 angstrom
                   Q00  =  -0.103279

C          x =  1.375875  y =  1.083294  z =  1.070959 angstrom
           Maximum rank =  0   Radius =  0.650 angstrom
                   Q00  =  -0.067338

C          x =  0.113875  y =  1.351294  z =  1.612959 angstrom
           Maximum rank =  0   Radius =  0.650 angstrom
                   Q00  =  -0.054832

H          x =  0.561875  y =  1.213294  z = -2.225041 angstrom
           Maximum rank =  0   Radius =  0.325 angstrom
                   Q00  =   0.066918

H          x = -1.647125  y =  1.703294  z = -1.270041 angstrom
           Maximum rank =  0   Radius =  0.325 angstrom
                   Q00  =   0.058261

H          x =  2.514875  y =  0.836294  z = -0.741041 angstrom
           Maximum rank =  0   Radius =  0.325 angstrom
                   Q00  =   0.063718

H          x =  2.221875  y =  0.917294  z =  1.722959 angstrom
           Maximum rank =  0   Radius =  0.325 angstrom
                   Q00  =   0.067768

H          x = -2.858125  y =  2.586294  z =  0.726959 angstrom
           Maximum rank =  0   Radius =  0.325 angstrom
                   Q00  =   0.098911

H          x = -2.208125  y =  2.350294  z =  2.334959 angstrom
           Maximum rank =  0   Radius =  0.325 angstrom
                   Q00  =   0.097591

H          x = -0.007125  y =  1.376294  z =  2.683959 angstrom
           Maximum rank =  0   Radius =  0.325 angstrom
                   Q00  =   0.059417

H          x = -2.972825  y =  0.977824  z =  1.502939 angstrom
           Maximum rank =  0   Radius =  0.325 angstrom
                   Q00  =   0.105914

Total multipoles referred to origin at
           x =   0.000000,  y =    0.000000,  z =    0.000000 angstrom
                   Q00  =  -0.000000

Finished at 17:16:19 on 26 Apr 2020

  DMA results are available in the Python driver through the
	  variable('DMA DISTRIBUTED MULTIPOLES')
  and
	  variable('DMA TOTAL MULTIPOLES')
  commands.

    Psi4 stopped on: Sunday, 26 April 2020 05:16PM
    Psi4 wall time for execution: 0:04:01.44

*** Psi4 exiting successfully. Buy a developer a beer!
