                               Psi4 1.3.2 release

  ==> Input File <==

--------------------------------------------------------------------------
import numpy as np
set {scf_type pk
basis cc-pvdz
d_convergence 10
gdma_switch   0
gdma_limit    0
gdma_origin   [ 0.0,  0.0,  0.0 ]
}
molecule test {
    units Angstrom
    0 1
    --
    0 1
    C                1.896769773285357    -0.462561107185193    -0.114187337937108
    C                2.444769773285357    -1.885561107185193    -0.149187337937108
    H                2.605769773285357     0.246438892814807    -0.540187337937108
    H                0.992769773285357    -0.421561107185193    -0.723187337937108
    H                1.640769773285357    -0.179561107185193     0.905812662062892
    H                2.658769773285357    -2.100561107185193    -1.173187337937107
    H                3.340609773285357    -1.980951107185193     0.481985662062892
    H                1.678229773285357    -2.597871107185193     0.189971662062892
    C               -1.597230226714643     0.698438892814807     0.310812662062892
    C               -2.738230226714643     1.651438892814807    -0.039187337937108
    H               -1.851230226714643     0.146438892814807     1.203812662062892
    H               -1.444230226714643    -0.021561107185193    -0.491187337937108
    H               -0.649230226714643     1.218438892814807     0.444812662062892
    H               -2.482230226714643     2.149438892814807    -0.975187337937108
    H               -2.874060226714644     2.407778892814807     0.747894662062892
    H               -3.688320226714644     1.112628892814807    -0.169592337937108

}
e, wfn = energy('scf', return_wfn=True)
gdma(wfn)
dmavals = variable('DMA DISTRIBUTED MULTIPOLES')
charges = np.array(dmavals)
print(charges)
np.save('SSI-012LEU-047ILE-1-dimer.npy', np.array(charges))--------------------------------------------------------------------------

*** tstart() called on ds3
*** at Tue Apr 28 12:10:58 2020

   => Loading Basis Set <=

    Name: CC-PVDZ
    Role: ORBITAL
    Keyword: BASIS
    atoms 1-2, 9-10  entry C          line   138 file /theoryfs2/ds/metcalf/miniconda2/envs/tf2gpu/share/psi4/basis/cc-pvdz.gbs
    atoms 3-8, 11-16 entry H          line    22 file /theoryfs2/ds/metcalf/miniconda2/envs/tf2gpu/share/psi4/basis/cc-pvdz.gbs

         ---------------------------------------------------------
                                   SCF
               by Justin Turney, Rob Parrish, Andy Simmonett
                          and Daniel G. A. Smith
                              RHF Reference
                        1 Threads,    500 MiB Core
         ---------------------------------------------------------

  ==> Geometry <==

    Molecular point group: c1
    Full point group: C1

    Geometry (in Angstrom), charge = 0, multiplicity = 1:

       Center              X                  Y                   Z               Mass
    ------------   -----------------  -----------------  -----------------  -----------------
         C            1.896769773285    -0.462561107185    -0.114187337937    12.000000000000
         C            2.444769773285    -1.885561107185    -0.149187337937    12.000000000000
         H            2.605769773285     0.246438892815    -0.540187337937     1.007825032230
         H            0.992769773285    -0.421561107185    -0.723187337937     1.007825032230
         H            1.640769773285    -0.179561107185     0.905812662063     1.007825032230
         H            2.658769773285    -2.100561107185    -1.173187337937     1.007825032230
         H            3.340609773285    -1.980951107185     0.481985662063     1.007825032230
         H            1.678229773285    -2.597871107185     0.189971662063     1.007825032230
         C           -1.597230226715     0.698438892815     0.310812662063    12.000000000000
         C           -2.738230226715     1.651438892815    -0.039187337937    12.000000000000
         H           -1.851230226715     0.146438892815     1.203812662063     1.007825032230
         H           -1.444230226715    -0.021561107185    -0.491187337937     1.007825032230
         H           -0.649230226715     1.218438892815     0.444812662063     1.007825032230
         H           -2.482230226715     2.149438892815    -0.975187337937     1.007825032230
         H           -2.874060226715     2.407778892815     0.747894662063     1.007825032230
         H           -3.688320226715     1.112628892815    -0.169592337937     1.007825032230

  Running in c1 symmetry.

  Rotational constants: A =      0.76040  B =      0.04134  C =      0.04063 [cm^-1]
  Rotational constants: A =  22796.36555  B =   1239.47130  C =   1218.18787 [MHz]
  Nuclear repulsion =  120.567869511962371

  Charge       = 0
  Multiplicity = 1
  Electrons    = 36
  Nalpha       = 18
  Nbeta        = 18

  ==> Algorithm <==

  SCF Algorithm Type is PK.
  DIIS enabled.
  MOM disabled.
  Fractional occupation disabled.
  Guess Type is SAD.
  Energy threshold   = 1.00e-06
  Density threshold  = 1.00e-10
  Integral threshold = 0.00e+00

  ==> Primary Basis <==

  Basis Set: CC-PVDZ
    Blend: CC-PVDZ
    Number of shells: 60
    Number of basis function: 116
    Number of Cartesian functions: 120
    Spherical Harmonics?: true
    Max angular momentum: 2

  ==> Pre-Iterations <==

   -------------------------------------------------------
    Irrep   Nso     Nmo     Nalpha   Nbeta   Ndocc  Nsocc
   -------------------------------------------------------
     A        116     116       0       0       0       0
   -------------------------------------------------------
    Total     116     116      18      18      18       0
   -------------------------------------------------------

  ==> Integral Setup <==

  Using integral reordering PK algorithm.
  Sizing the integral batches needed.
  Building batch lookup table.
   Calculation information:
      Number of atoms:                  16
      Number of AO shells:              60
      Number of primitives:            148
      Number of atomic orbitals:       120
      Number of basis functions:       116

      Integral cutoff                 1.00e-12
      Number of threads:                 1

	Batch   1 pq = [       0,    6786] index = [             0,23028291] size =     23028291
  Task number: 3
  Buffer size: 11059200
  Buffer per thread: 2
  We computed 1364068 shell quartets total.
  Whereas there are 1675365 unique shell quartets.

  ==> DiskJK: Disk-Based J/K Matrices <==

    J tasked:                  Yes
    K tasked:                  Yes
    wK tasked:                  No
    Memory [MiB]:              375
    Schwarz Cutoff:          1E-12

    OpenMP threads:              1

  Minimum eigenvalue in the overlap matrix is 6.9390435200E-03.
  Using Symmetric Orthogonalization.

  SCF Guess: Superposition of Atomic Densities via on-the-fly atomic UHF.

  ==> Iterations <==

                        Total Energy        Delta E     RMS |[F,P]|

   @RHF iter SAD:  -157.37257386762158   -1.57373e+02   0.00000e+00
   @RHF iter   1:  -158.30570788432368   -9.33134e-01   4.23020e-03 DIIS
   @RHF iter   2:  -158.43993654374032   -1.34229e-01   1.79978e-03 DIIS
   @RHF iter   3:  -158.46342052044199   -2.34840e-02   3.50569e-04 DIIS
   @RHF iter   4:  -158.46526100390179   -1.84048e-03   3.90973e-05 DIIS
   @RHF iter   5:  -158.46528506468113   -2.40608e-05   6.61893e-06 DIIS
   @RHF iter   6:  -158.46528571544636   -6.50765e-07   1.07790e-06 DIIS
   @RHF iter   7:  -158.46528572711813   -1.16718e-08   3.20293e-07 DIIS
   @RHF iter   8:  -158.46528572804229   -9.24160e-10   4.40721e-08 DIIS
   @RHF iter   9:  -158.46528572807381   -3.15197e-11   9.44865e-09 DIIS
   @RHF iter  10:  -158.46528572807574   -1.93268e-12   2.55398e-09 DIIS
   @RHF iter  11:  -158.46528572807546    2.84217e-13   7.72739e-10 DIIS
   @RHF iter  12:  -158.46528572807532    1.42109e-13   1.78554e-10 DIIS
   @RHF iter  13:  -158.46528572807600   -6.82121e-13   2.81260e-11 DIIS
  Energy and wave function converged.

  ==> Post-Iterations <==

    Orbital Energies [Eh]
    ---------------------

    Doubly Occupied:

       1A    -11.219163     2A    -11.216152     3A    -11.214810
       4A    -11.214779     5A     -1.020338     6A     -1.017516
       7A     -0.840924     8A     -0.834228     9A     -0.603733
      10A     -0.601487    11A     -0.594516    12A     -0.592667
      13A     -0.508669    14A     -0.498219    15A     -0.489553
      16A     -0.486308    17A     -0.481493    18A     -0.478918

    Virtual:

      19A      0.177243    20A      0.194171    21A      0.225220
      22A      0.235381    23A      0.245216    24A      0.259065
      25A      0.267007    26A      0.279097    27A      0.282114
      28A      0.287297    29A      0.299816    30A      0.330518
      31A      0.394793    32A      0.408357    33A      0.573469
      34A      0.590200    35A      0.600603    36A      0.606673
      37A      0.608392    38A      0.628355    39A      0.671258
      40A      0.689298    41A      0.696190    42A      0.768710
      43A      0.849463    44A      0.877743    45A      0.891125
      46A      0.891905    47A      0.894115    48A      0.901143
      49A      0.902586    50A      0.908230    51A      0.915340
      52A      0.918620    53A      0.924520    54A      0.948005
      55A      0.975572    56A      0.985264    57A      1.121158
      58A      1.132312    59A      1.134939    60A      1.166693
      61A      1.229146    62A      1.249484    63A      1.462632
      64A      1.471333    65A      1.485700    66A      1.489579
      67A      1.562846    68A      1.587336    69A      1.681950
      70A      1.684175    71A      1.696425    72A      1.702459
      73A      1.855190    74A      1.864799    75A      1.867908
      76A      1.881922    77A      1.895659    78A      1.923259
      79A      1.930609    80A      1.941859    81A      1.944645
      82A      1.948120    83A      1.955903    84A      1.958806
      85A      1.974321    86A      1.984342    87A      1.994313
      88A      2.028069    89A      2.077902    90A      2.100672
      91A      2.119242    92A      2.127368    93A      2.297080
      94A      2.307479    95A      2.318561    96A      2.336407
      97A      2.453025    98A      2.461325    99A      2.465505
     100A      2.491080   101A      2.546939   102A      2.560257
     103A      2.580917   104A      2.591505   105A      2.759072
     106A      2.773129   107A      2.793437   108A      2.797383
     109A      2.848439   110A      2.858226   111A      2.872087
     112A      2.879796   113A      2.946031   114A      2.962119
     115A      2.963906   116A      2.981242

    Final Occupation by Irrep:
              A
    DOCC [    18 ]

  @RHF Final Energy:  -158.46528572807600

   => Energetics <=

    Nuclear Repulsion Energy =            120.5678695119623711
    One-Electron Energy =                -450.2393643249205866
    Two-Electron Energy =                 171.2062090848822038
    Total Energy =                       -158.4652857280759974

Computation Completed

Properties will be evaluated at   0.000000,   0.000000,   0.000000 [a0]

Properties computed using the SCF density matrix

  Nuclear Dipole Moment: [e a0]
     X:    -0.0679      Y:    -0.0196      Z:    -0.0921

  Electronic Dipole Moment: [e a0]
     X:     0.0652      Y:     0.0158      Z:     0.0736

  Dipole Moment: [e a0]
     X:    -0.0026      Y:    -0.0038      Z:    -0.0185     Total:     0.0190

  Dipole Moment: [D]
     X:    -0.0067      Y:    -0.0096      Z:    -0.0470     Total:     0.0484

*** tstop() called on ds3 at Tue Apr 28 12:11:08 2020
Module time:
	user time   =       7.57 seconds =       0.13 minutes
	system time =       3.64 seconds =       0.06 minutes
	total time  =         10 seconds =       0.17 minutes
Total time:
	user time   =       7.57 seconds =       0.13 minutes
	system time =       3.64 seconds =       0.06 minutes
	total time  =         10 seconds =       0.17 minutes
                                     G D M A

                                 by Anthony Stone

                           version 2.2.06, 22 June 2011

               Distributed Multipoles from Gaussian wavefunctions

Starting at 12:11:8 on 28 Apr 2020

Using SCF density matrix from file ./SSI/SSI-012LEU-047ILE-1-dimer.test.9530.fchk

                         Distributed Multipole Analysis

Standard DMA

Positions and radii in angstrom
Multipole moments in atomic units, ea_0^k for rank k

C          x =  1.896770  y = -0.462561  z = -0.114187 angstrom
           Maximum rank =  0   Radius =  0.650 angstrom
                   Q00  =  -0.246085

C          x =  2.444770  y = -1.885561  z = -0.149187 angstrom
           Maximum rank =  0   Radius =  0.650 angstrom
                   Q00  =  -0.226953

H          x =  2.605770  y =  0.246439  z = -0.540187 angstrom
           Maximum rank =  0   Radius =  0.325 angstrom
                   Q00  =   0.078867

H          x =  0.992770  y = -0.421561  z = -0.723187 angstrom
           Maximum rank =  0   Radius =  0.325 angstrom
                   Q00  =   0.078936

H          x =  1.640770  y = -0.179561  z =  0.905813 angstrom
           Maximum rank =  0   Radius =  0.325 angstrom
                   Q00  =   0.078259

H          x =  2.658770  y = -2.100561  z = -1.173187 angstrom
           Maximum rank =  0   Radius =  0.325 angstrom
                   Q00  =   0.080106

H          x =  3.340610  y = -1.980951  z =  0.481986 angstrom
           Maximum rank =  0   Radius =  0.325 angstrom
                   Q00  =   0.079428

H          x =  1.678230  y = -2.597871  z =  0.189972 angstrom
           Maximum rank =  0   Radius =  0.325 angstrom
                   Q00  =   0.077111

C          x = -1.597230  y =  0.698439  z =  0.310813 angstrom
           Maximum rank =  0   Radius =  0.650 angstrom
                   Q00  =  -0.243043

C          x = -2.738230  y =  1.651439  z = -0.039187 angstrom
           Maximum rank =  0   Radius =  0.650 angstrom
                   Q00  =  -0.231632

H          x = -1.851230  y =  0.146439  z =  1.203813 angstrom
           Maximum rank =  0   Radius =  0.325 angstrom
                   Q00  =   0.079385

H          x = -1.444230  y = -0.021561  z = -0.491187 angstrom
           Maximum rank =  0   Radius =  0.325 angstrom
                   Q00  =   0.075666

H          x = -0.649230  y =  1.218439  z =  0.444813 angstrom
           Maximum rank =  0   Radius =  0.325 angstrom
                   Q00  =   0.083213

H          x = -2.482230  y =  2.149439  z = -0.975187 angstrom
           Maximum rank =  0   Radius =  0.325 angstrom
                   Q00  =   0.077407

H          x = -2.874060  y =  2.407779  z =  0.747895 angstrom
           Maximum rank =  0   Radius =  0.325 angstrom
                   Q00  =   0.079210

H          x = -3.688320  y =  1.112629  z = -0.169592 angstrom
           Maximum rank =  0   Radius =  0.325 angstrom
                   Q00  =   0.080124

Total multipoles referred to origin at
           x =   0.000000,  y =    0.000000,  z =    0.000000 angstrom
                   Q00  =  -0.000000

Finished at 12:11:8 on 28 Apr 2020

  DMA results are available in the Python driver through the
	  variable('DMA DISTRIBUTED MULTIPOLES')
  and
	  variable('DMA TOTAL MULTIPOLES')
  commands.

    Psi4 stopped on: Tuesday, 28 April 2020 12:11PM
    Psi4 wall time for execution: 0:00:10.84

*** Psi4 exiting successfully. Buy a developer a beer!
