                               Psi4 1.3.2 release

  ==> Input File <==

--------------------------------------------------------------------------
import numpy as np
set {scf_type pk
basis cc-pvdz
d_convergence 10
gdma_switch   0
gdma_limit    0
gdma_origin   [ 0.0,  0.0,  0.0 ]
}
molecule test {
    units Angstrom
    0 1
    --
    0 1
    C               -0.063983604421154     2.759469996896388    -2.240064181593973
    C                0.747016395578846     0.421469996896388    -1.405064181592973
    C                0.907016395578846     1.639469996896388    -2.151064181592973
    C                1.970016395578847    -0.297530003103612    -1.499064181592973
    C                2.168016395578846     1.613469996896389    -2.659064181592973
    C               -0.110983604421154    -1.375530003103612    -0.041064181592973
    C                1.110016395578847    -2.058530003103611    -0.152064181592973
    C               -0.303983604421154    -0.135530003103612    -0.660064181592973
    C                2.164016395578846    -1.528530003103612    -0.880064181592973
    N                2.810016395578847     0.461469996896388    -2.271064181593974
    H               -0.918983604421154    -1.851530003103611     0.491935818407027
    H                1.223016395578846    -3.022530003103611     0.321935818407027
    H               -1.249983604421153     0.380469996896388    -0.583064181592973
    H                3.098016395578846    -2.061530003103612    -0.982064181592973
    H                0.528016395578846     3.668469996896389    -2.241064181592973
    H               -0.640983604421154     2.752469996896389    -1.314064181592973
    H                2.608016395578846     2.410469996896389    -3.247064181593974
    H                3.759016395578846     0.222469996896388    -2.524064181592974
    H               -0.748173604421154     2.783909996896389    -3.101044181592973
    C               -2.485983604421154    -0.567530003103611     2.842935818407026
    C               -4.002983604421154    -0.631530003103612     3.026935818407027
    C               -2.013983604421154     0.887469996896388     2.874935818407026
    C               -1.820983604421154    -1.374530003103612     3.961935818407027
    H               -2.233983604421153    -1.008530003103612     1.886935818406027
    H               -4.227983604421153    -0.142530003103612     3.976935818407027
    H               -4.300983604421154    -1.675530003103612     3.143935818406026
    H               -2.388983604421154     1.389469996896388     3.766935818407027
    H               -0.927983604421154     0.907469996896388     2.897935818407027
    H               -2.341983604421153     1.418469996896388     1.982935818407026
    H               -2.151983604421154    -2.411530003103612     3.919935818407027
    H               -0.741983604421154    -1.343530003103612     3.837935818407026
    H               -2.079983604421153    -0.951530003103612     4.933935818407027
    H               -4.625833604421153    -0.162410003103612     2.251065818407027

}
e, wfn = energy('scf', return_wfn=True)
gdma(wfn)
dmavals = variable('DMA DISTRIBUTED MULTIPOLES')
charges = np.array(dmavals)
print(charges)
np.save('SSI-071TRP-076LEU-1-dimer.npy', np.array(charges))--------------------------------------------------------------------------

*** tstart() called on ds3
*** at Sun Apr 26 17:59:28 2020

   => Loading Basis Set <=

    Name: CC-PVDZ
    Role: ORBITAL
    Keyword: BASIS
    atoms 1-9, 20-23   entry C          line   138 file /theoryfs2/ds/metcalf/miniconda2/envs/tf2gpu/share/psi4/basis/cc-pvdz.gbs
    atoms 10           entry N          line   168 file /theoryfs2/ds/metcalf/miniconda2/envs/tf2gpu/share/psi4/basis/cc-pvdz.gbs
    atoms 11-19, 24-33 entry H          line    22 file /theoryfs2/ds/metcalf/miniconda2/envs/tf2gpu/share/psi4/basis/cc-pvdz.gbs

         ---------------------------------------------------------
                                   SCF
               by Justin Turney, Rob Parrish, Andy Simmonett
                          and Daniel G. A. Smith
                              RHF Reference
                        1 Threads,    500 MiB Core
         ---------------------------------------------------------

  ==> Geometry <==

    Molecular point group: c1
    Full point group: C1

    Geometry (in Angstrom), charge = 0, multiplicity = 1:

       Center              X                  Y                   Z               Mass
    ------------   -----------------  -----------------  -----------------  -----------------
         C           -0.063983604421     2.759469996896    -2.240064181594    12.000000000000
         C            0.747016395579     0.421469996896    -1.405064181593    12.000000000000
         C            0.907016395579     1.639469996896    -2.151064181593    12.000000000000
         C            1.970016395579    -0.297530003104    -1.499064181593    12.000000000000
         C            2.168016395579     1.613469996896    -2.659064181593    12.000000000000
         C           -0.110983604421    -1.375530003104    -0.041064181593    12.000000000000
         C            1.110016395579    -2.058530003104    -0.152064181593    12.000000000000
         C           -0.303983604421    -0.135530003104    -0.660064181593    12.000000000000
         C            2.164016395579    -1.528530003104    -0.880064181593    12.000000000000
         N            2.810016395579     0.461469996896    -2.271064181594    14.003074004430
         H           -0.918983604421    -1.851530003104     0.491935818407     1.007825032230
         H            1.223016395579    -3.022530003104     0.321935818407     1.007825032230
         H           -1.249983604421     0.380469996896    -0.583064181593     1.007825032230
         H            3.098016395579    -2.061530003104    -0.982064181593     1.007825032230
         H            0.528016395579     3.668469996896    -2.241064181593     1.007825032230
         H           -0.640983604421     2.752469996896    -1.314064181593     1.007825032230
         H            2.608016395579     2.410469996896    -3.247064181594     1.007825032230
         H            3.759016395579     0.222469996896    -2.524064181593     1.007825032230
         H           -0.748173604421     2.783909996896    -3.101044181593     1.007825032230
         C           -2.485983604421    -0.567530003104     2.842935818407    12.000000000000
         C           -4.002983604421    -0.631530003104     3.026935818407    12.000000000000
         C           -2.013983604421     0.887469996896     2.874935818407    12.000000000000
         C           -1.820983604421    -1.374530003104     3.961935818407    12.000000000000
         H           -2.233983604421    -1.008530003104     1.886935818406     1.007825032230
         H           -4.227983604421    -0.142530003104     3.976935818407     1.007825032230
         H           -4.300983604421    -1.675530003104     3.143935818406     1.007825032230
         H           -2.388983604421     1.389469996896     3.766935818407     1.007825032230
         H           -0.927983604421     0.907469996896     2.897935818407     1.007825032230
         H           -2.341983604421     1.418469996896     1.982935818407     1.007825032230
         H           -2.151983604421    -2.411530003104     3.919935818407     1.007825032230
         H           -0.741983604421    -1.343530003104     3.837935818407     1.007825032230
         H           -2.079983604421    -0.951530003104     4.933935818407     1.007825032230
         H           -4.625833604421    -0.162410003104     2.251065818407     1.007825032230

  Running in c1 symmetry.

  Rotational constants: A =      0.03706  B =      0.00965  C =      0.00815 [cm^-1]
  Rotational constants: A =   1111.04951  B =    289.21586  C =    244.32836 [MHz]
  Nuclear repulsion =  829.391823502872853

  Charge       = 0
  Multiplicity = 1
  Electrons    = 104
  Nalpha       = 52
  Nbeta        = 52

  ==> Algorithm <==

  SCF Algorithm Type is PK.
  DIIS enabled.
  MOM disabled.
  Fractional occupation disabled.
  Guess Type is SAD.
  Energy threshold   = 1.00e-06
  Density threshold  = 1.00e-10
  Integral threshold = 0.00e+00

  ==> Primary Basis <==

  Basis Set: CC-PVDZ
    Blend: CC-PVDZ
    Number of shells: 141
    Number of basis function: 291
    Number of Cartesian functions: 305
    Spherical Harmonics?: true
    Max angular momentum: 2

  ==> Pre-Iterations <==

   -------------------------------------------------------
    Irrep   Nso     Nmo     Nalpha   Nbeta   Ndocc  Nsocc
   -------------------------------------------------------
     A        291     291       0       0       0       0
   -------------------------------------------------------
    Total     291     291      52      52      52       0
   -------------------------------------------------------

  ==> Integral Setup <==

  Using integral reordering PK algorithm.
  Sizing the integral batches needed.
  Building batch lookup table.
   Calculation information:
      Number of atoms:                  33
      Number of AO shells:             141
      Number of primitives:            403
      Number of atomic orbitals:       305
      Number of basis functions:       291

      Integral cutoff                 1.00e-12
      Number of threads:                 1

	Batch   1 pq = [       0,    9405] index = [             0,44231715] size =     44231715
	Batch   2 pq = [    9405,   13301] index = [      44231715,88464951] size =     44233236
	Batch   3 pq = [   13301,   16290] index = [      88464951,132690195] size =     44225244
	Batch   4 pq = [   16290,   18810] index = [     132690195,176917455] size =     44227260
	Batch   5 pq = [   18810,   21030] index = [     176917455,221140965] size =     44223510
	Batch   6 pq = [   21030,   23037] index = [     221140965,265363203] size =     44222238
	Batch   7 pq = [   23037,   24883] index = [     265363203,309594286] size =     44231083
	Batch   8 pq = [   24883,   26601] index = [     309594286,353819901] size =     44225615
	Batch   9 pq = [   26601,   28214] index = [     353819901,398029005] size =     44209104
	Batch  10 pq = [   28214,   29740] index = [     398029005,442248670] size =     44219665
	Batch  11 pq = [   29740,   31191] index = [     442248670,486454836] size =     44206166
	Batch  12 pq = [   31191,   32578] index = [     486454836,530679331] size =     44224495
	Batch  13 pq = [   32578,   33908] index = [     530679331,574893186] size =     44213855
	Batch  14 pq = [   33908,   35188] index = [     574893186,619115266] size =     44222080
	Batch  15 pq = [   35188,   36423] index = [     619115266,663335676] size =     44220410
	Batch  16 pq = [   36423,   37617] index = [     663335676,707538153] size =     44202477
	Batch  17 pq = [   37617,   38775] index = [     707538153,751769700] size =     44231547
	Batch  18 pq = [   38775,   39899] index = [     751769700,795985050] size =     44215350
	Batch  19 pq = [   39899,   40992] index = [     795985050,840192528] size =     44207478
	Batch  20 pq = [   40992,   42057] index = [     840192528,884416653] size =     44224125
	Batch  21 pq = [   42057,   42486] index = [     884416653,902551341] size =     18134688
  Task number: 82
  Buffer size: 11059200
  Buffer per thread: 2
  We computed 43525342 shell quartets total.
  Whereas there are 50115066 unique shell quartets.

  ==> DiskJK: Disk-Based J/K Matrices <==

    J tasked:                  Yes
    K tasked:                  Yes
    wK tasked:                  No
    Memory [MiB]:              375
    Schwarz Cutoff:          1E-12

    OpenMP threads:              1

  Minimum eigenvalue in the overlap matrix is 2.4046467664E-04.
  Using Symmetric Orthogonalization.

  SCF Guess: Superposition of Atomic Densities via on-the-fly atomic UHF.

  ==> Iterations <==

                        Total Energy        Delta E     RMS |[F,P]|

   @RHF iter SAD:  -557.13148735000709   -5.57131e+02   0.00000e+00
   @RHF iter   1:  -557.49023871861323   -3.58751e-01   2.42895e-03 DIIS
   @RHF iter   2:  -557.78011126378158   -2.89873e-01   1.08525e-03 DIIS
   @RHF iter   3:  -557.83283076643045   -5.27195e-02   2.76868e-04 DIIS
   @RHF iter   4:  -557.83743904958965   -4.60828e-03   1.23698e-04 DIIS
   @RHF iter   5:  -557.83816172282252   -7.22673e-04   1.92478e-05 DIIS
   @RHF iter   6:  -557.83819356019080   -3.18374e-05   8.38036e-06 DIIS
   @RHF iter   7:  -557.83820035249641   -6.79231e-06   3.07598e-06 DIIS
   @RHF iter   8:  -557.83820193515930   -1.58266e-06   1.31661e-06 DIIS
   @RHF iter   9:  -557.83820227047693   -3.35318e-07   5.84685e-07 DIIS
   @RHF iter  10:  -557.83820234117377   -7.06968e-08   2.56580e-07 DIIS
   @RHF iter  11:  -557.83820235868677   -1.75130e-08   9.83613e-08 DIIS
   @RHF iter  12:  -557.83820236134238   -2.65561e-09   3.30137e-08 DIIS
   @RHF iter  13:  -557.83820236151450   -1.72122e-10   1.13904e-08 DIIS
   @RHF iter  14:  -557.83820236153531   -2.08047e-11   3.51933e-09 DIIS
   @RHF iter  15:  -557.83820236154088   -5.57066e-12   1.83804e-09 DIIS
   @RHF iter  16:  -557.83820236153144    9.43601e-12   9.23651e-10 DIIS
   @RHF iter  17:  -557.83820236153429   -2.84217e-12   3.88621e-10 DIIS
   @RHF iter  18:  -557.83820236153144    2.84217e-12   1.44307e-10 DIIS
   @RHF iter  19:  -557.83820236154929   -1.78488e-11   5.27019e-11 DIIS
  Energy and wave function converged.

  ==> Post-Iterations <==

    Orbital Energies [Eh]
    ---------------------

    Doubly Occupied:

       1A    -15.601787     2A    -11.264676     3A    -11.263855
       4A    -11.232619     5A    -11.231122     6A    -11.229404
       7A    -11.224734     8A    -11.222104     9A    -11.221420
      10A    -11.218473    11A    -11.216609    12A    -11.210077
      13A    -11.209892    14A    -11.207331    15A     -1.295738
      16A     -1.127029    17A     -1.078675    18A     -1.075625
      19A     -0.996747    20A     -0.988321    21A     -0.932428
      22A     -0.923066    23A     -0.919847    24A     -0.840493
      25A     -0.804178    26A     -0.763470    27A     -0.752090
      28A     -0.720526    29A     -0.664223    30A     -0.644245
      31A     -0.628154    32A     -0.603922    33A     -0.592662
      34A     -0.589695    35A     -0.588670    36A     -0.579966
      37A     -0.568481    38A     -0.554011    39A     -0.538344
      40A     -0.532940    41A     -0.526529    42A     -0.523283
      43A     -0.503982    44A     -0.495850    45A     -0.471392
      46A     -0.461682    47A     -0.455607    48A     -0.454579
      49A     -0.451046    50A     -0.372796    51A     -0.294872
      52A     -0.275045

    Virtual:

      53A      0.123385    54A      0.166932    55A      0.170461
      56A      0.181093    57A      0.193089    58A      0.206576
      59A      0.212191    60A      0.221612    61A      0.225569
      62A      0.237534    63A      0.242106    64A      0.251426
      65A      0.258466    66A      0.263865    67A      0.270924
      68A      0.288631    69A      0.295855    70A      0.307342
      71A      0.312036    72A      0.321250    73A      0.337846
      74A      0.350276    75A      0.373332    76A      0.378749
      77A      0.383154    78A      0.404962    79A      0.410196
      80A      0.413493    81A      0.423892    82A      0.460249
      83A      0.470841    84A      0.482992    85A      0.509846
      86A      0.516439    87A      0.570119    88A      0.572697
      89A      0.599714    90A      0.606039    91A      0.615842
      92A      0.627219    93A      0.634437    94A      0.646527
      95A      0.650866    96A      0.672192    97A      0.691075
      98A      0.700190    99A      0.718907   100A      0.723590
     101A      0.733393   102A      0.742052   103A      0.743534
     104A      0.756088   105A      0.760196   106A      0.762885
     107A      0.773546   108A      0.782871   109A      0.788472
     110A      0.794883   111A      0.798282   112A      0.799990
     113A      0.839331   114A      0.839415   115A      0.856107
     116A      0.861687   117A      0.865804   118A      0.875248
     119A      0.880931   120A      0.888657   121A      0.898087
     122A      0.898624   123A      0.905330   124A      0.908035
     125A      0.914937   126A      0.920503   127A      0.926727
     128A      0.934918   129A      0.944328   130A      0.950811
     131A      0.953997   132A      0.966946   133A      0.969179
     134A      0.975825   135A      0.978882   136A      0.995855
     137A      0.996897   138A      1.010098   139A      1.014076
     140A      1.033937   141A      1.066775   142A      1.075895
     143A      1.089376   144A      1.132034   145A      1.133457
     146A      1.140948   147A      1.144286   148A      1.147023
     149A      1.155752   150A      1.178143   151A      1.190979
     152A      1.205956   153A      1.229371   154A      1.235875
     155A      1.241834   156A      1.257305   157A      1.283911
     158A      1.296947   159A      1.303750   160A      1.326774
     161A      1.333192   162A      1.360160   163A      1.367099
     164A      1.379121   165A      1.398428   166A      1.423776
     167A      1.448579   168A      1.461278   169A      1.505710
     170A      1.535342   171A      1.545090   172A      1.575755
     173A      1.583875   174A      1.599317   175A      1.618325
     176A      1.639510   177A      1.659946   178A      1.666644
     179A      1.673957   180A      1.689399   181A      1.691732
     182A      1.702665   183A      1.707852   184A      1.711318
     185A      1.732978   186A      1.736629   187A      1.742069
     188A      1.761450   189A      1.769244   190A      1.784079
     191A      1.807190   192A      1.819476   193A      1.830854
     194A      1.842325   195A      1.849199   196A      1.865130
     197A      1.887422   198A      1.888280   199A      1.901272
     200A      1.906814   201A      1.922565   202A      1.926779
     203A      1.943468   204A      1.945371   205A      1.949572
     206A      1.952925   207A      1.968970   208A      1.971041
     209A      1.973438   210A      1.982843   211A      1.986955
     212A      1.996260   213A      2.004229   214A      2.016531
     215A      2.026386   216A      2.031141   217A      2.043638
     218A      2.059624   219A      2.074304   220A      2.078341
     221A      2.087053   222A      2.090631   223A      2.106470
     224A      2.106965   225A      2.114345   226A      2.123903
     227A      2.133020   228A      2.151332   229A      2.159602
     230A      2.170461   231A      2.180337   232A      2.194851
     233A      2.234148   234A      2.253985   235A      2.264465
     236A      2.275580   237A      2.289936   238A      2.299186
     239A      2.308053   240A      2.319853   241A      2.326474
     242A      2.342161   243A      2.347443   244A      2.354763
     245A      2.369949   246A      2.399271   247A      2.404243
     248A      2.409886   249A      2.458656   250A      2.468806
     251A      2.493647   252A      2.537521   253A      2.582321
     254A      2.591873   255A      2.603549   256A      2.606139
     257A      2.623422   258A      2.649677   259A      2.661113
     260A      2.679858   261A      2.707164   262A      2.714360
     263A      2.734140   264A      2.764873   265A      2.772167
     266A      2.778690   267A      2.787804   268A      2.792745
     269A      2.799848   270A      2.804853   271A      2.812533
     272A      2.833454   273A      2.847047   274A      2.852965
     275A      2.861552   276A      2.870400   277A      2.892331
     278A      2.915926   279A      2.970865   280A      3.015009
     281A      3.023055   282A      3.042734   283A      3.046673
     284A      3.068686   285A      3.118295   286A      3.169942
     287A      3.199266   288A      3.300492   289A      3.380600
     290A      3.742342   291A      3.942754

    Final Occupation by Irrep:
              A
    DOCC [    52 ]

  @RHF Final Energy:  -557.83820236154929

   => Energetics <=

    Nuclear Repulsion Energy =            829.3918235028728532
    One-Electron Energy =               -2400.1714281017880239
    Two-Electron Energy =                1012.9414022373659918
    Total Energy =                       -557.8382023615492926

Computation Completed

Properties will be evaluated at   0.000000,   0.000000,   0.000000 [a0]

Properties computed using the SCF density matrix

  Nuclear Dipole Moment: [e a0]
     X:   -17.2236      Y:     1.2197      Z:    18.2122

  Electronic Dipole Moment: [e a0]
     X:    18.0009      Y:    -1.0043      Z:   -18.6614

  Dipole Moment: [e a0]
     X:     0.7773      Y:     0.2154      Z:    -0.4492     Total:     0.9232

  Dipole Moment: [D]
     X:     1.9756      Y:     0.5476      Z:    -1.1417     Total:     2.3466

*** tstop() called on ds3 at Sun Apr 26 18:08:12 2020
Module time:
	user time   =     359.85 seconds =       6.00 minutes
	system time =     153.94 seconds =       2.57 minutes
	total time  =        524 seconds =       8.73 minutes
Total time:
	user time   =     359.85 seconds =       6.00 minutes
	system time =     153.94 seconds =       2.57 minutes
	total time  =        524 seconds =       8.73 minutes
                                     G D M A

                                 by Anthony Stone

                           version 2.2.06, 22 June 2011

               Distributed Multipoles from Gaussian wavefunctions

Starting at 18:8:12 on 26 Apr 2020

Using SCF density matrix from file ./SSI/SSI-071TRP-076LEU-1-dimer.test.10077.fchk

                         Distributed Multipole Analysis

Standard DMA

Positions and radii in angstrom
Multipole moments in atomic units, ea_0^k for rank k

C          x = -0.063984  y =  2.759470  z = -2.240064 angstrom
           Maximum rank =  0   Radius =  0.650 angstrom
                   Q00  =  -0.211173

C          x =  0.747016  y =  0.421470  z = -1.405064 angstrom
           Maximum rank =  0   Radius =  0.650 angstrom
                   Q00  =  -0.048353

C          x =  0.907016  y =  1.639470  z = -2.151064 angstrom
           Maximum rank =  0   Radius =  0.650 angstrom
                   Q00  =  -0.118047

C          x =  1.970016  y = -0.297530  z = -1.499064 angstrom
           Maximum rank =  0   Radius =  0.650 angstrom
                   Q00  =   0.292616

C          x =  2.168016  y =  1.613470  z = -2.659064 angstrom
           Maximum rank =  0   Radius =  0.650 angstrom
                   Q00  =   0.072546

C          x = -0.110984  y = -1.375530  z = -0.041064 angstrom
           Maximum rank =  0   Radius =  0.650 angstrom
                   Q00  =  -0.092708

C          x =  1.110016  y = -2.058530  z = -0.152064 angstrom
           Maximum rank =  0   Radius =  0.650 angstrom
                   Q00  =  -0.066188

C          x = -0.303984  y = -0.135530  z = -0.660064 angstrom
           Maximum rank =  0   Radius =  0.650 angstrom
                   Q00  =  -0.101879

C          x =  2.164016  y = -1.528530  z = -0.880064 angstrom
           Maximum rank =  0   Radius =  0.650 angstrom
                   Q00  =  -0.119528

N          x =  2.810016  y =  0.461470  z = -2.271064 angstrom
           Maximum rank =  0   Radius =  0.650 angstrom
                   Q00  =  -0.494823

H          x = -0.918984  y = -1.851530  z =  0.491936 angstrom
           Maximum rank =  0   Radius =  0.325 angstrom
                   Q00  =   0.059925

H          x =  1.223016  y = -3.022530  z =  0.321936 angstrom
           Maximum rank =  0   Radius =  0.325 angstrom
                   Q00  =   0.065124

H          x = -1.249984  y =  0.380470  z = -0.583064 angstrom
           Maximum rank =  0   Radius =  0.325 angstrom
                   Q00  =   0.072927

H          x =  3.098016  y = -2.061530  z = -0.982064 angstrom
           Maximum rank =  0   Radius =  0.325 angstrom
                   Q00  =   0.072942

H          x =  0.528016  y =  3.668470  z = -2.241064 angstrom
           Maximum rank =  0   Radius =  0.325 angstrom
                   Q00  =   0.099912

H          x = -0.640984  y =  2.752470  z = -1.314064 angstrom
           Maximum rank =  0   Radius =  0.325 angstrom
                   Q00  =   0.102051

H          x =  2.608016  y =  2.410470  z = -3.247064 angstrom
           Maximum rank =  0   Radius =  0.325 angstrom
                   Q00  =   0.101093

H          x =  3.759016  y =  0.222470  z = -2.524064 angstrom
           Maximum rank =  0   Radius =  0.325 angstrom
                   Q00  =   0.215486

H          x = -0.748174  y =  2.783910  z = -3.101044 angstrom
           Maximum rank =  0   Radius =  0.325 angstrom
                   Q00  =   0.100491

C          x = -2.485984  y = -0.567530  z =  2.842936 angstrom
           Maximum rank =  0   Radius =  0.650 angstrom
                   Q00  =   0.003202

C          x = -4.002984  y = -0.631530  z =  3.026936 angstrom
           Maximum rank =  0   Radius =  0.650 angstrom
                   Q00  =  -0.234781

C          x = -2.013984  y =  0.887470  z =  2.874936 angstrom
           Maximum rank =  0   Radius =  0.650 angstrom
                   Q00  =  -0.246112

C          x = -1.820984  y = -1.374530  z =  3.961936 angstrom
           Maximum rank =  0   Radius =  0.650 angstrom
                   Q00  =  -0.246308

H          x = -2.233984  y = -1.008530  z =  1.886936 angstrom
           Maximum rank =  0   Radius =  0.325 angstrom
                   Q00  =   0.014995

H          x = -4.227984  y = -0.142530  z =  3.976936 angstrom
           Maximum rank =  0   Radius =  0.325 angstrom
                   Q00  =   0.069285

H          x = -4.300984  y = -1.675530  z =  3.143936 angstrom
           Maximum rank =  0   Radius =  0.325 angstrom
                   Q00  =   0.074499

H          x = -2.388984  y =  1.389470  z =  3.766936 angstrom
           Maximum rank =  0   Radius =  0.325 angstrom
                   Q00  =   0.074496

H          x = -0.927984  y =  0.907470  z =  2.897936 angstrom
           Maximum rank =  0   Radius =  0.325 angstrom
                   Q00  =   0.084596

H          x = -2.341984  y =  1.418470  z =  1.982936 angstrom
           Maximum rank =  0   Radius =  0.325 angstrom
                   Q00  =   0.080124

H          x = -2.151984  y = -2.411530  z =  3.919936 angstrom
           Maximum rank =  0   Radius =  0.325 angstrom
                   Q00  =   0.078845

H          x = -0.741984  y = -1.343530  z =  3.837936 angstrom
           Maximum rank =  0   Radius =  0.325 angstrom
                   Q00  =   0.084903

H          x = -2.079984  y = -0.951530  z =  4.933936 angstrom
           Maximum rank =  0   Radius =  0.325 angstrom
                   Q00  =   0.076519

H          x = -4.625834  y = -0.162410  z =  2.251066 angstrom
           Maximum rank =  0   Radius =  0.325 angstrom
                   Q00  =   0.083324

Total multipoles referred to origin at
           x =   0.000000,  y =    0.000000,  z =    0.000000 angstrom
                   Q00  =  -0.000000

Finished at 18:8:13 on 26 Apr 2020

  DMA results are available in the Python driver through the
	  variable('DMA DISTRIBUTED MULTIPOLES')
  and
	  variable('DMA TOTAL MULTIPOLES')
  commands.

    Psi4 stopped on: Sunday, 26 April 2020 06:08PM
    Psi4 wall time for execution: 0:08:44.74

*** Psi4 exiting successfully. Buy a developer a beer!
