                               Psi4 1.3.2 release

  ==> Input File <==

--------------------------------------------------------------------------
import numpy as np
set {scf_type pk
basis cc-pvdz
d_convergence 10
gdma_switch   0
gdma_limit    0
gdma_origin   [ 0.0,  0.0,  0.0 ]
}
molecule test {
    units Angstrom
    0 1
    --
    0 1
    C                4.658426686639629     0.485379424021842     2.890086108342678
    C                1.168426686639629    -0.848620575978158     0.780086108342678
    C                2.148426686639629    -0.151620575978158     0.110086108342678
    C                1.346426686639629    -1.151620575978158     2.120086108342678
    C                3.297426686639629     0.290379424021842     0.785086108342678
    C                2.477426686639629    -0.729620575978158     2.773086108342678
    C                3.466426686639629    -0.002620575978158     2.144086108342678
    H                0.274426686639629    -1.168620575978158     0.262086108342678
    H                2.033426686639629     0.061379424021842    -0.941913891657322
    H                0.615426686639629    -1.722620575978158     2.658086108342677
    H                4.050426686639629     0.856379424021842     0.258086108342678
    H                2.589426686639629    -0.971620575978158     3.821086108342678
    H                4.474426686639629     0.421379424021842     3.964086108342678
    H                4.768426686639629     1.541379424021842     2.648086108342678
    H                5.599156686639629    -0.031554575978158     2.649666108342678
    C                0.096426686639629     1.828379424021841    -2.098913891657322
    C               -1.097573313360370     0.986379424021842    -1.723913891657322
    C               -1.571573313360371    -0.008620575978158    -2.582913891657322
    C               -1.833573313360370     1.251379424021842    -0.554913891657322
    C               -2.696573313360371    -0.750620575978158    -2.279913891657322
    C               -2.985573313360371     0.518379424021842    -0.263913891657322
    C               -3.413573313360371    -0.482620575978158    -1.118913891657322
    O               -4.539573313360370    -1.190620575978158    -0.835913891657322
    H                0.891426686639629     1.193379424021842    -2.482913891657322
    H                0.468426686639629     2.324379424021842    -1.200913891657322
    H               -1.030573313360371    -0.214620575978158    -3.496913891657322
    H               -1.509573313360371     2.029379424021842     0.126086108342678
    H               -3.023573313360371    -1.533620575978158    -2.950913891657322
    H               -3.545573313360371     0.717379424021842     0.637086108342678
    H               -4.709573313360371    -1.883620575978159    -1.483913891657322
    H               -0.159953313360371     2.580514424021842    -2.859543891657323

}
e, wfn = energy('scf', return_wfn=True)
gdma(wfn)
dmavals = variable('DMA DISTRIBUTED MULTIPOLES')
charges = np.array(dmavals)
print(charges)
np.save('SSI-117PHE-125TYR-1-dimer.npy', np.array(charges))--------------------------------------------------------------------------

*** tstart() called on ds3
*** at Sun Apr 26 22:45:04 2020

   => Loading Basis Set <=

    Name: CC-PVDZ
    Role: ORBITAL
    Keyword: BASIS
    atoms 1-7, 16-22  entry C          line   138 file /theoryfs2/ds/metcalf/miniconda2/envs/tf2gpu/share/psi4/basis/cc-pvdz.gbs
    atoms 8-15, 24-31 entry H          line    22 file /theoryfs2/ds/metcalf/miniconda2/envs/tf2gpu/share/psi4/basis/cc-pvdz.gbs
    atoms 23          entry O          line   198 file /theoryfs2/ds/metcalf/miniconda2/envs/tf2gpu/share/psi4/basis/cc-pvdz.gbs

         ---------------------------------------------------------
                                   SCF
               by Justin Turney, Rob Parrish, Andy Simmonett
                          and Daniel G. A. Smith
                              RHF Reference
                        1 Threads,    500 MiB Core
         ---------------------------------------------------------

  ==> Geometry <==

    Molecular point group: c1
    Full point group: C1

    Geometry (in Angstrom), charge = 0, multiplicity = 1:

       Center              X                  Y                   Z               Mass
    ------------   -----------------  -----------------  -----------------  -----------------
         C            4.658426686640     0.485379424022     2.890086108343    12.000000000000
         C            1.168426686640    -0.848620575978     0.780086108343    12.000000000000
         C            2.148426686640    -0.151620575978     0.110086108343    12.000000000000
         C            1.346426686640    -1.151620575978     2.120086108343    12.000000000000
         C            3.297426686640     0.290379424022     0.785086108343    12.000000000000
         C            2.477426686640    -0.729620575978     2.773086108343    12.000000000000
         C            3.466426686640    -0.002620575978     2.144086108343    12.000000000000
         H            0.274426686640    -1.168620575978     0.262086108343     1.007825032230
         H            2.033426686640     0.061379424022    -0.941913891657     1.007825032230
         H            0.615426686640    -1.722620575978     2.658086108343     1.007825032230
         H            4.050426686640     0.856379424022     0.258086108343     1.007825032230
         H            2.589426686640    -0.971620575978     3.821086108343     1.007825032230
         H            4.474426686640     0.421379424022     3.964086108343     1.007825032230
         H            4.768426686640     1.541379424022     2.648086108343     1.007825032230
         H            5.599156686640    -0.031554575978     2.649666108343     1.007825032230
         C            0.096426686640     1.828379424022    -2.098913891657    12.000000000000
         C           -1.097573313360     0.986379424022    -1.723913891657    12.000000000000
         C           -1.571573313360    -0.008620575978    -2.582913891657    12.000000000000
         C           -1.833573313360     1.251379424022    -0.554913891657    12.000000000000
         C           -2.696573313360    -0.750620575978    -2.279913891657    12.000000000000
         C           -2.985573313360     0.518379424022    -0.263913891657    12.000000000000
         C           -3.413573313360    -0.482620575978    -1.118913891657    12.000000000000
         O           -4.539573313360    -1.190620575978    -0.835913891657    15.994914619570
         H            0.891426686640     1.193379424022    -2.482913891657     1.007825032230
         H            0.468426686640     2.324379424022    -1.200913891657     1.007825032230
         H           -1.030573313360    -0.214620575978    -3.496913891657     1.007825032230
         H           -1.509573313360     2.029379424022     0.126086108343     1.007825032230
         H           -3.023573313360    -1.533620575978    -2.950913891657     1.007825032230
         H           -3.545573313360     0.717379424022     0.637086108343     1.007825032230
         H           -4.709573313360    -1.883620575978    -1.483913891657     1.007825032230
         H           -0.159953313360     2.580514424022    -2.859543891657     1.007825032230

  Running in c1 symmetry.

  Rotational constants: A =      0.03983  B =      0.00795  C =      0.00717 [cm^-1]
  Rotational constants: A =   1193.92649  B =    238.42538  C =    215.07346 [MHz]
  Nuclear repulsion =  874.488915152669620

  Charge       = 0
  Multiplicity = 1
  Electrons    = 108
  Nalpha       = 54
  Nbeta        = 54

  ==> Algorithm <==

  SCF Algorithm Type is PK.
  DIIS enabled.
  MOM disabled.
  Fractional occupation disabled.
  Guess Type is SAD.
  Energy threshold   = 1.00e-06
  Density threshold  = 1.00e-10
  Integral threshold = 0.00e+00

  ==> Primary Basis <==

  Basis Set: CC-PVDZ
    Blend: CC-PVDZ
    Number of shells: 138
    Number of basis function: 290
    Number of Cartesian functions: 305
    Spherical Harmonics?: true
    Max angular momentum: 2

  ==> Pre-Iterations <==

   -------------------------------------------------------
    Irrep   Nso     Nmo     Nalpha   Nbeta   Ndocc  Nsocc
   -------------------------------------------------------
     A        290     290       0       0       0       0
   -------------------------------------------------------
    Total     290     290      54      54      54       0
   -------------------------------------------------------

  ==> Integral Setup <==

  Using integral reordering PK algorithm.
  Sizing the integral batches needed.
  Building batch lookup table.
   Calculation information:
      Number of atoms:                  31
      Number of AO shells:             138
      Number of primitives:            410
      Number of atomic orbitals:       305
      Number of basis functions:       290

      Integral cutoff                 1.00e-12
      Number of threads:                 1

	Batch   1 pq = [       0,    9405] index = [             0,44231715] size =     44231715
	Batch   2 pq = [    9405,   13301] index = [      44231715,88464951] size =     44233236
	Batch   3 pq = [   13301,   16290] index = [      88464951,132690195] size =     44225244
	Batch   4 pq = [   16290,   18810] index = [     132690195,176917455] size =     44227260
	Batch   5 pq = [   18810,   21030] index = [     176917455,221140965] size =     44223510
	Batch   6 pq = [   21030,   23037] index = [     221140965,265363203] size =     44222238
	Batch   7 pq = [   23037,   24883] index = [     265363203,309594286] size =     44231083
	Batch   8 pq = [   24883,   26601] index = [     309594286,353819901] size =     44225615
	Batch   9 pq = [   26601,   28214] index = [     353819901,398029005] size =     44209104
	Batch  10 pq = [   28214,   29740] index = [     398029005,442248670] size =     44219665
	Batch  11 pq = [   29740,   31191] index = [     442248670,486454836] size =     44206166
	Batch  12 pq = [   31191,   32578] index = [     486454836,530679331] size =     44224495
	Batch  13 pq = [   32578,   33908] index = [     530679331,574893186] size =     44213855
	Batch  14 pq = [   33908,   35188] index = [     574893186,619115266] size =     44222080
	Batch  15 pq = [   35188,   36423] index = [     619115266,663335676] size =     44220410
	Batch  16 pq = [   36423,   37617] index = [     663335676,707538153] size =     44202477
	Batch  17 pq = [   37617,   38775] index = [     707538153,751769700] size =     44231547
	Batch  18 pq = [   38775,   39899] index = [     751769700,795985050] size =     44215350
	Batch  19 pq = [   39899,   40992] index = [     795985050,840192528] size =     44207478
	Batch  20 pq = [   40992,   42057] index = [     840192528,884416653] size =     44224125
	Batch  21 pq = [   42057,   42195] index = [     884416653,890230110] size =      5813457
  Task number: 81
  Buffer size: 11059200
  Buffer per thread: 2
  We computed 40757802 shell quartets total.
  Whereas there are 45998436 unique shell quartets.

  ==> DiskJK: Disk-Based J/K Matrices <==

    J tasked:                  Yes
    K tasked:                  Yes
    wK tasked:                  No
    Memory [MiB]:              375
    Schwarz Cutoff:          1E-12

    OpenMP threads:              1

  Minimum eigenvalue in the overlap matrix is 2.8567299800E-04.
  Using Symmetric Orthogonalization.

  SCF Guess: Superposition of Atomic Densities via on-the-fly atomic UHF.

  ==> Iterations <==

                        Total Energy        Delta E     RMS |[F,P]|

   @RHF iter SAD:  -613.32116997360276   -6.13321e+02   0.00000e+00
   @RHF iter   1:  -614.05638464200979   -7.35215e-01   2.38969e-03 DIIS
   @RHF iter   2:  -614.33556282763948   -2.79178e-01   9.90011e-04 DIIS
   @RHF iter   3:  -614.37762590453212   -4.20631e-02   2.31085e-04 DIIS
   @RHF iter   4:  -614.38119181908462   -3.56591e-03   8.57404e-05 DIIS
   @RHF iter   5:  -614.38155196205003   -3.60143e-04   1.77204e-05 DIIS
   @RHF iter   6:  -614.38157341768112   -2.14556e-05   5.85414e-06 DIIS
   @RHF iter   7:  -614.38157584514681   -2.42747e-06   1.72226e-06 DIIS
   @RHF iter   8:  -614.38157615559908   -3.10452e-07   7.02434e-07 DIIS
   @RHF iter   9:  -614.38157621092398   -5.53249e-08   2.95706e-07 DIIS
   @RHF iter  10:  -614.38157622319909   -1.22751e-08   1.26940e-07 DIIS
   @RHF iter  11:  -614.38157622691676   -3.71767e-09   5.31480e-08 DIIS
   @RHF iter  12:  -614.38157622757774   -6.60975e-10   2.57045e-08 DIIS
   @RHF iter  13:  -614.38157622768597   -1.08230e-10   6.91287e-09 DIIS
   @RHF iter  14:  -614.38157622768915   -3.18323e-12   2.06076e-09 DIIS
   @RHF iter  15:  -614.38157622768517    3.97904e-12   6.14218e-10 DIIS
   @RHF iter  16:  -614.38157622768585   -6.82121e-13   2.52422e-10 DIIS
   @RHF iter  17:  -614.38157622768813   -2.27374e-12   8.29312e-11 DIIS
  Energy and wave function converged.

  ==> Post-Iterations <==

    Orbital Energies [Eh]
    ---------------------

    Doubly Occupied:

       1A    -20.583472     2A    -11.298679     3A    -11.239634
       4A    -11.237992     5A    -11.234454     6A    -11.234332
       7A    -11.232426     8A    -11.229618     9A    -11.228734
      10A    -11.228017    11A    -11.227951    12A    -11.226216
      13A    -11.225698    14A    -11.222539    15A    -11.221271
      16A     -1.401078    17A     -1.152878    18A     -1.150480
      19A     -1.045524    20A     -1.037428    21A     -1.018303
      22A     -1.008411    23A     -0.929987    24A     -0.926860
      25A     -0.843750    26A     -0.822140    27A     -0.802065
      28A     -0.792487    29A     -0.733246    30A     -0.688436
      31A     -0.668624    32A     -0.640792    33A     -0.630106
      34A     -0.626217    35A     -0.606573    36A     -0.588675
      37A     -0.585782    38A     -0.580523    39A     -0.576755
      40A     -0.568321    41A     -0.566085    42A     -0.559793
      43A     -0.532407    44A     -0.528011    45A     -0.499147
      46A     -0.484962    47A     -0.482638    48A     -0.481933
      49A     -0.477502    50A     -0.465382    51A     -0.339851
      52A     -0.328866    53A     -0.318363    54A     -0.300768

    Virtual:

      55A      0.129517    56A      0.139900    57A      0.149106
      58A      0.155346    59A      0.178228    60A      0.181072
      61A      0.194038    62A      0.210707    63A      0.213106
      64A      0.223553    65A      0.236394    66A      0.250071
      67A      0.255662    68A      0.261878    69A      0.269100
      70A      0.271764    71A      0.279168    72A      0.294574
      73A      0.297962    74A      0.346059    75A      0.367804
      76A      0.373330    77A      0.376196    78A      0.383940
      79A      0.428913    80A      0.455639    81A      0.457828
      82A      0.472547    83A      0.479793    84A      0.486546
      85A      0.495922    86A      0.505145    87A      0.521264
      88A      0.566214    89A      0.595897    90A      0.609602
      91A      0.629633    92A      0.633521    93A      0.645451
      94A      0.660273    95A      0.677318    96A      0.691439
      97A      0.693367    98A      0.695787    99A      0.706929
     100A      0.722650   101A      0.724189   102A      0.729925
     103A      0.732392   104A      0.734610   105A      0.742313
     106A      0.746185   107A      0.753774   108A      0.759078
     109A      0.763858   110A      0.770214   111A      0.776317
     112A      0.788736   113A      0.790143   114A      0.798986
     115A      0.815679   116A      0.834759   117A      0.839196
     118A      0.850479   119A      0.857762   120A      0.877769
     121A      0.878348   122A      0.879013   123A      0.891729
     124A      0.893324   125A      0.897936   126A      0.902017
     127A      0.907826   128A      0.920247   129A      0.927708
     130A      0.931059   131A      0.934964   132A      0.942218
     133A      0.952672   134A      0.957624   135A      0.974580
     136A      0.993905   137A      1.010344   138A      1.014736
     139A      1.027424   140A      1.041718   141A      1.059570
     142A      1.083087   143A      1.115135   144A      1.131143
     145A      1.146532   146A      1.149254   147A      1.154430
     148A      1.162791   149A      1.165277   150A      1.181786
     151A      1.195344   152A      1.211256   153A      1.232328
     154A      1.239654   155A      1.252562   156A      1.258442
     157A      1.266528   158A      1.270548   159A      1.273555
     160A      1.286514   161A      1.290396   162A      1.304285
     163A      1.312899   164A      1.314568   165A      1.317146
     166A      1.333008   167A      1.340755   168A      1.359644
     169A      1.363581   170A      1.403610   171A      1.422793
     172A      1.484740   173A      1.506337   174A      1.521242
     175A      1.529928   176A      1.536110   177A      1.557214
     178A      1.568700   179A      1.613707   180A      1.619920
     181A      1.631762   182A      1.675235   183A      1.688251
     184A      1.694013   185A      1.708796   186A      1.733580
     187A      1.738763   188A      1.742287   189A      1.758044
     190A      1.769457   191A      1.791302   192A      1.800272
     193A      1.807315   194A      1.815436   195A      1.822506
     196A      1.859450   197A      1.875710   198A      1.892953
     199A      1.895620   200A      1.901199   201A      1.907585
     202A      1.911845   203A      1.914182   204A      1.916424
     205A      1.922165   206A      1.934546   207A      1.940734
     208A      1.949697   209A      1.951300   210A      1.956492
     211A      1.964167   212A      1.981209   213A      1.991896
     214A      2.006113   215A      2.012962   216A      2.023906
     217A      2.035595   218A      2.049075   219A      2.057671
     220A      2.061442   221A      2.065960   222A      2.072745
     223A      2.083660   224A      2.102053   225A      2.123479
     226A      2.133497   227A      2.142601   228A      2.144617
     229A      2.169403   230A      2.180398   231A      2.186727
     232A      2.196033   233A      2.201515   234A      2.210342
     235A      2.223876   236A      2.258320   237A      2.260148
     238A      2.274703   239A      2.291157   240A      2.298560
     241A      2.304511   242A      2.315307   243A      2.331926
     244A      2.354930   245A      2.361304   246A      2.367941
     247A      2.414896   248A      2.455187   249A      2.469091
     250A      2.474357   251A      2.488299   252A      2.497349
     253A      2.526496   254A      2.530551   255A      2.542012
     256A      2.548668   257A      2.611010   258A      2.642188
     259A      2.645755   260A      2.744692   261A      2.753972
     262A      2.768053   263A      2.773575   264A      2.790989
     265A      2.794805   266A      2.805852   267A      2.810639
     268A      2.831428   269A      2.849891   270A      2.860901
     271A      2.884445   272A      2.906334   273A      2.966236
     274A      2.998158   275A      3.008180   276A      3.033140
     277A      3.045309   278A      3.083429   279A      3.105865
     280A      3.184378   281A      3.224791   282A      3.250162
     283A      3.283691   284A      3.322981   285A      3.349808
     286A      3.577127   287A      3.668569   288A      3.976237
     289A      4.000043   290A      4.191335

    Final Occupation by Irrep:
              A
    DOCC [    54 ]

  @RHF Final Energy:  -614.38157622768813

   => Energetics <=

    Nuclear Repulsion Energy =            874.4889151526696196
    One-Electron Energy =               -2568.4166164793496137
    Two-Electron Energy =                1079.5461250989919790
    Total Energy =                       -614.3815762276881287

Computation Completed

Properties will be evaluated at   0.000000,   0.000000,   0.000000 [a0]

Properties computed using the SCF density matrix

  Nuclear Dipole Moment: [e a0]
     X:    11.0274      Y:     3.9310      Z:     1.5028

  Electronic Dipole Moment: [e a0]
     X:   -10.8024      Y:    -4.0746      Z:    -1.9360

  Dipole Moment: [e a0]
     X:     0.2250      Y:    -0.1436      Z:    -0.4332     Total:     0.5089

  Dipole Moment: [D]
     X:     0.5719      Y:    -0.3651      Z:    -1.1012     Total:     1.2934

*** tstop() called on ds3 at Sun Apr 26 23:04:46 2020
Module time:
	user time   =     355.14 seconds =       5.92 minutes
	system time =     127.15 seconds =       2.12 minutes
	total time  =       1182 seconds =      19.70 minutes
Total time:
	user time   =     355.14 seconds =       5.92 minutes
	system time =     127.15 seconds =       2.12 minutes
	total time  =       1182 seconds =      19.70 minutes
                                     G D M A

                                 by Anthony Stone

                           version 2.2.06, 22 June 2011

               Distributed Multipoles from Gaussian wavefunctions

Starting at 23:4:46 on 26 Apr 2020

Using SCF density matrix from file ./SSI/SSI-117PHE-125TYR-1-dimer.test.18766.fchk

                         Distributed Multipole Analysis

Standard DMA

Positions and radii in angstrom
Multipole moments in atomic units, ea_0^k for rank k

C          x =  4.658427  y =  0.485379  z =  2.890086 angstrom
           Maximum rank =  0   Radius =  0.650 angstrom
                   Q00  =  -0.201436

C          x =  1.168427  y = -0.848621  z =  0.780086 angstrom
           Maximum rank =  0   Radius =  0.650 angstrom
                   Q00  =  -0.095852

C          x =  2.148427  y = -0.151621  z =  0.110086 angstrom
           Maximum rank =  0   Radius =  0.650 angstrom
                   Q00  =  -0.069070

C          x =  1.346427  y = -1.151621  z =  2.120086 angstrom
           Maximum rank =  0   Radius =  0.650 angstrom
                   Q00  =  -0.061046

C          x =  3.297427  y =  0.290379  z =  0.785086 angstrom
           Maximum rank =  0   Radius =  0.650 angstrom
                   Q00  =  -0.096540

C          x =  2.477427  y = -0.729621  z =  2.773086 angstrom
           Maximum rank =  0   Radius =  0.650 angstrom
                   Q00  =   0.027859

C          x =  3.466427  y = -0.002621  z =  2.144086 angstrom
           Maximum rank =  0   Radius =  0.650 angstrom
                   Q00  =  -0.100332

H          x =  0.274427  y = -1.168621  z =  0.262086 angstrom
           Maximum rank =  0   Radius =  0.325 angstrom
                   Q00  =   0.070112

H          x =  2.033427  y =  0.061379  z = -0.941914 angstrom
           Maximum rank =  0   Radius =  0.325 angstrom
                   Q00  =   0.060107

H          x =  0.615427  y = -1.722621  z =  2.658086 angstrom
           Maximum rank =  0   Radius =  0.325 angstrom
                   Q00  =   0.061655

H          x =  4.050427  y =  0.856379  z =  0.258086 angstrom
           Maximum rank =  0   Radius =  0.325 angstrom
                   Q00  =   0.053635

H          x =  2.589427  y = -0.971621  z =  3.821086 angstrom
           Maximum rank =  0   Radius =  0.325 angstrom
                   Q00  =   0.049002

H          x =  4.474427  y =  0.421379  z =  3.964086 angstrom
           Maximum rank =  0   Radius =  0.325 angstrom
                   Q00  =   0.097193

H          x =  4.768427  y =  1.541379  z =  2.648086 angstrom
           Maximum rank =  0   Radius =  0.325 angstrom
                   Q00  =   0.096996

H          x =  5.599157  y = -0.031555  z =  2.649666 angstrom
           Maximum rank =  0   Radius =  0.325 angstrom
                   Q00  =   0.104577

C          x =  0.096427  y =  1.828379  z = -2.098914 angstrom
           Maximum rank =  0   Radius =  0.650 angstrom
                   Q00  =  -0.196662

C          x = -1.097573  y =  0.986379  z = -1.723914 angstrom
           Maximum rank =  0   Radius =  0.650 angstrom
                   Q00  =  -0.143156

C          x = -1.571573  y = -0.008621  z = -2.582914 angstrom
           Maximum rank =  0   Radius =  0.650 angstrom
                   Q00  =   0.049110

C          x = -1.833573  y =  1.251379  z = -0.554914 angstrom
           Maximum rank =  0   Radius =  0.650 angstrom
                   Q00  =  -0.048429

C          x = -2.696573  y = -0.750621  z = -2.279914 angstrom
           Maximum rank =  0   Radius =  0.650 angstrom
                   Q00  =  -0.179607

C          x = -2.985573  y =  0.518379  z = -0.263914 angstrom
           Maximum rank =  0   Radius =  0.650 angstrom
                   Q00  =  -0.106981

C          x = -3.413573  y = -0.482621  z = -1.118914 angstrom
           Maximum rank =  0   Radius =  0.650 angstrom
                   Q00  =   0.318799

O          x = -4.539573  y = -1.190621  z = -0.835914 angstrom
           Maximum rank =  0   Radius =  0.650 angstrom
                   Q00  =  -0.676169

H          x =  0.891427  y =  1.193379  z = -2.482914 angstrom
           Maximum rank =  0   Radius =  0.325 angstrom
                   Q00  =   0.089262

H          x =  0.468427  y =  2.324379  z = -1.200914 angstrom
           Maximum rank =  0   Radius =  0.325 angstrom
                   Q00  =   0.102775

H          x = -1.030573  y = -0.214621  z = -3.496914 angstrom
           Maximum rank =  0   Radius =  0.325 angstrom
                   Q00  =   0.065325

H          x = -1.509573  y =  2.029379  z =  0.126086 angstrom
           Maximum rank =  0   Radius =  0.325 angstrom
                   Q00  =   0.069889

H          x = -3.023573  y = -1.533621  z = -2.950914 angstrom
           Maximum rank =  0   Radius =  0.325 angstrom
                   Q00  =   0.070516

H          x = -3.545573  y =  0.717379  z =  0.637086 angstrom
           Maximum rank =  0   Radius =  0.325 angstrom
                   Q00  =   0.080406

H          x = -4.709573  y = -1.883621  z = -1.483914 angstrom
           Maximum rank =  0   Radius =  0.325 angstrom
                   Q00  =   0.407071

H          x = -0.159953  y =  2.580514  z = -2.859544 angstrom
           Maximum rank =  0   Radius =  0.325 angstrom
                   Q00  =   0.100990

Total multipoles referred to origin at
           x =   0.000000,  y =    0.000000,  z =    0.000000 angstrom
                   Q00  =  -0.000000

Finished at 23:4:46 on 26 Apr 2020

  DMA results are available in the Python driver through the
	  variable('DMA DISTRIBUTED MULTIPOLES')
  and
	  variable('DMA TOTAL MULTIPOLES')
  commands.

    Psi4 stopped on: Sunday, 26 April 2020 11:04PM
    Psi4 wall time for execution: 0:19:41.94

*** Psi4 exiting successfully. Buy a developer a beer!
