                               Psi4 1.3.2 release

  ==> Input File <==

--------------------------------------------------------------------------
import numpy as np
set {scf_type pk
basis cc-pvdz
d_convergence 10
gdma_switch   0
gdma_limit    0
gdma_origin   [ 0.0,  0.0,  0.0 ]
}
molecule test {
    units Angstrom
    -1 1
    --
    -1 1
    C                2.892087102296715     3.276210355111681     1.445666269672085
    C                0.944087102296715    -0.259789644888319     0.098666269672085
    C                0.509087102296715     0.980210355111681    -0.280333730327915
    C                2.076087102296715    -0.379789644888319     0.942666269672085
    C                1.167087102296715     2.089210355111682     0.171666269672085
    C                2.740087102296715     0.768210355111681     1.420666269672086
    C                2.271087102296715     2.001210355111681     1.009666269672085
    O                0.327087102296715    -1.388789644888319    -0.358333730327915
    H               -0.487912897703285    -1.128789644888319    -0.835333730327915
    H               -0.357912897703285     1.080210355111681    -0.912333730327915
    H                2.418087102296715    -1.362789644888319     1.227666269672085
    H                0.808087102296715     3.061210355111681    -0.137333730327915
    H                3.599087102296715     0.685210355111681     2.071666269672085
    H                2.675087102296715     4.040210355111681     0.698666269672085
    H                3.973087102296715     3.167210355111681     1.457666269672085
    H                2.521588102296715     3.625970355111681     2.420546269672085
    C               -3.509912897703285    -2.684789644888319    -1.667333730327915
    C               -2.881912897703285    -1.500789644888319    -0.943333730327915
    O               -2.060912897703285    -0.796789644888319    -1.571333730327915
    O               -3.183912897703284    -1.299789644888319     0.252666269672085
    H               -4.037912897703285    -2.341789644888319    -2.556333730327914
    H               -4.241912897703284    -3.181789644888319    -1.027333730327915
    H               -2.736309897703284    -3.408552644888319    -1.963483730327915

}
e, wfn = energy('scf', return_wfn=True)
gdma(wfn)
dmavals = variable('DMA DISTRIBUTED MULTIPOLES')
charges = np.array(dmavals)
print(charges)
np.save('SSI-062TYR-083GLU-1-dimer.npy', np.array(charges))--------------------------------------------------------------------------

*** tstart() called on ds3
*** at Sun Apr 26 20:09:13 2020

   => Loading Basis Set <=

    Name: CC-PVDZ
    Role: ORBITAL
    Keyword: BASIS
    atoms 1-7, 17-18  entry C          line   138 file /theoryfs2/ds/metcalf/miniconda2/envs/tf2gpu/share/psi4/basis/cc-pvdz.gbs
    atoms 8, 19-20    entry O          line   198 file /theoryfs2/ds/metcalf/miniconda2/envs/tf2gpu/share/psi4/basis/cc-pvdz.gbs
    atoms 9-16, 21-23 entry H          line    22 file /theoryfs2/ds/metcalf/miniconda2/envs/tf2gpu/share/psi4/basis/cc-pvdz.gbs

         ---------------------------------------------------------
                                   SCF
               by Justin Turney, Rob Parrish, Andy Simmonett
                          and Daniel G. A. Smith
                              RHF Reference
                        1 Threads,    500 MiB Core
         ---------------------------------------------------------

  ==> Geometry <==

    Molecular point group: c1
    Full point group: C1

    Geometry (in Angstrom), charge = -1, multiplicity = 1:

       Center              X                  Y                   Z               Mass
    ------------   -----------------  -----------------  -----------------  -----------------
         C            2.892087102297     3.276210355112     1.445666269672    12.000000000000
         C            0.944087102297    -0.259789644888     0.098666269672    12.000000000000
         C            0.509087102297     0.980210355112    -0.280333730328    12.000000000000
         C            2.076087102297    -0.379789644888     0.942666269672    12.000000000000
         C            1.167087102297     2.089210355112     0.171666269672    12.000000000000
         C            2.740087102297     0.768210355112     1.420666269672    12.000000000000
         C            2.271087102297     2.001210355112     1.009666269672    12.000000000000
         O            0.327087102297    -1.388789644888    -0.358333730328    15.994914619570
         H           -0.487912897703    -1.128789644888    -0.835333730328     1.007825032230
         H           -0.357912897703     1.080210355112    -0.912333730328     1.007825032230
         H            2.418087102297    -1.362789644888     1.227666269672     1.007825032230
         H            0.808087102297     3.061210355112    -0.137333730328     1.007825032230
         H            3.599087102297     0.685210355112     2.071666269672     1.007825032230
         H            2.675087102297     4.040210355112     0.698666269672     1.007825032230
         H            3.973087102297     3.167210355112     1.457666269672     1.007825032230
         H            2.521588102297     3.625970355112     2.420546269672     1.007825032230
         C           -3.509912897703    -2.684789644888    -1.667333730328    12.000000000000
         C           -2.881912897703    -1.500789644888    -0.943333730328    12.000000000000
         O           -2.060912897703    -0.796789644888    -1.571333730328    15.994914619570
         O           -3.183912897703    -1.299789644888     0.252666269672    15.994914619570
         H           -4.037912897703    -2.341789644888    -2.556333730328     1.007825032230
         H           -4.241912897703    -3.181789644888    -1.027333730328     1.007825032230
         H           -2.736309897703    -3.408552644888    -1.963483730328     1.007825032230

  Running in c1 symmetry.

  Rotational constants: A =      0.08486  B =      0.01152  C =      0.01087 [cm^-1]
  Rotational constants: A =   2544.09297  B =    345.40608  C =    325.88986 [MHz]
  Nuclear repulsion =  643.284414675437915

  Charge       = -1
  Multiplicity = 1
  Electrons    = 90
  Nalpha       = 45
  Nbeta        = 45

  ==> Algorithm <==

  SCF Algorithm Type is PK.
  DIIS enabled.
  MOM disabled.
  Fractional occupation disabled.
  Guess Type is SAD.
  Energy threshold   = 1.00e-06
  Density threshold  = 1.00e-10
  Integral threshold = 0.00e+00

  ==> Primary Basis <==

  Basis Set: CC-PVDZ
    Blend: CC-PVDZ
    Number of shells: 105
    Number of basis function: 223
    Number of Cartesian functions: 235
    Spherical Harmonics?: true
    Max angular momentum: 2

  ==> Pre-Iterations <==

   -------------------------------------------------------
    Irrep   Nso     Nmo     Nalpha   Nbeta   Ndocc  Nsocc
   -------------------------------------------------------
     A        223     223       0       0       0       0
   -------------------------------------------------------
    Total     223     223      45      45      45       0
   -------------------------------------------------------

  ==> Integral Setup <==

  Using integral reordering PK algorithm.
  Sizing the integral batches needed.
  Building batch lookup table.
   Calculation information:
      Number of atoms:                  23
      Number of AO shells:             105
      Number of primitives:            319
      Number of atomic orbitals:       235
      Number of basis functions:       223

      Integral cutoff                 1.00e-12
      Number of threads:                 1

	Batch   1 pq = [       0,    9405] index = [             0,44231715] size =     44231715
	Batch   2 pq = [    9405,   13301] index = [      44231715,88464951] size =     44233236
	Batch   3 pq = [   13301,   16290] index = [      88464951,132690195] size =     44225244
	Batch   4 pq = [   16290,   18810] index = [     132690195,176917455] size =     44227260
	Batch   5 pq = [   18810,   21030] index = [     176917455,221140965] size =     44223510
	Batch   6 pq = [   21030,   23037] index = [     221140965,265363203] size =     44222238
	Batch   7 pq = [   23037,   24976] index = [     265363203,311912776] size =     46549573
  Task number: 29
  Buffer size: 11059200
  Buffer per thread: 2
  We computed 11990606 shell quartets total.
  Whereas there are 15487395 unique shell quartets.

  ==> DiskJK: Disk-Based J/K Matrices <==

    J tasked:                  Yes
    K tasked:                  Yes
    wK tasked:                  No
    Memory [MiB]:              375
    Schwarz Cutoff:          1E-12

    OpenMP threads:              1

  Minimum eigenvalue in the overlap matrix is 3.2019691729E-04.
  Using Symmetric Orthogonalization.

  SCF Guess: Superposition of Atomic Densities via on-the-fly atomic UHF.

  ==> Iterations <==

                        Total Energy        Delta E     RMS |[F,P]|

   @RHF iter SAD:  -570.36934884525647   -5.70369e+02   0.00000e+00
   @RHF iter   1:  -571.55092823940572   -1.18158e+00   3.61745e-03 DIIS
   @RHF iter   2:  -571.82401417296671   -2.73086e-01   1.89631e-03 DIIS
   @RHF iter   3:  -571.89127390712724   -6.72597e-02   3.41986e-04 DIIS
   @RHF iter   4:  -571.89498265778832   -3.70875e-03   1.33584e-04 DIIS
   @RHF iter   5:  -571.89552511065347   -5.42453e-04   2.40915e-05 DIIS
   @RHF iter   6:  -571.89554850064042   -2.33900e-05   1.22859e-05 DIIS
   @RHF iter   7:  -571.89555347417559   -4.97354e-06   3.24944e-06 DIIS
   @RHF iter   8:  -571.89555435276429   -8.78589e-07   1.42266e-06 DIIS
   @RHF iter   9:  -571.89555452103116   -1.68267e-07   6.12572e-07 DIIS
   @RHF iter  10:  -571.89555455811148   -3.70803e-08   2.49111e-07 DIIS
   @RHF iter  11:  -571.89555456495611   -6.84463e-09   1.06369e-07 DIIS
   @RHF iter  12:  -571.89555456627659   -1.32047e-09   4.36137e-08 DIIS
   @RHF iter  13:  -571.89555456648134   -2.04750e-10   1.70242e-08 DIIS
   @RHF iter  14:  -571.89555456651340   -3.20597e-11   7.22075e-09 DIIS
   @RHF iter  15:  -571.89555456650942    3.97904e-12   2.65635e-09 DIIS
   @RHF iter  16:  -571.89555456651374   -4.32010e-12   1.10013e-09 DIIS
   @RHF iter  17:  -571.89555456651578   -2.04636e-12   3.24151e-10 DIIS
   @RHF iter  18:  -571.89555456651522    5.68434e-13   1.08402e-10 DIIS
   @RHF iter  19:  -571.89555456651442    7.95808e-13   5.15195e-11 DIIS
  Energy and wave function converged.

  ==> Post-Iterations <==

    Orbital Energies [Eh]
    ---------------------

    Doubly Occupied:

       1A    -20.415590     2A    -20.298782     3A    -20.288699
       4A    -11.167651     5A    -11.147080     6A    -11.131961
       7A    -11.127470     8A    -11.116060     9A    -11.114812
      10A    -11.114111    11A    -11.094931    12A    -11.069038
      13A     -1.236041    14A     -1.184857    15A     -1.071198
      16A     -1.037416    17A     -0.927432    18A     -0.900232
      19A     -0.816588    20A     -0.813502    21A     -0.722440
      22A     -0.678305    23A     -0.591699    24A     -0.550558
      25A     -0.530713    26A     -0.519487    27A     -0.487160
      28A     -0.481820    29A     -0.470036    30A     -0.447266
      31A     -0.437827    32A     -0.433515    33A     -0.430486
      34A     -0.427493    35A     -0.407975    36A     -0.380636
      37A     -0.371507    38A     -0.360485    39A     -0.342783
      40A     -0.332048    41A     -0.223157    42A     -0.217288
      43A     -0.203408    44A     -0.197525    45A     -0.174969

    Virtual:

      46A      0.247956    47A      0.272768    48A      0.278614
      49A      0.313659    50A      0.322704    51A      0.338879
      52A      0.353790    53A      0.369509    54A      0.372406
      55A      0.376022    56A      0.404126    57A      0.428746
      58A      0.453400    59A      0.472237    60A      0.484257
      61A      0.494315    62A      0.554774    63A      0.559667
      64A      0.580623    65A      0.603170    66A      0.629158
      67A      0.636624    68A      0.680062    69A      0.721967
      70A      0.733737    71A      0.739469    72A      0.772442
      73A      0.789949    74A      0.799813    75A      0.810969
      76A      0.814965    77A      0.822665    78A      0.837115
      79A      0.848570    80A      0.853185    81A      0.858597
      82A      0.877638    83A      0.898813    84A      0.907885
      85A      0.912865    86A      0.938704    87A      0.951329
      88A      0.964212    89A      0.968446    90A      0.975216
      91A      0.986895    92A      1.001394    93A      1.002999
      94A      1.017453    95A      1.019974    96A      1.027408
      97A      1.031107    98A      1.041361    99A      1.054051
     100A      1.055043   101A      1.059282   102A      1.081891
     103A      1.113126   104A      1.139333   105A      1.158880
     106A      1.184834   107A      1.202986   108A      1.227880
     109A      1.265953   110A      1.270862   111A      1.295289
     112A      1.318587   113A      1.320621   114A      1.329403
     115A      1.355969   116A      1.363212   117A      1.391868
     118A      1.421978   119A      1.430944   120A      1.432211
     121A      1.458089   122A      1.472009   123A      1.491630
     124A      1.497647   125A      1.532581   126A      1.542053
     127A      1.554512   128A      1.590964   129A      1.602373
     130A      1.617907   131A      1.639023   132A      1.668686
     133A      1.672248   134A      1.695468   135A      1.712672
     136A      1.748229   137A      1.765512   138A      1.793982
     139A      1.810945   140A      1.823617   141A      1.831095
     142A      1.847512   143A      1.855161   144A      1.869815
     145A      1.888911   146A      1.931586   147A      1.940324
     148A      1.980961   149A      1.996805   150A      2.018375
     151A      2.024267   152A      2.032243   153A      2.041734
     154A      2.056141   155A      2.061051   156A      2.068787
     157A      2.081290   158A      2.089879   159A      2.093726
     160A      2.096790   161A      2.120517   162A      2.160970
     163A      2.174638   164A      2.182855   165A      2.190440
     166A      2.194678   167A      2.205389   168A      2.268125
     169A      2.274642   170A      2.281485   171A      2.291555
     172A      2.302436   173A      2.338921   174A      2.346284
     175A      2.379930   176A      2.388709   177A      2.400355
     178A      2.410238   179A      2.413816   180A      2.452230
     181A      2.500616   182A      2.531443   183A      2.546178
     184A      2.586563   185A      2.611276   186A      2.625555
     187A      2.652239   188A      2.677042   189A      2.681580
     190A      2.718377   191A      2.726976   192A      2.776063
     193A      2.845928   194A      2.861422   195A      2.880391
     196A      2.904653   197A      2.922740   198A      2.929265
     199A      2.939497   200A      2.949349   201A      2.983578
     202A      3.017516   203A      3.090530   204A      3.122897
     205A      3.213080   206A      3.220764   207A      3.250908
     208A      3.255390   209A      3.298963   210A      3.406829
     211A      3.413732   212A      3.433809   213A      3.511109
     214A      3.606236   215A      3.740953   216A      3.761705
     217A      3.796666   218A      3.847996   219A      4.042066
     220A      4.064486   221A      4.118383   222A      4.178615
     223A      4.381350

    Final Occupation by Irrep:
              A
    DOCC [    45 ]

  @RHF Final Energy:  -571.89555456651442

   => Energetics <=

    Nuclear Repulsion Energy =            643.2844146754379153
    One-Electron Energy =               -2071.3718608268736716
    Two-Electron Energy =                 856.1918915849214500
    Total Energy =                       -571.8955545665144200

Computation Completed

Properties will be evaluated at   0.000000,   0.000000,   0.000000 [a0]

Properties computed using the SCF density matrix

  Nuclear Dipole Moment: [e a0]
     X:     3.8510      Y:     3.9547      Z:     0.4082

  Electronic Dipole Moment: [e a0]
     X:    -0.7269      Y:    -2.3467      Z:     0.0534

  Dipole Moment: [e a0]
     X:     3.1241      Y:     1.6080      Z:     0.4617     Total:     3.5438

  Dipole Moment: [D]
     X:     7.9406      Y:     4.0870      Z:     1.1735     Total:     9.0074

*** tstop() called on ds3 at Sun Apr 26 20:13:15 2020
Module time:
	user time   =     106.99 seconds =       1.78 minutes
	system time =      53.28 seconds =       0.89 minutes
	total time  =        242 seconds =       4.03 minutes
Total time:
	user time   =     106.99 seconds =       1.78 minutes
	system time =      53.28 seconds =       0.89 minutes
	total time  =        242 seconds =       4.03 minutes
                                     G D M A

                                 by Anthony Stone

                           version 2.2.06, 22 June 2011

               Distributed Multipoles from Gaussian wavefunctions

Starting at 20:13:15 on 26 Apr 2020

Using SCF density matrix from file ./SSI/SSI-062TYR-083GLU-1-dimer.test.13027.fchk

                         Distributed Multipole Analysis

Standard DMA

Positions and radii in angstrom
Multipole moments in atomic units, ea_0^k for rank k

C          x =  2.892087  y =  3.276210  z =  1.445666 angstrom
           Maximum rank =  0   Radius =  0.650 angstrom
                   Q00  =  -0.194039

C          x =  0.944087  y = -0.259790  z =  0.098666 angstrom
           Maximum rank =  0   Radius =  0.650 angstrom
                   Q00  =   0.375753

C          x =  0.509087  y =  0.980210  z = -0.280334 angstrom
           Maximum rank =  0   Radius =  0.650 angstrom
                   Q00  =  -0.167555

C          x =  2.076087  y = -0.379790  z =  0.942666 angstrom
           Maximum rank =  0   Radius =  0.650 angstrom
                   Q00  =  -0.127499

C          x =  1.167087  y =  2.089210  z =  0.171666 angstrom
           Maximum rank =  0   Radius =  0.650 angstrom
                   Q00  =   0.071097

C          x =  2.740087  y =  0.768210  z =  1.420666 angstrom
           Maximum rank =  0   Radius =  0.650 angstrom
                   Q00  =  -0.080882

C          x =  2.271087  y =  2.001210  z =  1.009666 angstrom
           Maximum rank =  0   Radius =  0.650 angstrom
                   Q00  =  -0.119580

O          x =  0.327087  y = -1.388790  z = -0.358334 angstrom
           Maximum rank =  0   Radius =  0.650 angstrom
                   Q00  =  -0.765651

H          x = -0.487913  y = -1.128790  z = -0.835334 angstrom
           Maximum rank =  0   Radius =  0.325 angstrom
                   Q00  =   0.519616

H          x = -0.357913  y =  1.080210  z = -0.912334 angstrom
           Maximum rank =  0   Radius =  0.325 angstrom
                   Q00  =   0.091002

H          x =  2.418087  y = -1.362790  z =  1.227666 angstrom
           Maximum rank =  0   Radius =  0.325 angstrom
                   Q00  =   0.058893

H          x =  0.808087  y =  3.061210  z = -0.137334 angstrom
           Maximum rank =  0   Radius =  0.325 angstrom
                   Q00  =   0.036384

H          x =  3.599087  y =  0.685210  z =  2.071666 angstrom
           Maximum rank =  0   Radius =  0.325 angstrom
                   Q00  =   0.037108

H          x =  2.675087  y =  4.040210  z =  0.698666 angstrom
           Maximum rank =  0   Radius =  0.325 angstrom
                   Q00  =   0.078836

H          x =  3.973087  y =  3.167210  z =  1.457666 angstrom
           Maximum rank =  0   Radius =  0.325 angstrom
                   Q00  =   0.075154

H          x =  2.521588  y =  3.625970  z =  2.420546 angstrom
           Maximum rank =  0   Radius =  0.325 angstrom
                   Q00  =   0.079767

C          x = -3.509913  y = -2.684790  z = -1.667334 angstrom
           Maximum rank =  0   Radius =  0.650 angstrom
                   Q00  =  -0.281005

C          x = -2.881913  y = -1.500790  z = -0.943334 angstrom
           Maximum rank =  0   Radius =  0.650 angstrom
                   Q00  =   0.946428

O          x = -2.060913  y = -0.796790  z = -1.571334 angstrom
           Maximum rank =  0   Radius =  0.650 angstrom
                   Q00  =  -0.957652

O          x = -3.183913  y = -1.299790  z =  0.252666 angstrom
           Maximum rank =  0   Radius =  0.650 angstrom
                   Q00  =  -0.890189

H          x = -4.037913  y = -2.341790  z = -2.556334 angstrom
           Maximum rank =  0   Radius =  0.325 angstrom
                   Q00  =   0.072618

H          x = -4.241913  y = -3.181790  z = -1.027334 angstrom
           Maximum rank =  0   Radius =  0.325 angstrom
                   Q00  =   0.060780

H          x = -2.736310  y = -3.408553  z = -1.963484 angstrom
           Maximum rank =  0   Radius =  0.325 angstrom
                   Q00  =   0.080614

Total multipoles referred to origin at
           x =   0.000000,  y =    0.000000,  z =    0.000000 angstrom
                   Q00  =  -1.000000

Finished at 20:13:15 on 26 Apr 2020

  DMA results are available in the Python driver through the
	  variable('DMA DISTRIBUTED MULTIPOLES')
  and
	  variable('DMA TOTAL MULTIPOLES')
  commands.

    Psi4 stopped on: Sunday, 26 April 2020 08:13PM
    Psi4 wall time for execution: 0:04:02.06

*** Psi4 exiting successfully. Buy a developer a beer!
