                               Psi4 1.3.2 release

  ==> Input File <==

--------------------------------------------------------------------------
import numpy as np
set {scf_type pk
basis cc-pvdz
d_convergence 10
gdma_switch   0
gdma_limit    0
gdma_origin   [ 0.0,  0.0,  0.0 ]
}
molecule test {
    units Angstrom
    1 1
    --
    1 1
    C               -0.506062014950975     1.583651227584050    -1.460414133513337
    C               -0.639062014950975     0.770651227584051     0.868585866486662
    N               -0.004062014950975     1.417651227584050    -0.093414133513338
    N               -1.816062014950975     0.220651227584051     0.632585866486662
    N               -0.092062014950975     0.661651227584051     2.062585866486663
    H                0.922937985049025     1.784651227584050     0.123585866486662
    H               -2.182062014950974     0.219651227584051    -0.306414133513337
    H               -2.305062014950975    -0.275348772415949     1.359585866486662
    H                0.858937985049025     0.987651227584050     2.183585866486663
    H               -0.556062014950975     0.165651227584051     2.804585866486663
    H               -1.448062014950975     2.132651227584051    -1.447414133513337
    H               -0.682062014950975     0.601651227584051    -1.897414133513337
    H                0.216817985049025     2.112803227584051    -2.098724133513338
    C                1.825937985049025    -1.574348772415950    -0.949414133513338
    C                1.218937985049025    -2.969348772415949    -1.049414133513338
    H                2.649937985049025    -1.455348772415950    -1.651414133513337
    H                1.069937985049025    -0.838348772415949    -1.201414133513337
    H                2.184937985049025    -1.391348772415949     0.062585866486662
    H                0.881937985049025    -3.154348772415949    -2.063414133513337
    H                1.977897985049025    -3.726146772415949    -0.801944133513338
    H                0.358527985049025    -3.051429772415949    -0.369004133513337

}
e, wfn = energy('scf', return_wfn=True)
gdma(wfn)
dmavals = variable('DMA DISTRIBUTED MULTIPOLES')
charges = np.array(dmavals)
print(charges)
np.save('SSI-135ARG-193VAL-1-dimer.npy', np.array(charges))--------------------------------------------------------------------------

*** tstart() called on ds3
*** at Sun Apr 26 21:28:25 2020

   => Loading Basis Set <=

    Name: CC-PVDZ
    Role: ORBITAL
    Keyword: BASIS
    atoms 1-2, 14-15  entry C          line   138 file /theoryfs2/ds/metcalf/miniconda2/envs/tf2gpu/share/psi4/basis/cc-pvdz.gbs
    atoms 3-5         entry N          line   168 file /theoryfs2/ds/metcalf/miniconda2/envs/tf2gpu/share/psi4/basis/cc-pvdz.gbs
    atoms 6-13, 16-21 entry H          line    22 file /theoryfs2/ds/metcalf/miniconda2/envs/tf2gpu/share/psi4/basis/cc-pvdz.gbs

         ---------------------------------------------------------
                                   SCF
               by Justin Turney, Rob Parrish, Andy Simmonett
                          and Daniel G. A. Smith
                              RHF Reference
                        1 Threads,    500 MiB Core
         ---------------------------------------------------------

  ==> Geometry <==

    Molecular point group: c1
    Full point group: C1

    Geometry (in Angstrom), charge = 1, multiplicity = 1:

       Center              X                  Y                   Z               Mass
    ------------   -----------------  -----------------  -----------------  -----------------
         C           -0.506062014951     1.583651227584    -1.460414133513    12.000000000000
         C           -0.639062014951     0.770651227584     0.868585866487    12.000000000000
         N           -0.004062014951     1.417651227584    -0.093414133513    14.003074004430
         N           -1.816062014951     0.220651227584     0.632585866487    14.003074004430
         N           -0.092062014951     0.661651227584     2.062585866487    14.003074004430
         H            0.922937985049     1.784651227584     0.123585866487     1.007825032230
         H           -2.182062014951     0.219651227584    -0.306414133513     1.007825032230
         H           -2.305062014951    -0.275348772416     1.359585866487     1.007825032230
         H            0.858937985049     0.987651227584     2.183585866487     1.007825032230
         H           -0.556062014951     0.165651227584     2.804585866487     1.007825032230
         H           -1.448062014951     2.132651227584    -1.447414133513     1.007825032230
         H           -0.682062014951     0.601651227584    -1.897414133513     1.007825032230
         H            0.216817985049     2.112803227584    -2.098724133513     1.007825032230
         C            1.825937985049    -1.574348772416    -0.949414133513    12.000000000000
         C            1.218937985049    -2.969348772416    -1.049414133513    12.000000000000
         H            2.649937985049    -1.455348772416    -1.651414133513     1.007825032230
         H            1.069937985049    -0.838348772416    -1.201414133513     1.007825032230
         H            2.184937985049    -1.391348772416     0.062585866487     1.007825032230
         H            0.881937985049    -3.154348772416    -2.063414133513     1.007825032230
         H            1.977897985049    -3.726146772416    -0.801944133513     1.007825032230
         H            0.358527985049    -3.051429772416    -0.369004133513     1.007825032230

  Running in c1 symmetry.

  Rotational constants: A =      0.08738  B =      0.03883  C =      0.03384 [cm^-1]
  Rotational constants: A =   2619.52119  B =   1164.22629  C =   1014.56624 [MHz]
  Nuclear repulsion =  325.914978292111414

  Charge       = 1
  Multiplicity = 1
  Electrons    = 58
  Nalpha       = 29
  Nbeta        = 29

  ==> Algorithm <==

  SCF Algorithm Type is PK.
  DIIS enabled.
  MOM disabled.
  Fractional occupation disabled.
  Guess Type is SAD.
  Energy threshold   = 1.00e-06
  Density threshold  = 1.00e-10
  Integral threshold = 0.00e+00

  ==> Primary Basis <==

  Basis Set: CC-PVDZ
    Blend: CC-PVDZ
    Number of shells: 84
    Number of basis function: 168
    Number of Cartesian functions: 175
    Spherical Harmonics?: true
    Max angular momentum: 2

  ==> Pre-Iterations <==

   -------------------------------------------------------
    Irrep   Nso     Nmo     Nalpha   Nbeta   Ndocc  Nsocc
   -------------------------------------------------------
     A        168     168       0       0       0       0
   -------------------------------------------------------
    Total     168     168      29      29      29       0
   -------------------------------------------------------

  ==> Integral Setup <==

  Using integral reordering PK algorithm.
  Sizing the integral batches needed.
  Building batch lookup table.
   Calculation information:
      Number of atoms:                  21
      Number of AO shells:              84
      Number of primitives:            224
      Number of atomic orbitals:       175
      Number of basis functions:       168

      Integral cutoff                 1.00e-12
      Number of threads:                 1

	Batch   1 pq = [       0,    9405] index = [             0,44231715] size =     44231715
	Batch   2 pq = [    9405,   13301] index = [      44231715,88464951] size =     44233236
	Batch   3 pq = [   13301,   14196] index = [      88464951,100770306] size =     12305355
  Task number: 10
  Buffer size: 11059200
  Buffer per thread: 2
  We computed 6041868 shell quartets total.
  Whereas there are 6374235 unique shell quartets.

  ==> DiskJK: Disk-Based J/K Matrices <==

    J tasked:                  Yes
    K tasked:                  Yes
    wK tasked:                  No
    Memory [MiB]:              375
    Schwarz Cutoff:          1E-12

    OpenMP threads:              1

  Minimum eigenvalue in the overlap matrix is 3.7553224404E-03.
  Using Symmetric Orthogonalization.

  SCF Guess: Superposition of Atomic Densities via on-the-fly atomic UHF.

  ==> Iterations <==

                        Total Energy        Delta E     RMS |[F,P]|

   @RHF iter SAD:  -322.14462799229921   -3.22145e+02   0.00000e+00
   @RHF iter   1:  -322.61576709783833   -4.71139e-01   3.42438e-03 DIIS
   @RHF iter   2:  -322.78814063565187   -1.72374e-01   1.34920e-03 DIIS
   @RHF iter   3:  -322.81358857290013   -2.54479e-02   3.19427e-04 DIIS
   @RHF iter   4:  -322.81601082283635   -2.42225e-03   5.05890e-05 DIIS
   @RHF iter   5:  -322.81607350089666   -6.26781e-05   2.08216e-05 DIIS
   @RHF iter   6:  -322.81608227911420   -8.77822e-06   4.43627e-06 DIIS
   @RHF iter   7:  -322.81608291169880   -6.32585e-07   1.58486e-06 DIIS
   @RHF iter   8:  -322.81608296622426   -5.45255e-08   4.60599e-07 DIIS
   @RHF iter   9:  -322.81608297136842   -5.14416e-09   1.05554e-07 DIIS
   @RHF iter  10:  -322.81608297167747   -3.09058e-10   3.24303e-08 DIIS
   @RHF iter  11:  -322.81608297170635   -2.88765e-11   8.93289e-09 DIIS
   @RHF iter  12:  -322.81608297170840   -2.04636e-12   3.45711e-09 DIIS
   @RHF iter  13:  -322.81608297170908   -6.82121e-13   1.22555e-09 DIIS
   @RHF iter  14:  -322.81608297170891    1.70530e-13   3.29167e-10 DIIS
   @RHF iter  15:  -322.81608297170908   -1.70530e-13   7.07259e-11 DIIS
  Energy and wave function converged.

  ==> Post-Iterations <==

    Orbital Energies [Eh]
    ---------------------

    Doubly Occupied:

       1A    -15.790249     2A    -15.788955     3A    -15.787617
       4A    -11.590058     5A    -11.442897     6A    -11.330999
       7A    -11.322347     8A     -1.548072     9A     -1.402988
      10A     -1.394086    11A     -1.143483    12A     -1.129847
      13A     -1.038728    14A     -0.978505    15A     -0.947496
      16A     -0.944020    17A     -0.861711    18A     -0.857237
      19A     -0.828478    20A     -0.796699    21A     -0.745761
      22A     -0.724132    23A     -0.708853    24A     -0.707923
      25A     -0.619809    26A     -0.611203    27A     -0.596653
      28A     -0.595075    29A     -0.584683

    Virtual:

      30A     -0.014835    31A      0.021352    32A      0.024966
      33A      0.030897    34A      0.056945    35A      0.078440
      36A      0.088090    37A      0.116865    38A      0.120733
      39A      0.129007    40A      0.141474    41A      0.152340
      42A      0.166772    43A      0.183737    44A      0.184234
      45A      0.233003    46A      0.277510    47A      0.291521
      48A      0.331720    49A      0.335412    50A      0.433750
      51A      0.466720    52A      0.482234    53A      0.485778
      54A      0.494150    55A      0.521523    56A      0.525420
      57A      0.532768    58A      0.545390    59A      0.554937
      60A      0.558930    61A      0.592193    62A      0.661709
      63A      0.686976    64A      0.696900    65A      0.703928
      66A      0.724422    67A      0.737500    68A      0.746979
      69A      0.755069    70A      0.769740    71A      0.781802
      72A      0.794199    73A      0.796164    74A      0.809866
      75A      0.824159    76A      0.847399    77A      0.855314
      78A      0.865904    79A      0.905566    80A      0.914074
      81A      0.936041    82A      0.974769    83A      0.981246
      84A      1.015397    85A      1.020441    86A      1.046930
      87A      1.110665    88A      1.117116    89A      1.128770
      90A      1.179588    91A      1.207137    92A      1.211955
      93A      1.237081    94A      1.285569    95A      1.368734
      96A      1.371457    97A      1.401861    98A      1.456023
      99A      1.476310   100A      1.507464   101A      1.516717
     102A      1.544496   103A      1.570093   104A      1.583189
     105A      1.598109   106A      1.607563   107A      1.646036
     108A      1.681953   109A      1.719529   110A      1.733597
     111A      1.752623   112A      1.757188   113A      1.767477
     114A      1.782617   115A      1.787039   116A      1.793794
     117A      1.815590   118A      1.827248   119A      1.844556
     120A      1.846709   121A      1.854758   122A      1.856604
     123A      1.869840   124A      1.884225   125A      1.890625
     126A      1.990751   127A      2.001856   128A      2.014942
     129A      2.031997   130A      2.064185   131A      2.109389
     132A      2.130268   133A      2.191809   134A      2.195930
     135A      2.207052   136A      2.240910   137A      2.261409
     138A      2.261763   139A      2.313600   140A      2.337896
     141A      2.353243   142A      2.362024   143A      2.371661
     144A      2.431236   145A      2.454514   146A      2.462307
     147A      2.473755   148A      2.533807   149A      2.592737
     150A      2.610813   151A      2.646706   152A      2.664746
     153A      2.692325   154A      2.701383   155A      2.749211
     156A      2.761863   157A      2.765061   158A      2.784580
     159A      2.810692   160A      2.834733   161A      2.858747
     162A      2.879459   163A      2.892434   164A      3.064101
     165A      3.099478   166A      3.133447   167A      3.559522
     168A      3.645656

    Final Occupation by Irrep:
              A
    DOCC [    29 ]

  @RHF Final Energy:  -322.81608297170908

   => Energetics <=

    Nuclear Repulsion Energy =            325.9149782921114138
    One-Electron Energy =               -1071.8249942343966268
    Two-Electron Energy =                 423.0939329705761338
    Total Energy =                       -322.8160829717090792

Computation Completed

Properties will be evaluated at   0.000000,   0.000000,   0.000000 [a0]

Properties computed using the SCF density matrix

  Nuclear Dipole Moment: [e a0]
     X:     3.7072      Y:    -5.5261      Z:    -4.9792

  Electronic Dipole Moment: [e a0]
     X:    -4.6906      Y:     6.7783      Z:     6.1276

  Dipole Moment: [e a0]
     X:    -0.9834      Y:     1.2521      Z:     1.1484     Total:     1.9631

  Dipole Moment: [D]
     X:    -2.4996      Y:     3.1826      Z:     2.9190     Total:     4.9897

*** tstop() called on ds3 at Sun Apr 26 21:29:33 2020
Module time:
	user time   =      38.59 seconds =       0.64 minutes
	system time =      13.61 seconds =       0.23 minutes
	total time  =         68 seconds =       1.13 minutes
Total time:
	user time   =      38.59 seconds =       0.64 minutes
	system time =      13.61 seconds =       0.23 minutes
	total time  =         68 seconds =       1.13 minutes
                                     G D M A

                                 by Anthony Stone

                           version 2.2.06, 22 June 2011

               Distributed Multipoles from Gaussian wavefunctions

Starting at 21:29:33 on 26 Apr 2020

Using SCF density matrix from file ./SSI/SSI-135ARG-193VAL-1-dimer.test.17171.fchk

                         Distributed Multipole Analysis

Standard DMA

Positions and radii in angstrom
Multipole moments in atomic units, ea_0^k for rank k

C          x = -0.506062  y =  1.583651  z = -1.460414 angstrom
           Maximum rank =  0   Radius =  0.650 angstrom
                   Q00  =  -0.119376

C          x = -0.639062  y =  0.770651  z =  0.868586 angstrom
           Maximum rank =  0   Radius =  0.650 angstrom
                   Q00  =   1.087718

N          x = -0.004062  y =  1.417651  z = -0.093414 angstrom
           Maximum rank =  0   Radius =  0.650 angstrom
                   Q00  =  -0.488819

N          x = -1.816062  y =  0.220651  z =  0.632586 angstrom
           Maximum rank =  0   Radius =  0.650 angstrom
                   Q00  =  -0.585216

N          x = -0.092062  y =  0.661651  z =  2.062586 angstrom
           Maximum rank =  0   Radius =  0.650 angstrom
                   Q00  =  -0.599874

H          x =  0.922938  y =  1.784651  z =  0.123586 angstrom
           Maximum rank =  0   Radius =  0.325 angstrom
                   Q00  =   0.238559

H          x = -2.182062  y =  0.219651  z = -0.306414 angstrom
           Maximum rank =  0   Radius =  0.325 angstrom
                   Q00  =   0.272092

H          x = -2.305062  y = -0.275349  z =  1.359586 angstrom
           Maximum rank =  0   Radius =  0.325 angstrom
                   Q00  =   0.268916

H          x =  0.858938  y =  0.987651  z =  2.183586 angstrom
           Maximum rank =  0   Radius =  0.325 angstrom
                   Q00  =   0.265453

H          x = -0.556062  y =  0.165651  z =  2.804586 angstrom
           Maximum rank =  0   Radius =  0.325 angstrom
                   Q00  =   0.270343

H          x = -1.448062  y =  2.132651  z = -1.447414 angstrom
           Maximum rank =  0   Radius =  0.325 angstrom
                   Q00  =   0.122671

H          x = -0.682062  y =  0.601651  z = -1.897414 angstrom
           Maximum rank =  0   Radius =  0.325 angstrom
                   Q00  =   0.103518

H          x =  0.216818  y =  2.112803  z = -2.098724 angstrom
           Maximum rank =  0   Radius =  0.325 angstrom
                   Q00  =   0.169469

C          x =  1.825938  y = -1.574349  z = -0.949414 angstrom
           Maximum rank =  0   Radius =  0.650 angstrom
                   Q00  =  -0.244401

C          x =  1.218938  y = -2.969349  z = -1.049414 angstrom
           Maximum rank =  0   Radius =  0.650 angstrom
                   Q00  =  -0.226243

H          x =  2.649938  y = -1.455349  z = -1.651414 angstrom
           Maximum rank =  0   Radius =  0.325 angstrom
                   Q00  =   0.106697

H          x =  1.069938  y = -0.838349  z = -1.201414 angstrom
           Maximum rank =  0   Radius =  0.325 angstrom
                   Q00  =   0.032643

H          x =  2.184938  y = -1.391349  z =  0.062586 angstrom
           Maximum rank =  0   Radius =  0.325 angstrom
                   Q00  =   0.067599

H          x =  0.881938  y = -3.154349  z = -2.063414 angstrom
           Maximum rank =  0   Radius =  0.325 angstrom
                   Q00  =   0.092842

H          x =  1.977898  y = -3.726147  z = -0.801944 angstrom
           Maximum rank =  0   Radius =  0.325 angstrom
                   Q00  =   0.103715

H          x =  0.358528  y = -3.051430  z = -0.369004 angstrom
           Maximum rank =  0   Radius =  0.325 angstrom
                   Q00  =   0.061697

Total multipoles referred to origin at
           x =   0.000000,  y =    0.000000,  z =    0.000000 angstrom
                   Q00  =   1.000000

Finished at 21:29:33 on 26 Apr 2020

  DMA results are available in the Python driver through the
	  variable('DMA DISTRIBUTED MULTIPOLES')
  and
	  variable('DMA TOTAL MULTIPOLES')
  commands.

    Psi4 stopped on: Sunday, 26 April 2020 09:29PM
    Psi4 wall time for execution: 0:01:08.32

*** Psi4 exiting successfully. Buy a developer a beer!
