                               Psi4 1.3.2 release

  ==> Input File <==

--------------------------------------------------------------------------
import numpy as np
set {scf_type pk
basis cc-pvdz
d_convergence 10
gdma_switch   0
gdma_limit    0
gdma_origin   [ 0.0,  0.0,  0.0 ]
}
molecule test {
    units Angstrom
    0 1
    --
    0 1
    C                1.569220156060813    -1.389802825732726    -0.390204950657589
    C                2.248220156060813    -1.781802825732726     0.924795049342411
    H                2.047220156060813    -1.882802825732726    -1.230204950657589
    H                0.511220156060814    -1.646802825732726    -0.376204950657589
    H                1.653220156060814    -0.309802825732726    -0.509204950657589
    H                1.632220156060813    -1.443802825732726     1.758795049342411
    H                3.241510156060813    -1.311860825732726     0.975146049342411
    H                2.398540156060813    -2.870000825732726     0.981614049342411
    C               -1.422779843939187     0.992197174267274    -0.288204950657589
    C               -2.397779843939187     2.174197174267274    -0.245204950657589
    H               -1.693779843939186     0.312197174267274    -1.098204950657589
    H               -0.406779843939187     1.357197174267274    -0.448204950657589
    H               -1.458779843939187     0.452197174267274     0.658795049342411
    H               -2.101779843939187     2.840197174267274     0.565795049342411
    H               -3.431259843939187     1.824467174267274    -0.105160950657589
    H               -2.354409843939187     2.740867174267274    -1.187011950657589

}
e, wfn = energy('scf', return_wfn=True)
gdma(wfn)
dmavals = variable('DMA DISTRIBUTED MULTIPOLES')
charges = np.array(dmavals)
print(charges)
np.save('SSI-012ALA-139ALA-1-dimer.npy', np.array(charges))--------------------------------------------------------------------------

*** tstart() called on ds3
*** at Tue Apr 28 03:34:52 2020

   => Loading Basis Set <=

    Name: CC-PVDZ
    Role: ORBITAL
    Keyword: BASIS
    atoms 1-2, 9-10  entry C          line   138 file /theoryfs2/ds/metcalf/miniconda2/envs/tf2gpu/share/psi4/basis/cc-pvdz.gbs
    atoms 3-8, 11-16 entry H          line    22 file /theoryfs2/ds/metcalf/miniconda2/envs/tf2gpu/share/psi4/basis/cc-pvdz.gbs

         ---------------------------------------------------------
                                   SCF
               by Justin Turney, Rob Parrish, Andy Simmonett
                          and Daniel G. A. Smith
                              RHF Reference
                        1 Threads,    500 MiB Core
         ---------------------------------------------------------

  ==> Geometry <==

    Molecular point group: c1
    Full point group: C1

    Geometry (in Angstrom), charge = 0, multiplicity = 1:

       Center              X                  Y                   Z               Mass
    ------------   -----------------  -----------------  -----------------  -----------------
         C            1.569220156061    -1.389802825733    -0.390204950658    12.000000000000
         C            2.248220156061    -1.781802825733     0.924795049342    12.000000000000
         H            2.047220156061    -1.882802825733    -1.230204950658     1.007825032230
         H            0.511220156061    -1.646802825733    -0.376204950658     1.007825032230
         H            1.653220156061    -0.309802825733    -0.509204950658     1.007825032230
         H            1.632220156061    -1.443802825733     1.758795049342     1.007825032230
         H            3.241510156061    -1.311860825733     0.975146049342     1.007825032230
         H            2.398540156061    -2.870000825733     0.981614049342     1.007825032230
         C           -1.422779843939     0.992197174267    -0.288204950658    12.000000000000
         C           -2.397779843939     2.174197174267    -0.245204950658    12.000000000000
         H           -1.693779843939     0.312197174267    -1.098204950658     1.007825032230
         H           -0.406779843939     1.357197174267    -0.448204950658     1.007825032230
         H           -1.458779843939     0.452197174267     0.658795049342     1.007825032230
         H           -2.101779843939     2.840197174267     0.565795049342     1.007825032230
         H           -3.431259843939     1.824467174267    -0.105160950658     1.007825032230
         H           -2.354409843939     2.740867174267    -1.187011950658     1.007825032230

  Running in c1 symmetry.

  Rotational constants: A =      0.65781  B =      0.04090  C =      0.03976 [cm^-1]
  Rotational constants: A =  19720.58926  B =   1226.28133  C =   1191.93969 [MHz]
  Nuclear repulsion =  119.662655129949073

  Charge       = 0
  Multiplicity = 1
  Electrons    = 36
  Nalpha       = 18
  Nbeta        = 18

  ==> Algorithm <==

  SCF Algorithm Type is PK.
  DIIS enabled.
  MOM disabled.
  Fractional occupation disabled.
  Guess Type is SAD.
  Energy threshold   = 1.00e-06
  Density threshold  = 1.00e-10
  Integral threshold = 0.00e+00

  ==> Primary Basis <==

  Basis Set: CC-PVDZ
    Blend: CC-PVDZ
    Number of shells: 60
    Number of basis function: 116
    Number of Cartesian functions: 120
    Spherical Harmonics?: true
    Max angular momentum: 2

  ==> Pre-Iterations <==

   -------------------------------------------------------
    Irrep   Nso     Nmo     Nalpha   Nbeta   Ndocc  Nsocc
   -------------------------------------------------------
     A        116     116       0       0       0       0
   -------------------------------------------------------
    Total     116     116      18      18      18       0
   -------------------------------------------------------

  ==> Integral Setup <==

  Using integral reordering PK algorithm.
  Sizing the integral batches needed.
  Building batch lookup table.
   Calculation information:
      Number of atoms:                  16
      Number of AO shells:              60
      Number of primitives:            148
      Number of atomic orbitals:       120
      Number of basis functions:       116

      Integral cutoff                 1.00e-12
      Number of threads:                 1

	Batch   1 pq = [       0,    6786] index = [             0,23028291] size =     23028291
  Task number: 3
  Buffer size: 11059200
  Buffer per thread: 2
  We computed 1343038 shell quartets total.
  Whereas there are 1675365 unique shell quartets.

  ==> DiskJK: Disk-Based J/K Matrices <==

    J tasked:                  Yes
    K tasked:                  Yes
    wK tasked:                  No
    Memory [MiB]:              375
    Schwarz Cutoff:          1E-12

    OpenMP threads:              1

  Minimum eigenvalue in the overlap matrix is 6.9697552999E-03.
  Using Symmetric Orthogonalization.

  SCF Guess: Superposition of Atomic Densities via on-the-fly atomic UHF.

  ==> Iterations <==

                        Total Energy        Delta E     RMS |[F,P]|

   @RHF iter SAD:  -157.32638444587670   -1.57326e+02   0.00000e+00
   @RHF iter   1:  -158.30851738748993   -9.82133e-01   4.20786e-03 DIIS
   @RHF iter   2:  -158.44160581062968   -1.33088e-01   1.79662e-03 DIIS
   @RHF iter   3:  -158.46502059946624   -2.34148e-02   3.48882e-04 DIIS
   @RHF iter   4:  -158.46684346133799   -1.82286e-03   3.86317e-05 DIIS
   @RHF iter   5:  -158.46686681090154   -2.33496e-05   6.55181e-06 DIIS
   @RHF iter   6:  -158.46686744156989   -6.30668e-07   1.08284e-06 DIIS
   @RHF iter   7:  -158.46686745299687   -1.14270e-08   3.12032e-07 DIIS
   @RHF iter   8:  -158.46686745385495   -8.58080e-10   3.76965e-08 DIIS
   @RHF iter   9:  -158.46686745387677   -2.18279e-11   6.64190e-09 DIIS
   @RHF iter  10:  -158.46686745387700   -2.27374e-13   1.66522e-09 DIIS
   @RHF iter  11:  -158.46686745387666    3.41061e-13   4.21142e-10 DIIS
   @RHF iter  12:  -158.46686745387706   -3.97904e-13   1.29456e-10 DIIS
   @RHF iter  13:  -158.46686745387726   -1.98952e-13   2.16805e-11 DIIS
  Energy and wave function converged.

  ==> Post-Iterations <==

    Orbital Energies [Eh]
    ---------------------

    Doubly Occupied:

       1A    -11.219620     2A    -11.218756     3A    -11.217875
       4A    -11.214944     5A     -1.017768     6A     -1.016223
       7A     -0.838591     8A     -0.834225     9A     -0.601069
      10A     -0.599293    11A     -0.595748    12A     -0.593203
      13A     -0.503193    14A     -0.495888    15A     -0.489176
      16A     -0.487523    17A     -0.484289    18A     -0.479801

    Virtual:

      19A      0.172755    20A      0.194160    21A      0.223486
      22A      0.227548    23A      0.241072    24A      0.257171
      25A      0.266880    26A      0.277715    27A      0.279475
      28A      0.293552    29A      0.303533    30A      0.343788
      31A      0.393298    32A      0.397851    33A      0.567929
      34A      0.592129    35A      0.594199    36A      0.600573
      37A      0.610437    38A      0.632558    39A      0.680614
      40A      0.685206    41A      0.691754    42A      0.751780
      43A      0.843224    44A      0.877054    45A      0.884027
      46A      0.889486    47A      0.891665    48A      0.893870
      49A      0.897918    50A      0.909998    51A      0.912674
      52A      0.917951    53A      0.929168    54A      0.951622
      55A      0.962600    56A      0.992558    57A      1.122037
      58A      1.123822    59A      1.129942    60A      1.134932
      61A      1.221058    62A      1.249424    63A      1.471880
      64A      1.476094    65A      1.479860    66A      1.484312
      67A      1.568192    68A      1.583215    69A      1.680066
      70A      1.682411    71A      1.691856    72A      1.697723
      73A      1.854282    74A      1.859370    75A      1.866856
      76A      1.872459    77A      1.889065    78A      1.915873
      79A      1.935257    80A      1.937156    81A      1.943552
      82A      1.945682    83A      1.947800    84A      1.951876
      85A      1.957619    86A      1.961792    87A      1.964198
      88A      2.055115    89A      2.095631    90A      2.107944
      91A      2.118192    92A      2.132200    93A      2.294156
      94A      2.297933    95A      2.310569    96A      2.334346
      97A      2.441892    98A      2.449669    99A      2.457030
     100A      2.469973   101A      2.556092   102A      2.566947
     103A      2.574564   104A      2.582605   105A      2.757607
     106A      2.762251   107A      2.783209   108A      2.795669
     109A      2.836944   110A      2.841354   111A      2.854507
     112A      2.863287   113A      2.942105   114A      2.949240
     115A      2.950972   116A      2.969757

    Final Occupation by Irrep:
              A
    DOCC [    18 ]

  @RHF Final Energy:  -158.46686745387726

   => Energetics <=

    Nuclear Repulsion Energy =            119.6626551299490728
    One-Electron Energy =                -448.4446730018212293
    Two-Electron Energy =                 170.3151504179948859
    Total Energy =                       -158.4668674538772564

Computation Completed

Properties will be evaluated at   0.000000,   0.000000,   0.000000 [a0]

Properties computed using the SCF density matrix

  Nuclear Dipole Moment: [e a0]
     X:     0.0348      Y:     0.0582      Z:    -0.0132

  Electronic Dipole Moment: [e a0]
     X:    -0.0352      Y:    -0.0512      Z:     0.0040

  Dipole Moment: [e a0]
     X:    -0.0004      Y:     0.0070      Z:    -0.0092     Total:     0.0116

  Dipole Moment: [D]
     X:    -0.0009      Y:     0.0178      Z:    -0.0234     Total:     0.0294

*** tstop() called on ds3 at Tue Apr 28 03:35:03 2020
Module time:
	user time   =       7.75 seconds =       0.13 minutes
	system time =       3.41 seconds =       0.06 minutes
	total time  =         11 seconds =       0.18 minutes
Total time:
	user time   =       7.75 seconds =       0.13 minutes
	system time =       3.41 seconds =       0.06 minutes
	total time  =         11 seconds =       0.18 minutes
                                     G D M A

                                 by Anthony Stone

                           version 2.2.06, 22 June 2011

               Distributed Multipoles from Gaussian wavefunctions

Starting at 3:35:3 on 28 Apr 2020

Using SCF density matrix from file ./SSI/SSI-012ALA-139ALA-1-dimer.test.3334.fchk

                         Distributed Multipole Analysis

Standard DMA

Positions and radii in angstrom
Multipole moments in atomic units, ea_0^k for rank k

C          x =  1.569220  y = -1.389803  z = -0.390205 angstrom
           Maximum rank =  0   Radius =  0.650 angstrom
                   Q00  =  -0.246099

C          x =  2.248220  y = -1.781803  z =  0.924795 angstrom
           Maximum rank =  0   Radius =  0.650 angstrom
                   Q00  =  -0.226610

H          x =  2.047220  y = -1.882803  z = -1.230205 angstrom
           Maximum rank =  0   Radius =  0.325 angstrom
                   Q00  =   0.079967

H          x =  0.511220  y = -1.646803  z = -0.376205 angstrom
           Maximum rank =  0   Radius =  0.325 angstrom
                   Q00  =   0.081296

H          x =  1.653220  y = -0.309803  z = -0.509205 angstrom
           Maximum rank =  0   Radius =  0.325 angstrom
                   Q00  =   0.077517

H          x =  1.632220  y = -1.443803  z =  1.758795 angstrom
           Maximum rank =  0   Radius =  0.325 angstrom
                   Q00  =   0.080337

H          x =  3.241510  y = -1.311861  z =  0.975146 angstrom
           Maximum rank =  0   Radius =  0.325 angstrom
                   Q00  =   0.076224

H          x =  2.398540  y = -2.870001  z =  0.981614 angstrom
           Maximum rank =  0   Radius =  0.325 angstrom
                   Q00  =   0.077539

C          x = -1.422780  y =  0.992197  z = -0.288205 angstrom
           Maximum rank =  0   Radius =  0.650 angstrom
                   Q00  =  -0.238423

C          x = -2.397780  y =  2.174197  z = -0.245205 angstrom
           Maximum rank =  0   Radius =  0.650 angstrom
                   Q00  =  -0.238331

H          x = -1.693780  y =  0.312197  z = -1.098205 angstrom
           Maximum rank =  0   Radius =  0.325 angstrom
                   Q00  =   0.079654

H          x = -0.406780  y =  1.357197  z = -0.448205 angstrom
           Maximum rank =  0   Radius =  0.325 angstrom
                   Q00  =   0.080495

H          x = -1.458780  y =  0.452197  z =  0.658795 angstrom
           Maximum rank =  0   Radius =  0.325 angstrom
                   Q00  =   0.078169

H          x = -2.101780  y =  2.840197  z =  0.565795 angstrom
           Maximum rank =  0   Radius =  0.325 angstrom
                   Q00  =   0.079877

H          x = -3.431260  y =  1.824467  z = -0.105161 angstrom
           Maximum rank =  0   Radius =  0.325 angstrom
                   Q00  =   0.080200

H          x = -2.354410  y =  2.740867  z = -1.187012 angstrom
           Maximum rank =  0   Radius =  0.325 angstrom
                   Q00  =   0.078188

Total multipoles referred to origin at
           x =   0.000000,  y =    0.000000,  z =    0.000000 angstrom
                   Q00  =  -0.000000

Finished at 3:35:3 on 28 Apr 2020

  DMA results are available in the Python driver through the
	  variable('DMA DISTRIBUTED MULTIPOLES')
  and
	  variable('DMA TOTAL MULTIPOLES')
  commands.

    Psi4 stopped on: Tuesday, 28 April 2020 03:35AM
    Psi4 wall time for execution: 0:00:11.02

*** Psi4 exiting successfully. Buy a developer a beer!
