                               Psi4 1.3.2 release

  ==> Input File <==

--------------------------------------------------------------------------
import numpy as np
set {scf_type pk
basis cc-pvdz
d_convergence 10
gdma_switch   0
gdma_limit    0
gdma_origin   [ 0.0,  0.0,  0.0 ]
}
molecule test {
    units Angstrom
    1 1
    --
    1 1
    C               -1.282028623432222    -0.903115664396458     0.142887889658585
    C               -2.515028623432222    -1.810115664396458     0.118887889658585
    S               -1.198028623432222     0.254884335603542     1.532887889658585
    H               -0.386028623432222    -1.529115664396458     0.172887889658585
    H               -1.254028623432222    -0.335115664396458    -0.791112110341415
    H               -2.300028623432222    -2.610115664396458    -0.582112110341415
    H               -1.322028623432222    -0.622115664396458     2.537887889658585
    H               -3.388750623432222    -1.248915664396458    -0.243972110341415
    H               -2.658521623432222    -2.298995664396458     1.093777889658585
    C                1.661971376567777     0.672884335603542    -1.637112110341415
    C                2.883971376567778    -0.173115664396458    -1.590112110341415
    N                1.680971376567778     1.539884335603542    -0.442112110341415
    H                1.675971376567778     1.281884335603542    -2.549112110341415
    H                0.769971376567778     0.037884335603542    -1.659112110341415
    H                2.808971376567778    -0.810115664396458    -0.708112110341415
    H                3.763971376567778     0.471884335603542    -1.500112110341415
    H                0.865971376567778     2.144884335603542    -0.419112110341415
    H                1.699971376567778     1.012884335603542     0.424887889658585
    H                2.490971376567778     2.152884335603542    -0.446112110341415
    H                2.966788376567777    -0.774095664396458    -2.507702110341415

}
e, wfn = energy('scf', return_wfn=True)
gdma(wfn)
dmavals = variable('DMA DISTRIBUTED MULTIPOLES')
charges = np.array(dmavals)
print(charges)
np.save('SSI-051CYS-154LYS-1-dimer.npy', np.array(charges))--------------------------------------------------------------------------

*** tstart() called on ds3
*** at Sun Apr 26 17:52:27 2020

   => Loading Basis Set <=

    Name: CC-PVDZ
    Role: ORBITAL
    Keyword: BASIS
    atoms 1-2, 10-11 entry C          line   138 file /theoryfs2/ds/metcalf/miniconda2/envs/tf2gpu/share/psi4/basis/cc-pvdz.gbs
    atoms 3          entry S          line   598 file /theoryfs2/ds/metcalf/miniconda2/envs/tf2gpu/share/psi4/basis/cc-pvdz.gbs
    atoms 4-9, 13-20 entry H          line    22 file /theoryfs2/ds/metcalf/miniconda2/envs/tf2gpu/share/psi4/basis/cc-pvdz.gbs
    atoms 12         entry N          line   168 file /theoryfs2/ds/metcalf/miniconda2/envs/tf2gpu/share/psi4/basis/cc-pvdz.gbs

         ---------------------------------------------------------
                                   SCF
               by Justin Turney, Rob Parrish, Andy Simmonett
                          and Daniel G. A. Smith
                              RHF Reference
                        1 Threads,    500 MiB Core
         ---------------------------------------------------------

  ==> Geometry <==

    Molecular point group: c1
    Full point group: C1

    Geometry (in Angstrom), charge = 1, multiplicity = 1:

       Center              X                  Y                   Z               Mass
    ------------   -----------------  -----------------  -----------------  -----------------
         C           -1.282028623432    -0.903115664396     0.142887889659    12.000000000000
         C           -2.515028623432    -1.810115664396     0.118887889659    12.000000000000
         S           -1.198028623432     0.254884335604     1.532887889659    31.972071174400
         H           -0.386028623432    -1.529115664396     0.172887889659     1.007825032230
         H           -1.254028623432    -0.335115664396    -0.791112110341     1.007825032230
         H           -2.300028623432    -2.610115664396    -0.582112110341     1.007825032230
         H           -1.322028623432    -0.622115664396     2.537887889659     1.007825032230
         H           -3.388750623432    -1.248915664396    -0.243972110341     1.007825032230
         H           -2.658521623432    -2.298995664396     1.093777889659     1.007825032230
         C            1.661971376568     0.672884335604    -1.637112110341    12.000000000000
         C            2.883971376568    -0.173115664396    -1.590112110341    12.000000000000
         N            1.680971376568     1.539884335604    -0.442112110341    14.003074004430
         H            1.675971376568     1.281884335604    -2.549112110341     1.007825032230
         H            0.769971376568     0.037884335604    -1.659112110341     1.007825032230
         H            2.808971376568    -0.810115664396    -0.708112110341     1.007825032230
         H            3.763971376568     0.471884335604    -1.500112110341     1.007825032230
         H            0.865971376568     2.144884335604    -0.419112110341     1.007825032230
         H            1.699971376568     1.012884335604     0.424887889659     1.007825032230
         H            2.490971376568     2.152884335604    -0.446112110341     1.007825032230
         H            2.966788376568    -0.774095664396    -2.507702110341     1.007825032230

  Running in c1 symmetry.

  Rotational constants: A =      0.11605  B =      0.03052  C =      0.02586 [cm^-1]
  Rotational constants: A =   3479.01347  B =    914.83201  C =    775.13424 [MHz]
  Nuclear repulsion =  306.433991631318349

  Charge       = 1
  Multiplicity = 1
  Electrons    = 60
  Nalpha       = 30
  Nbeta        = 30

  ==> Algorithm <==

  SCF Algorithm Type is PK.
  DIIS enabled.
  MOM disabled.
  Fractional occupation disabled.
  Guess Type is SAD.
  Energy threshold   = 1.00e-06
  Density threshold  = 1.00e-10
  Integral threshold = 0.00e+00

  ==> Primary Basis <==

  Basis Set: CC-PVDZ
    Blend: CC-PVDZ
    Number of shells: 80
    Number of basis function: 158
    Number of Cartesian functions: 164
    Spherical Harmonics?: true
    Max angular momentum: 2

  ==> Pre-Iterations <==

   -------------------------------------------------------
    Irrep   Nso     Nmo     Nalpha   Nbeta   Ndocc  Nsocc
   -------------------------------------------------------
     A        158     158       0       0       0       0
   -------------------------------------------------------
    Total     158     158      30      30      30       0
   -------------------------------------------------------

  ==> Integral Setup <==

  Using integral reordering PK algorithm.
  Sizing the integral batches needed.
  Building batch lookup table.
   Calculation information:
      Number of atoms:                  20
      Number of AO shells:              80
      Number of primitives:            230
      Number of atomic orbitals:       164
      Number of basis functions:       158

      Integral cutoff                 1.00e-12
      Number of threads:                 1

	Batch   1 pq = [       0,    9405] index = [             0,44231715] size =     44231715
	Batch   2 pq = [    9405,   12561] index = [      44231715,78895641] size =     34663926
  Task number: 8
  Buffer size: 11059200
  Buffer per thread: 2
  We computed 4637948 shell quartets total.
  Whereas there are 5250420 unique shell quartets.

  ==> DiskJK: Disk-Based J/K Matrices <==

    J tasked:                  Yes
    K tasked:                  Yes
    wK tasked:                  No
    Memory [MiB]:              375
    Schwarz Cutoff:          1E-12

    OpenMP threads:              1

  Minimum eigenvalue in the overlap matrix is 5.0926253157E-03.
  Using Symmetric Orthogonalization.

  SCF Guess: Superposition of Atomic Densities via on-the-fly atomic UHF.

  ==> Iterations <==

                        Total Energy        Delta E     RMS |[F,P]|

   @RHF iter SAD:  -610.92091767145280   -6.10921e+02   0.00000e+00
   @RHF iter   1:  -611.22508052955482   -3.04163e-01   3.09074e-03 DIIS
   @RHF iter   2:  -611.37664675813949   -1.51566e-01   1.11589e-03 DIIS
   @RHF iter   3:  -611.39470411388299   -1.80574e-02   3.23754e-04 DIIS
   @RHF iter   4:  -611.39697546507932   -2.27135e-03   6.28811e-05 DIIS
   @RHF iter   5:  -611.39705381706449   -7.83520e-05   2.01115e-05 DIIS
   @RHF iter   6:  -611.39706208379425   -8.26673e-06   4.43098e-06 DIIS
   @RHF iter   7:  -611.39706260729963   -5.23505e-07   1.23870e-06 DIIS
   @RHF iter   8:  -611.39706265639120   -4.90916e-08   3.27680e-07 DIIS
   @RHF iter   9:  -611.39706266001770   -3.62650e-09   8.39468e-08 DIIS
   @RHF iter  10:  -611.39706266029668   -2.78987e-10   2.46552e-08 DIIS
   @RHF iter  11:  -611.39706266032078   -2.41016e-11   8.54737e-09 DIIS
   @RHF iter  12:  -611.39706266032522   -4.43379e-12   3.16324e-09 DIIS
   @RHF iter  13:  -611.39706266032681   -1.59162e-12   9.29493e-10 DIIS
   @RHF iter  14:  -611.39706266032624    5.68434e-13   3.23615e-10 DIIS
   @RHF iter  15:  -611.39706266032692   -6.82121e-13   9.60917e-11 DIIS
  Energy and wave function converged.

  ==> Post-Iterations <==

    Orbital Energies [Eh]
    ---------------------

    Doubly Occupied:

       1A    -92.074215     2A    -15.895654     3A    -11.475560
       4A    -11.403167     5A    -11.391880     6A    -11.340363
       7A     -9.077779     8A     -6.759979     9A     -6.758534
      10A     -6.756368    11A     -1.521053    12A     -1.228747
      13A     -1.193605    14A     -1.062736    15A     -1.054047
      16A     -0.975317    17A     -0.958523    18A     -0.940727
      19A     -0.864516    20A     -0.800528    21A     -0.756889
      22A     -0.720835    23A     -0.708695    24A     -0.700479
      25A     -0.685669    26A     -0.674618    27A     -0.633623
      28A     -0.619993    29A     -0.564091    30A     -0.481253

    Virtual:

      31A     -0.038883    32A      0.014308    33A      0.018661
      34A      0.033091    35A      0.058593    36A      0.071815
      37A      0.090124    38A      0.106635    39A      0.108063
      40A      0.114292    41A      0.123220    42A      0.139066
      43A      0.156764    44A      0.173373    45A      0.181132
      46A      0.192461    47A      0.211077    48A      0.254575
      49A      0.373989    50A      0.394583    51A      0.402651
      52A      0.414716    53A      0.432575    54A      0.449814
      55A      0.465637    56A      0.467269    57A      0.510959
      58A      0.547381    59A      0.554195    60A      0.575701
      61A      0.609653    62A      0.618398    63A      0.634038
      64A      0.653717    65A      0.671458    66A      0.678546
      67A      0.685288    68A      0.705282    69A      0.708530
      70A      0.717028    71A      0.732321    72A      0.753774
      73A      0.757529    74A      0.760408    75A      0.773502
      76A      0.778003    77A      0.796750    78A      0.815706
      79A      0.831382    80A      0.832441    81A      0.843644
      82A      0.847543    83A      0.859310    84A      0.892493
      85A      0.934578    86A      0.965291    87A      1.036666
      88A      1.063597    89A      1.119988    90A      1.165108
      91A      1.181316    92A      1.218201    93A      1.247596
      94A      1.286210    95A      1.319632    96A      1.346847
      97A      1.408276    98A      1.468499    99A      1.475915
     100A      1.494046   101A      1.502769   102A      1.526881
     103A      1.565289   104A      1.585437   105A      1.593685
     106A      1.620474   107A      1.660823   108A      1.679822
     109A      1.721961   110A      1.733814   111A      1.736662
     112A      1.750778   113A      1.758859   114A      1.760510
     115A      1.780009   116A      1.783914   117A      1.797482
     118A      1.818751   119A      1.829384   120A      1.863689
     121A      1.894011   122A      1.902358   123A      1.913264
     124A      1.925116   125A      1.940157   126A      1.989573
     127A      2.006120   128A      2.013698   129A      2.052017
     130A      2.098469   131A      2.122120   132A      2.168457
     133A      2.173104   134A      2.206730   135A      2.211057
     136A      2.263152   137A      2.298223   138A      2.316016
     139A      2.347991   140A      2.374788   141A      2.425594
     142A      2.432829   143A      2.441206   144A      2.512189
     145A      2.547986   146A      2.597358   147A      2.631185
     148A      2.646686   149A      2.662906   150A      2.687002
     151A      2.702427   152A      2.756146   153A      2.766668
     154A      2.800881   155A      2.824352   156A      2.870968
     157A      3.117393   158A      3.151716

    Final Occupation by Irrep:
              A
    DOCC [    30 ]

  @RHF Final Energy:  -611.39706266032692

   => Energetics <=

    Nuclear Repulsion Energy =            306.4339916313183494
    One-Electron Energy =               -1435.5032198119097302
    Two-Electron Energy =                 517.6721655202644570
    Total Energy =                       -611.3970626603269238

Computation Completed

Properties will be evaluated at   0.000000,   0.000000,   0.000000 [a0]

Properties computed using the SCF density matrix

  Nuclear Dipole Moment: [e a0]
     X:     5.3382      Y:    -2.9285      Z:    -6.6866

  Electronic Dipole Moment: [e a0]
     X:    -2.5284      Y:     4.4509      Z:     5.3849

  Dipole Moment: [e a0]
     X:     2.8098      Y:     1.5223      Z:    -1.3017     Total:     3.4507

  Dipole Moment: [D]
     X:     7.1419      Y:     3.8694      Z:    -3.3087     Total:     8.7707

*** tstop() called on ds3 at Sun Apr 26 17:53:12 2020
Module time:
	user time   =      34.26 seconds =       0.57 minutes
	system time =      12.36 seconds =       0.21 minutes
	total time  =         45 seconds =       0.75 minutes
Total time:
	user time   =      34.26 seconds =       0.57 minutes
	system time =      12.36 seconds =       0.21 minutes
	total time  =         45 seconds =       0.75 minutes
                                     G D M A

                                 by Anthony Stone

                           version 2.2.06, 22 June 2011

               Distributed Multipoles from Gaussian wavefunctions

Starting at 17:53:12 on 26 Apr 2020

Using SCF density matrix from file ./SSI/SSI-051CYS-154LYS-1-dimer.test.18089.fchk

                         Distributed Multipole Analysis

Standard DMA

Positions and radii in angstrom
Multipole moments in atomic units, ea_0^k for rank k

C          x = -1.282029  y = -0.903116  z =  0.142888 angstrom
           Maximum rank =  0   Radius =  0.650 angstrom
                   Q00  =  -0.212920

C          x = -2.515029  y = -1.810116  z =  0.118888 angstrom
           Maximum rank =  0   Radius =  0.650 angstrom
                   Q00  =  -0.197010

S          x = -1.198029  y =  0.254884  z =  1.532888 angstrom
           Maximum rank =  0   Radius =  0.650 angstrom
                   Q00  =  -0.163138

H          x = -0.386029  y = -1.529116  z =  0.172888 angstrom
           Maximum rank =  0   Radius =  0.325 angstrom
                   Q00  =   0.054849

H          x = -1.254029  y = -0.335116  z = -0.791112 angstrom
           Maximum rank =  0   Radius =  0.325 angstrom
                   Q00  =   0.073155

H          x = -2.300029  y = -2.610116  z = -0.582112 angstrom
           Maximum rank =  0   Radius =  0.325 angstrom
                   Q00  =   0.106572

H          x = -1.322029  y = -0.622116  z =  2.537888 angstrom
           Maximum rank =  0   Radius =  0.325 angstrom
                   Q00  =   0.146638

H          x = -3.388751  y = -1.248916  z = -0.243972 angstrom
           Maximum rank =  0   Radius =  0.325 angstrom
                   Q00  =   0.097941

H          x = -2.658522  y = -2.298996  z =  1.093778 angstrom
           Maximum rank =  0   Radius =  0.325 angstrom
                   Q00  =   0.089860

C          x =  1.661971  y =  0.672884  z = -1.637112 angstrom
           Maximum rank =  0   Radius =  0.650 angstrom
                   Q00  =  -0.014679

C          x =  2.883971  y = -0.173116  z = -1.590112 angstrom
           Maximum rank =  0   Radius =  0.650 angstrom
                   Q00  =  -0.211124

N          x =  1.680971  y =  1.539884  z = -0.442112 angstrom
           Maximum rank =  0   Radius =  0.650 angstrom
                   Q00  =  -0.146040

H          x =  1.675971  y =  1.281884  z = -2.549112 angstrom
           Maximum rank =  0   Radius =  0.325 angstrom
                   Q00  =   0.125805

H          x =  0.769971  y =  0.037884  z = -1.659112 angstrom
           Maximum rank =  0   Radius =  0.325 angstrom
                   Q00  =   0.134254

H          x =  2.808971  y = -0.810116  z = -0.708112 angstrom
           Maximum rank =  0   Radius =  0.325 angstrom
                   Q00  =   0.097207

H          x =  3.763971  y =  0.471884  z = -1.500112 angstrom
           Maximum rank =  0   Radius =  0.325 angstrom
                   Q00  =   0.093432

H          x =  0.865971  y =  2.144884  z = -0.419112 angstrom
           Maximum rank =  0   Radius =  0.325 angstrom
                   Q00  =   0.258542

H          x =  1.699971  y =  1.012884  z =  0.424888 angstrom
           Maximum rank =  0   Radius =  0.325 angstrom
                   Q00  =   0.266015

H          x =  2.490971  y =  2.152884  z = -0.446112 angstrom
           Maximum rank =  0   Radius =  0.325 angstrom
                   Q00  =   0.250512

H          x =  2.966788  y = -0.774096  z = -2.507702 angstrom
           Maximum rank =  0   Radius =  0.325 angstrom
                   Q00  =   0.150131

Total multipoles referred to origin at
           x =   0.000000,  y =    0.000000,  z =    0.000000 angstrom
                   Q00  =   1.000000

Finished at 17:53:12 on 26 Apr 2020

  DMA results are available in the Python driver through the
	  variable('DMA DISTRIBUTED MULTIPOLES')
  and
	  variable('DMA TOTAL MULTIPOLES')
  commands.

    Psi4 stopped on: Sunday, 26 April 2020 05:53PM
    Psi4 wall time for execution: 0:00:45.55

*** Psi4 exiting successfully. Buy a developer a beer!
