                               Psi4 1.3.2 release

  ==> Input File <==

--------------------------------------------------------------------------
import numpy as np
set {scf_type pk
basis cc-pvdz
d_convergence 10
gdma_switch   0
gdma_limit    0
gdma_origin   [ 0.0,  0.0,  0.0 ]
}
molecule test {
    units Angstrom
    0 1
    --
    0 1
    C                0.810829646150138     0.780909370007079     0.240527696857544
    C                1.205829646150138     1.918909370007079    -0.735472303142456
    C                1.783829646150138     0.748909370007079     1.440527696857544
    O               -0.502170353849862     0.965909370007079     0.752527696857544
    H                0.869829646150138    -0.172090629992921    -0.285472303142456
    H                0.544829646150138     1.883909370007079    -1.599472303142456
    H                1.655829646150138     1.630909370007079     2.068527696857544
    H                1.574829646150138    -0.133090629992921     2.043527696857544
    H                2.824829646150138     0.671909370007079     1.131527696857544
    H               -0.684170353849862     0.250909370007079     1.365527696857544
    H                2.254159646150138     1.749729370007079    -1.022482303142456
    H                1.035529646150138     2.878839370007079    -0.226032303142456
    C               -1.597170353849862    -2.175090629992920    -0.133472303142456
    C               -1.578170353849862    -2.189090629992921    -1.659472303142456
    H               -2.525170353849862    -1.751090629992921     0.249527696857544
    H               -1.538170353849862    -3.202090629992921     0.228527696857544
    H               -0.739170353849862    -1.635090629992920     0.256527696857544
    H               -2.440170353849862    -2.755090629992921    -2.000472303142456
    H               -1.644500353849862    -1.162740629992921    -2.049612303142456
    H               -0.662210353849862    -2.684460629992921    -2.013922303142456

}
e, wfn = energy('scf', return_wfn=True)
gdma(wfn)
dmavals = variable('DMA DISTRIBUTED MULTIPOLES')
charges = np.array(dmavals)
print(charges)
np.save('SSI-067THR-082VAL-2-dimer.npy', np.array(charges))--------------------------------------------------------------------------

*** tstart() called on ds3
*** at Tue Apr 28 21:54:51 2020

   => Loading Basis Set <=

    Name: CC-PVDZ
    Role: ORBITAL
    Keyword: BASIS
    atoms 1-3, 13-14  entry C          line   138 file /theoryfs2/ds/metcalf/miniconda2/envs/tf2gpu/share/psi4/basis/cc-pvdz.gbs
    atoms 4           entry O          line   198 file /theoryfs2/ds/metcalf/miniconda2/envs/tf2gpu/share/psi4/basis/cc-pvdz.gbs
    atoms 5-12, 15-20 entry H          line    22 file /theoryfs2/ds/metcalf/miniconda2/envs/tf2gpu/share/psi4/basis/cc-pvdz.gbs

         ---------------------------------------------------------
                                   SCF
               by Justin Turney, Rob Parrish, Andy Simmonett
                          and Daniel G. A. Smith
                              RHF Reference
                        1 Threads,    500 MiB Core
         ---------------------------------------------------------

  ==> Geometry <==

    Molecular point group: c1
    Full point group: C1

    Geometry (in Angstrom), charge = 0, multiplicity = 1:

       Center              X                  Y                   Z               Mass
    ------------   -----------------  -----------------  -----------------  -----------------
         C            0.810829646150     0.780909370007     0.240527696858    12.000000000000
         C            1.205829646150     1.918909370007    -0.735472303142    12.000000000000
         C            1.783829646150     0.748909370007     1.440527696858    12.000000000000
         O           -0.502170353850     0.965909370007     0.752527696858    15.994914619570
         H            0.869829646150    -0.172090629993    -0.285472303142     1.007825032230
         H            0.544829646150     1.883909370007    -1.599472303142     1.007825032230
         H            1.655829646150     1.630909370007     2.068527696858     1.007825032230
         H            1.574829646150    -0.133090629993     2.043527696858     1.007825032230
         H            2.824829646150     0.671909370007     1.131527696858     1.007825032230
         H           -0.684170353850     0.250909370007     1.365527696858     1.007825032230
         H            2.254159646150     1.749729370007    -1.022482303142     1.007825032230
         H            1.035529646150     2.878839370007    -0.226032303142     1.007825032230
         C           -1.597170353850    -2.175090629993    -0.133472303142    12.000000000000
         C           -1.578170353850    -2.189090629993    -1.659472303142    12.000000000000
         H           -2.525170353850    -1.751090629993     0.249527696858     1.007825032230
         H           -1.538170353850    -3.202090629993     0.228527696858     1.007825032230
         H           -0.739170353850    -1.635090629993     0.256527696858     1.007825032230
         H           -2.440170353850    -2.755090629993    -2.000472303142     1.007825032230
         H           -1.644500353850    -1.162740629993    -2.049612303142     1.007825032230
         H           -0.662210353850    -2.684460629993    -2.013922303142     1.007825032230

  Running in c1 symmetry.

  Rotational constants: A =      0.15053  B =      0.03888  C =      0.03582 [cm^-1]
  Rotational constants: A =   4512.74394  B =   1165.62008  C =   1073.75611 [MHz]
  Nuclear repulsion =  249.918398658438150

  Charge       = 0
  Multiplicity = 1
  Electrons    = 52
  Nalpha       = 26
  Nbeta        = 26

  ==> Algorithm <==

  SCF Algorithm Type is PK.
  DIIS enabled.
  MOM disabled.
  Fractional occupation disabled.
  Guess Type is SAD.
  Energy threshold   = 1.00e-06
  Density threshold  = 1.00e-10
  Integral threshold = 0.00e+00

  ==> Primary Basis <==

  Basis Set: CC-PVDZ
    Blend: CC-PVDZ
    Number of shells: 78
    Number of basis function: 154
    Number of Cartesian functions: 160
    Spherical Harmonics?: true
    Max angular momentum: 2

  ==> Pre-Iterations <==

   -------------------------------------------------------
    Irrep   Nso     Nmo     Nalpha   Nbeta   Ndocc  Nsocc
   -------------------------------------------------------
     A        154     154       0       0       0       0
   -------------------------------------------------------
    Total     154     154      26      26      26       0
   -------------------------------------------------------

  ==> Integral Setup <==

  Using integral reordering PK algorithm.
  Sizing the integral batches needed.
  Building batch lookup table.
   Calculation information:
      Number of atoms:                  20
      Number of AO shells:              78
      Number of primitives:            202
      Number of atomic orbitals:       160
      Number of basis functions:       154

      Integral cutoff                 1.00e-12
      Number of threads:                 1

	Batch   1 pq = [       0,    9405] index = [             0,44231715] size =     44231715
	Batch   2 pq = [    9405,   11935] index = [      44231715,71228080] size =     26996365
  Task number: 7
  Buffer size: 11059200
  Buffer per thread: 2
  We computed 4191129 shell quartets total.
  Whereas there are 4747821 unique shell quartets.

  ==> DiskJK: Disk-Based J/K Matrices <==

    J tasked:                  Yes
    K tasked:                  Yes
    wK tasked:                  No
    Memory [MiB]:              375
    Schwarz Cutoff:          1E-12

    OpenMP threads:              1

  Minimum eigenvalue in the overlap matrix is 4.7192537136E-03.
  Using Symmetric Orthogonalization.

  SCF Guess: Superposition of Atomic Densities via on-the-fly atomic UHF.

  ==> Iterations <==

                        Total Energy        Delta E     RMS |[F,P]|

   @RHF iter SAD:  -271.07023462243893   -2.71070e+02   0.00000e+00
   @RHF iter   1:  -272.14523736304443   -1.07500e+00   3.86829e-03 DIIS
   @RHF iter   2:  -272.32726537154446   -1.82028e-01   1.75555e-03 DIIS
   @RHF iter   3:  -272.36051319394369   -3.32478e-02   3.50009e-04 DIIS
   @RHF iter   4:  -272.36296068929408   -2.44750e-03   1.16604e-04 DIIS
   @RHF iter   5:  -272.36313019430804   -1.69505e-04   2.15786e-05 DIIS
   @RHF iter   6:  -272.36313903836009   -8.84405e-06   4.27561e-06 DIIS
   @RHF iter   7:  -272.36313946184168   -4.23482e-07   1.29696e-06 DIIS
   @RHF iter   8:  -272.36313949775854   -3.59169e-08   3.77019e-07 DIIS
   @RHF iter   9:  -272.36313950220386   -4.44533e-09   9.28861e-08 DIIS
   @RHF iter  10:  -272.36313950248984   -2.85979e-10   2.66862e-08 DIIS
   @RHF iter  11:  -272.36313950251042   -2.05773e-11   7.74009e-09 DIIS
   @RHF iter  12:  -272.36313950251230   -1.87583e-12   2.36503e-09 DIIS
   @RHF iter  13:  -272.36313950251264   -3.41061e-13   6.55860e-10 DIIS
   @RHF iter  14:  -272.36313950251355   -9.09495e-13   1.48464e-10 DIIS
   @RHF iter  15:  -272.36313950251179    1.76215e-12   5.25556e-11 DIIS
  Energy and wave function converged.

  ==> Post-Iterations <==

    Orbital Energies [Eh]
    ---------------------

    Doubly Occupied:

       1A    -20.548436     2A    -11.280829     3A    -11.222613
       4A    -11.220154     5A    -11.219361     6A    -11.218954
       7A     -1.355536     8A     -1.035018     9A     -1.021469
      10A     -0.934143    11A     -0.839383    12A     -0.798352
      13A     -0.693804    14A     -0.620693    15A     -0.604551
      16A     -0.600034    17A     -0.597750    18A     -0.543518
      19A     -0.540376    20A     -0.526940    21A     -0.508316
      22A     -0.502139    23A     -0.489784    24A     -0.484838
      25A     -0.458327    26A     -0.428264

    Virtual:

      27A      0.164236    28A      0.192348    29A      0.207585
      30A      0.228237    31A      0.234804    32A      0.240545
      33A      0.256961    34A      0.265923    35A      0.268816
      36A      0.277110    37A      0.289206    38A      0.306416
      39A      0.314313    40A      0.344662    41A      0.372654
      42A      0.390595    43A      0.410886    44A      0.433573
      45A      0.562997    46A      0.595587    47A      0.609246
      48A      0.611977    49A      0.617492    50A      0.658945
      51A      0.675322    52A      0.685744    53A      0.718146
      54A      0.755777    55A      0.770440    56A      0.795306
      57A      0.831915    58A      0.833916    59A      0.847045
      60A      0.877637    61A      0.887808    62A      0.889047
      63A      0.893090    64A      0.897325    65A      0.901855
      66A      0.907274    67A      0.918412    68A      0.933153
      69A      0.940742    70A      0.950312    71A      0.957789
      72A      0.978239    73A      1.017239    74A      1.118807
      75A      1.127940    76A      1.130285    77A      1.151168
      78A      1.179856    79A      1.267820    80A      1.280731
      81A      1.356847    82A      1.397838    83A      1.406093
      84A      1.468947    85A      1.487670    86A      1.493931
      87A      1.551492    88A      1.554121    89A      1.585744
      90A      1.594593    91A      1.662904    92A      1.674697
      93A      1.684652    94A      1.695237    95A      1.715494
      96A      1.732751    97A      1.812163    98A      1.837838
      99A      1.853917   100A      1.867339   101A      1.879993
     102A      1.891468   103A      1.908542   104A      1.923174
     105A      1.938637   106A      1.950905   107A      1.953776
     108A      1.963892   109A      1.969921   110A      1.972684
     111A      1.986889   112A      2.003410   113A      2.013565
     114A      2.020975   115A      2.047831   116A      2.100821
     117A      2.116795   118A      2.127212   119A      2.157030
     120A      2.207193   121A      2.261668   122A      2.271537
     123A      2.291778   124A      2.300342   125A      2.318594
     126A      2.382645   127A      2.454571   128A      2.459725
     129A      2.475054   130A      2.501449   131A      2.541663
     132A      2.544125   133A      2.566090   134A      2.575813
     135A      2.589463   136A      2.654665   137A      2.753131
     138A      2.764878   139A      2.767133   140A      2.781485
     141A      2.798655   142A      2.833122   143A      2.845887
     144A      2.865669   145A      2.889378   146A      2.894555
     147A      2.954890   148A      2.969078   149A      2.994064
     150A      3.332465   151A      3.422443   152A      3.475166
     153A      3.659048   154A      4.140321

    Final Occupation by Irrep:
              A
    DOCC [    26 ]

  @RHF Final Energy:  -272.36313950251179

   => Energetics <=

    Nuclear Repulsion Energy =            249.9183986584381501
    One-Electron Energy =                -863.9759148020878001
    Two-Electron Energy =                 341.6943766411378647
    Total Energy =                       -272.3631395025117854

Computation Completed

Properties will be evaluated at   0.000000,   0.000000,   0.000000 [a0]

Properties computed using the SCF density matrix

  Nuclear Dipole Moment: [e a0]
     X:     0.4910      Y:    -4.1479      Z:    -1.7342

  Electronic Dipole Moment: [e a0]
     X:    -0.1202      Y:     3.6828      Z:     1.8583

  Dipole Moment: [e a0]
     X:     0.3708      Y:    -0.4652      Z:     0.1241     Total:     0.6077

  Dipole Moment: [D]
     X:     0.9424      Y:    -1.1823      Z:     0.3153     Total:     1.5445

*** tstop() called on ds3 at Tue Apr 28 21:55:24 2020
Module time:
	user time   =      23.88 seconds =       0.40 minutes
	system time =       9.82 seconds =       0.16 minutes
	total time  =         33 seconds =       0.55 minutes
Total time:
	user time   =      23.88 seconds =       0.40 minutes
	system time =       9.82 seconds =       0.16 minutes
	total time  =         33 seconds =       0.55 minutes
                                     G D M A

                                 by Anthony Stone

                           version 2.2.06, 22 June 2011

               Distributed Multipoles from Gaussian wavefunctions

Starting at 21:55:24 on 28 Apr 2020

Using SCF density matrix from file ./SSI/SSI-067THR-082VAL-2-dimer.test.4407.fchk

                         Distributed Multipole Analysis

Standard DMA

Positions and radii in angstrom
Multipole moments in atomic units, ea_0^k for rank k

C          x =  0.810830  y =  0.780909  z =  0.240528 angstrom
           Maximum rank =  0   Radius =  0.650 angstrom
                   Q00  =   0.155620

C          x =  1.205830  y =  1.918909  z = -0.735472 angstrom
           Maximum rank =  0   Radius =  0.650 angstrom
                   Q00  =  -0.230076

C          x =  1.783830  y =  0.748909  z =  1.440528 angstrom
           Maximum rank =  0   Radius =  0.650 angstrom
                   Q00  =  -0.281634

O          x = -0.502170  y =  0.965909  z =  0.752528 angstrom
           Maximum rank =  0   Radius =  0.650 angstrom
                   Q00  =  -0.544239

H          x =  0.869830  y = -0.172091  z = -0.285472 angstrom
           Maximum rank =  0   Radius =  0.325 angstrom
                   Q00  =  -0.008010

H          x =  0.544830  y =  1.883909  z = -1.599472 angstrom
           Maximum rank =  0   Radius =  0.325 angstrom
                   Q00  =   0.096485

H          x =  1.655830  y =  1.630909  z =  2.068528 angstrom
           Maximum rank =  0   Radius =  0.325 angstrom
                   Q00  =   0.094436

H          x =  1.574830  y = -0.133091  z =  2.043528 angstrom
           Maximum rank =  0   Radius =  0.325 angstrom
                   Q00  =   0.073115

H          x =  2.824830  y =  0.671909  z =  1.131528 angstrom
           Maximum rank =  0   Radius =  0.325 angstrom
                   Q00  =   0.082225

H          x = -0.684170  y =  0.250909  z =  1.365528 angstrom
           Maximum rank =  0   Radius =  0.325 angstrom
                   Q00  =   0.391734

H          x =  2.254160  y =  1.749729  z = -1.022482 angstrom
           Maximum rank =  0   Radius =  0.325 angstrom
                   Q00  =   0.086027

H          x =  1.035530  y =  2.878839  z = -0.226032 angstrom
           Maximum rank =  0   Radius =  0.325 angstrom
                   Q00  =   0.094026

C          x = -1.597170  y = -2.175091  z = -0.133472 angstrom
           Maximum rank =  0   Radius =  0.650 angstrom
                   Q00  =  -0.230557

C          x = -1.578170  y = -2.189091  z = -1.659472 angstrom
           Maximum rank =  0   Radius =  0.650 angstrom
                   Q00  =  -0.235845

H          x = -2.525170  y = -1.751091  z =  0.249528 angstrom
           Maximum rank =  0   Radius =  0.325 angstrom
                   Q00  =   0.084820

H          x = -1.538170  y = -3.202091  z =  0.228528 angstrom
           Maximum rank =  0   Radius =  0.325 angstrom
                   Q00  =   0.071420

H          x = -0.739170  y = -1.635091  z =  0.256528 angstrom
           Maximum rank =  0   Radius =  0.325 angstrom
                   Q00  =   0.059795

H          x = -2.440170  y = -2.755091  z = -2.000472 angstrom
           Maximum rank =  0   Radius =  0.325 angstrom
                   Q00  =   0.081019

H          x = -1.644500  y = -1.162741  z = -2.049612 angstrom
           Maximum rank =  0   Radius =  0.325 angstrom
                   Q00  =   0.083653

H          x = -0.662210  y = -2.684461  z = -2.013922 angstrom
           Maximum rank =  0   Radius =  0.325 angstrom
                   Q00  =   0.075986

Total multipoles referred to origin at
           x =   0.000000,  y =    0.000000,  z =    0.000000 angstrom
                   Q00  =  -0.000000

Finished at 21:55:24 on 28 Apr 2020

  DMA results are available in the Python driver through the
	  variable('DMA DISTRIBUTED MULTIPOLES')
  and
	  variable('DMA TOTAL MULTIPOLES')
  commands.

    Psi4 stopped on: Tuesday, 28 April 2020 09:55PM
    Psi4 wall time for execution: 0:00:33.11

*** Psi4 exiting successfully. Buy a developer a beer!
