                               Psi4 1.3.2 release

  ==> Input File <==

--------------------------------------------------------------------------
import numpy as np
set {scf_type pk
basis cc-pvdz
d_convergence 10
gdma_switch   0
gdma_limit    0
gdma_origin   [ 0.0,  0.0,  0.0 ]
}
molecule test {
    units Angstrom
    0 1
    --
    0 1
    C                0.297030237032349    -1.384423450963954    -0.009241136593716
    C                0.324030237032349    -2.837423450963954    -0.374241136593716
    C                1.177030237032349    -0.682423450963954    -1.016241136593716
    H                0.615030237032349    -1.196423450963954     1.009758863406284
    H               -0.716969762967651    -1.028423450963954    -0.154241136593716
    H                1.163030237032349    -3.334423450963954     0.115758863406284
    H               -0.614969762967651    -3.304423450963954    -0.088241136593716
    H                2.175030237032348    -0.561423450963954    -0.590241136593716
    H                0.767030237032349     0.295576549036046    -1.268241136593717
    H                0.490698237032349    -2.816403450963954    -1.461338136593716
    H                1.206488237032349    -1.334803450963954    -1.901413136593716
    C               -0.962969762967651     1.672576549036046     0.904758863406284
    C               -0.808969762967651     3.135576549036046     0.506758863406284
    H               -0.057969762967651     1.305576549036046     1.391758863406284
    H               -1.809969762967651     1.562576549036046     1.576758863406283
    H               -1.167969762967651     1.097576549036046     0.004758863406284
    H               -1.712969762967651     3.399576549036046    -0.041241136593716
    H                0.081832237032349     3.272856549036046    -0.123817136593716
    H               -0.729698762967651     3.787036549036046     1.389546863406284

}
e, wfn = energy('scf', return_wfn=True)
gdma(wfn)
dmavals = variable('DMA DISTRIBUTED MULTIPOLES')
charges = np.array(dmavals)
print(charges)
np.save('SSI-252PRO-258ALA-1-dimer.npy', np.array(charges))--------------------------------------------------------------------------

*** tstart() called on ds3
*** at Tue Apr 28 04:22:53 2020

   => Loading Basis Set <=

    Name: CC-PVDZ
    Role: ORBITAL
    Keyword: BASIS
    atoms 1-3, 12-13  entry C          line   138 file /theoryfs2/ds/metcalf/miniconda2/envs/tf2gpu/share/psi4/basis/cc-pvdz.gbs
    atoms 4-11, 14-19 entry H          line    22 file /theoryfs2/ds/metcalf/miniconda2/envs/tf2gpu/share/psi4/basis/cc-pvdz.gbs

         ---------------------------------------------------------
                                   SCF
               by Justin Turney, Rob Parrish, Andy Simmonett
                          and Daniel G. A. Smith
                              RHF Reference
                        1 Threads,    500 MiB Core
         ---------------------------------------------------------

  ==> Geometry <==

    Molecular point group: c1
    Full point group: C1

    Geometry (in Angstrom), charge = 0, multiplicity = 1:

       Center              X                  Y                   Z               Mass
    ------------   -----------------  -----------------  -----------------  -----------------
         C            0.297030237032    -1.384423450964    -0.009241136594    12.000000000000
         C            0.324030237032    -2.837423450964    -0.374241136594    12.000000000000
         C            1.177030237032    -0.682423450964    -1.016241136594    12.000000000000
         H            0.615030237032    -1.196423450964     1.009758863406     1.007825032230
         H           -0.716969762968    -1.028423450964    -0.154241136594     1.007825032230
         H            1.163030237032    -3.334423450964     0.115758863406     1.007825032230
         H           -0.614969762968    -3.304423450964    -0.088241136594     1.007825032230
         H            2.175030237032    -0.561423450964    -0.590241136594     1.007825032230
         H            0.767030237032     0.295576549036    -1.268241136594     1.007825032230
         H            0.490698237032    -2.816403450964    -1.461338136594     1.007825032230
         H            1.206488237032    -1.334803450964    -1.901413136594     1.007825032230
         C           -0.962969762968     1.672576549036     0.904758863406    12.000000000000
         C           -0.808969762968     3.135576549036     0.506758863406    12.000000000000
         H           -0.057969762968     1.305576549036     1.391758863406     1.007825032230
         H           -1.809969762968     1.562576549036     1.576758863406     1.007825032230
         H           -1.167969762968     1.097576549036     0.004758863406     1.007825032230
         H           -1.712969762968     3.399576549036    -0.041241136594     1.007825032230
         H            0.081832237032     3.272856549036    -0.123817136594     1.007825032230
         H           -0.729698762968     3.787036549036     1.389546863406     1.007825032230

  Running in c1 symmetry.

  Rotational constants: A =      0.32102  B =      0.04129  C =      0.03804 [cm^-1]
  Rotational constants: A =   9624.07380  B =   1237.74633  C =   1140.26076 [MHz]
  Nuclear repulsion =  182.699508585428276

  Charge       = 0
  Multiplicity = 1
  Electrons    = 44
  Nalpha       = 22
  Nbeta        = 22

  ==> Algorithm <==

  SCF Algorithm Type is PK.
  DIIS enabled.
  MOM disabled.
  Fractional occupation disabled.
  Guess Type is SAD.
  Energy threshold   = 1.00e-06
  Density threshold  = 1.00e-10
  Integral threshold = 0.00e+00

  ==> Primary Basis <==

  Basis Set: CC-PVDZ
    Blend: CC-PVDZ
    Number of shells: 72
    Number of basis function: 140
    Number of Cartesian functions: 145
    Spherical Harmonics?: true
    Max angular momentum: 2

  ==> Pre-Iterations <==

   -------------------------------------------------------
    Irrep   Nso     Nmo     Nalpha   Nbeta   Ndocc  Nsocc
   -------------------------------------------------------
     A        140     140       0       0       0       0
   -------------------------------------------------------
    Total     140     140      22      22      22       0
   -------------------------------------------------------

  ==> Integral Setup <==

  Using integral reordering PK algorithm.
  Sizing the integral batches needed.
  Building batch lookup table.
   Calculation information:
      Number of atoms:                  19
      Number of AO shells:              72
      Number of primitives:            180
      Number of atomic orbitals:       145
      Number of basis functions:       140

      Integral cutoff                 1.00e-12
      Number of threads:                 1

	Batch   1 pq = [       0,    9405] index = [             0,44231715] size =     44231715
	Batch   2 pq = [    9405,    9870] index = [      44231715,48713385] size =      4481670
  Task number: 5
  Buffer size: 11059200
  Buffer per thread: 2
  We computed 2956041 shell quartets total.
  Whereas there are 3454506 unique shell quartets.

  ==> DiskJK: Disk-Based J/K Matrices <==

    J tasked:                  Yes
    K tasked:                  Yes
    wK tasked:                  No
    Memory [MiB]:              375
    Schwarz Cutoff:          1E-12

    OpenMP threads:              1

  Minimum eigenvalue in the overlap matrix is 4.4043375049E-03.
  Using Symmetric Orthogonalization.

  SCF Guess: Superposition of Atomic Densities via on-the-fly atomic UHF.

  ==> Iterations <==

                        Total Energy        Delta E     RMS |[F,P]|

   @RHF iter SAD:  -196.59466055136781   -1.96595e+02   0.00000e+00
   @RHF iter   1:  -197.28338490487172   -6.88724e-01   3.89686e-03 DIIS
   @RHF iter   2:  -197.44865073266777   -1.65266e-01   1.69256e-03 DIIS
   @RHF iter   3:  -197.47869780635025   -3.00471e-02   3.32168e-04 DIIS
   @RHF iter   4:  -197.48094719042959   -2.24938e-03   5.08542e-05 DIIS
   @RHF iter   5:  -197.48098904054240   -4.18501e-05   1.54628e-05 DIIS
   @RHF iter   6:  -197.48099274465824   -3.70412e-06   2.61991e-06 DIIS
   @RHF iter   7:  -197.48099287126547   -1.26607e-07   4.96505e-07 DIIS
   @RHF iter   8:  -197.48099287640812   -5.14265e-09   1.20839e-07 DIIS
   @RHF iter   9:  -197.48099287670931   -3.01185e-10   3.82607e-08 DIIS
   @RHF iter  10:  -197.48099287674492   -3.56124e-11   8.42892e-09 DIIS
   @RHF iter  11:  -197.48099287674640   -1.47793e-12   1.63275e-09 DIIS
   @RHF iter  12:  -197.48099287674557    8.24230e-13   3.35201e-10 DIIS
   @RHF iter  13:  -197.48099287674592   -3.41061e-13   6.37327e-11 DIIS
  Energy and wave function converged.

  ==> Post-Iterations <==

    Orbital Energies [Eh]
    ---------------------

    Doubly Occupied:

       1A    -11.218285     2A    -11.214973     3A    -11.210975
       4A    -11.209897     5A    -11.208691     6A     -1.069845
       7A     -1.020107     8A     -0.917185     9A     -0.835815
      10A     -0.795732    11A     -0.637791    12A     -0.618043
      13A     -0.602008    14A     -0.595375    15A     -0.542541
      16A     -0.517000    17A     -0.500315    18A     -0.489717
      19A     -0.484247    20A     -0.478945    21A     -0.461179
      22A     -0.458112

    Virtual:

      23A      0.172172    24A      0.198567    25A      0.216647
      26A      0.222176    27A      0.237201    28A      0.241076
      29A      0.256701    30A      0.266610    31A      0.278027
      32A      0.284339    33A      0.307722    34A      0.328126
      35A      0.331287    36A      0.369911    37A      0.378923
      38A      0.397789    39A      0.448682    40A      0.552379
      41A      0.572274    42A      0.601988    43A      0.605529
      44A      0.622370    45A      0.642986    46A      0.654065
      47A      0.681117    48A      0.699394    49A      0.771893
      50A      0.796857    51A      0.805321    52A      0.844233
      53A      0.864312    54A      0.880322    55A      0.889002
      56A      0.894354    57A      0.899795    58A      0.901765
      59A      0.910544    60A      0.913083    61A      0.922869
      62A      0.928224    63A      0.937259    64A      0.942461
      65A      0.958001    66A      0.977942    67A      0.992001
      68A      1.002331    69A      1.087000    70A      1.109454
      71A      1.127949    72A      1.172125    73A      1.198272
      74A      1.255280    75A      1.430517    76A      1.473492
      77A      1.479605    78A      1.491664    79A      1.504720
      80A      1.588221    81A      1.622029    82A      1.633402
      83A      1.641760    84A      1.679193    85A      1.691539
      86A      1.713494    87A      1.732480    88A      1.802602
      89A      1.856773    90A      1.861368    91A      1.873990
      92A      1.891994    93A      1.918169    94A      1.936874
      95A      1.940795    96A      1.945890    97A      1.949797
      98A      1.954569    99A      1.960401   100A      1.967296
     101A      1.977489   102A      1.992037   103A      1.997290
     104A      2.033750   105A      2.042081   106A      2.081097
     107A      2.093555   108A      2.109712   109A      2.139427
     110A      2.156556   111A      2.241356   112A      2.255547
     113A      2.297360   114A      2.309282   115A      2.322342
     116A      2.374241   117A      2.448714   118A      2.460865
     119A      2.463554   120A      2.493331   121A      2.500330
     122A      2.565743   123A      2.576029   124A      2.588684
     125A      2.645903   126A      2.708836   127A      2.762895
     128A      2.766106   129A      2.795562   130A      2.799882
     131A      2.807336   132A      2.843822   133A      2.852363
     134A      2.854491   135A      2.868224   136A      2.917495
     137A      2.952801   138A      2.967505   139A      2.974768
     140A      3.072472

    Final Occupation by Irrep:
              A
    DOCC [    22 ]

  @RHF Final Energy:  -197.48099287674592

   => Energetics <=

    Nuclear Repulsion Energy =            182.6995085854282763
    One-Electron Energy =                -626.1874482742714463
    Two-Electron Energy =                 246.0069468120972829
    Total Energy =                       -197.4809928767459155

Computation Completed

Properties will be evaluated at   0.000000,   0.000000,   0.000000 [a0]

Properties computed using the SCF density matrix

  Nuclear Dipole Moment: [e a0]
     X:    -0.2919      Y:     1.0729      Z:    -0.1317

  Electronic Dipole Moment: [e a0]
     X:     0.2547      Y:    -1.0549      Z:     0.1757

  Dipole Moment: [e a0]
     X:    -0.0373      Y:     0.0180      Z:     0.0440     Total:     0.0604

  Dipole Moment: [D]
     X:    -0.0947      Y:     0.0457      Z:     0.1119     Total:     0.1535

*** tstop() called on ds3 at Tue Apr 28 04:23:42 2020
Module time:
	user time   =      15.38 seconds =       0.26 minutes
	system time =       4.89 seconds =       0.08 minutes
	total time  =         49 seconds =       0.82 minutes
Total time:
	user time   =      15.38 seconds =       0.26 minutes
	system time =       4.89 seconds =       0.08 minutes
	total time  =         49 seconds =       0.82 minutes
                                     G D M A

                                 by Anthony Stone

                           version 2.2.06, 22 June 2011

               Distributed Multipoles from Gaussian wavefunctions

Starting at 4:23:42 on 28 Apr 2020

Using SCF density matrix from file ./SSI/SSI-252PRO-258ALA-1-dimer.test.27507.fchk

                         Distributed Multipole Analysis

Standard DMA

Positions and radii in angstrom
Multipole moments in atomic units, ea_0^k for rank k

C          x =  0.297030  y = -1.384423  z = -0.009241 angstrom
           Maximum rank =  0   Radius =  0.650 angstrom
                   Q00  =  -0.101830

C          x =  0.324030  y = -2.837423  z = -0.374241 angstrom
           Maximum rank =  0   Radius =  0.650 angstrom
                   Q00  =  -0.217680

C          x =  1.177030  y = -0.682423  z = -1.016241 angstrom
           Maximum rank =  0   Radius =  0.650 angstrom
                   Q00  =  -0.225943

H          x =  0.615030  y = -1.196423  z =  1.009759 angstrom
           Maximum rank =  0   Radius =  0.325 angstrom
                   Q00  =   0.053671

H          x = -0.716970  y = -1.028423  z = -0.154241 angstrom
           Maximum rank =  0   Radius =  0.325 angstrom
                   Q00  =   0.048958

H          x =  1.163030  y = -3.334423  z =  0.115759 angstrom
           Maximum rank =  0   Radius =  0.325 angstrom
                   Q00  =   0.075022

H          x = -0.614970  y = -3.304423  z = -0.088241 angstrom
           Maximum rank =  0   Radius =  0.325 angstrom
                   Q00  =   0.085443

H          x =  2.175030  y = -0.561423  z = -0.590241 angstrom
           Maximum rank =  0   Radius =  0.325 angstrom
                   Q00  =   0.081823

H          x =  0.767030  y =  0.295577  z = -1.268241 angstrom
           Maximum rank =  0   Radius =  0.325 angstrom
                   Q00  =   0.085708

H          x =  0.490698  y = -2.816403  z = -1.461338 angstrom
           Maximum rank =  0   Radius =  0.325 angstrom
                   Q00  =   0.062139

H          x =  1.206488  y = -1.334803  z = -1.901413 angstrom
           Maximum rank =  0   Radius =  0.325 angstrom
                   Q00  =   0.053743

C          x = -0.962970  y =  1.672577  z =  0.904759 angstrom
           Maximum rank =  0   Radius =  0.650 angstrom
                   Q00  =  -0.226475

C          x = -0.808970  y =  3.135577  z =  0.506759 angstrom
           Maximum rank =  0   Radius =  0.650 angstrom
                   Q00  =  -0.239664

H          x = -0.057970  y =  1.305577  z =  1.391759 angstrom
           Maximum rank =  0   Radius =  0.325 angstrom
                   Q00  =   0.078227

H          x = -1.809970  y =  1.562577  z =  1.576759 angstrom
           Maximum rank =  0   Radius =  0.325 angstrom
                   Q00  =   0.079543

H          x = -1.167970  y =  1.097577  z =  0.004759 angstrom
           Maximum rank =  0   Radius =  0.325 angstrom
                   Q00  =   0.074209

H          x = -1.712970  y =  3.399577  z = -0.041241 angstrom
           Maximum rank =  0   Radius =  0.325 angstrom
                   Q00  =   0.076074

H          x =  0.081832  y =  3.272857  z = -0.123817 angstrom
           Maximum rank =  0   Radius =  0.325 angstrom
                   Q00  =   0.078467

H          x = -0.729699  y =  3.787037  z =  1.389547 angstrom
           Maximum rank =  0   Radius =  0.325 angstrom
                   Q00  =   0.078564

Total multipoles referred to origin at
           x =   0.000000,  y =    0.000000,  z =    0.000000 angstrom
                   Q00  =  -0.000000

Finished at 4:23:42 on 28 Apr 2020

  DMA results are available in the Python driver through the
	  variable('DMA DISTRIBUTED MULTIPOLES')
  and
	  variable('DMA TOTAL MULTIPOLES')
  commands.

    Psi4 stopped on: Tuesday, 28 April 2020 04:23AM
    Psi4 wall time for execution: 0:00:49.02

*** Psi4 exiting successfully. Buy a developer a beer!
