                               Psi4 1.3.2 release

  ==> Input File <==

--------------------------------------------------------------------------
import numpy as np
set {scf_type pk
basis cc-pvdz
d_convergence 10
gdma_switch   0
gdma_limit    0
gdma_origin   [ 0.0,  0.0,  0.0 ]
}
molecule test {
    units Angstrom
    0 1
    --
    0 1
    C               -0.476451179201934     0.133994777454675     2.951340080555008
    C               -0.334451179201934    -0.417005222545325     4.374340080555008
    H                0.151548820798066     1.015994777454675     2.818340080555008
    H               -0.171451179201934    -0.636005222545324     2.247340080555008
    H               -1.513451179201934     0.384994777454675     2.729340080555008
    H               -1.023451179201934    -1.252005222545325     4.503340080555009
    H               -0.553330179201934     0.359475777454675     5.122120080555008
    H                0.696074820798066    -0.768478222545324     4.530810080555009
    C               -1.556451179201934     1.788994777454675    -2.684659919444992
    C                0.893548820798066    -0.792005222545324    -0.248659919444992
    C                1.350548820798066     0.487994777454675    -0.587659919444992
    C               -0.355451179201934    -1.233005222545325    -0.682659919444992
    C                0.546548820798066     1.330994777454676    -1.365659919444992
    C               -1.149451179201934    -0.385005222545325    -1.470659919444992
    C               -0.708451179201934     0.900994777454675    -1.812659919444992
    O                1.650548820798066    -1.625005222545325     0.518340080555008
    H                2.323548820798066     0.820994777454675    -0.266659919444992
    H                2.480548820798066    -1.206005222545325     0.760340080555008
    H               -0.709451179201934    -2.214005222545325    -0.401659919444992
    H                0.907548820798066     2.315994777454676    -1.634659919444992
    H               -2.119451179201934    -0.726005222545325    -1.807659919444992
    H               -1.419451179201934     2.820994777454676    -2.362659919444992
    H               -2.606451179201934     1.539994777454675    -2.526659919444992
    H               -1.324244179201934     1.711830777454675    -3.757099919444992

}
e, wfn = energy('scf', return_wfn=True)
gdma(wfn)
dmavals = variable('DMA DISTRIBUTED MULTIPOLES')
charges = np.array(dmavals)
print(charges)
np.save('SSI-044THR-118TYR-1-dimer.npy', np.array(charges))--------------------------------------------------------------------------

*** tstart() called on ds3
*** at Mon Apr 27 23:46:48 2020

   => Loading Basis Set <=

    Name: CC-PVDZ
    Role: ORBITAL
    Keyword: BASIS
    atoms 1-2, 9-15  entry C          line   138 file /theoryfs2/ds/metcalf/miniconda2/envs/tf2gpu/share/psi4/basis/cc-pvdz.gbs
    atoms 3-8, 17-24 entry H          line    22 file /theoryfs2/ds/metcalf/miniconda2/envs/tf2gpu/share/psi4/basis/cc-pvdz.gbs
    atoms 16         entry O          line   198 file /theoryfs2/ds/metcalf/miniconda2/envs/tf2gpu/share/psi4/basis/cc-pvdz.gbs

         ---------------------------------------------------------
                                   SCF
               by Justin Turney, Rob Parrish, Andy Simmonett
                          and Daniel G. A. Smith
                              RHF Reference
                        1 Threads,    500 MiB Core
         ---------------------------------------------------------

  ==> Geometry <==

    Molecular point group: c1
    Full point group: C1

    Geometry (in Angstrom), charge = 0, multiplicity = 1:

       Center              X                  Y                   Z               Mass
    ------------   -----------------  -----------------  -----------------  -----------------
         C           -0.476451179202     0.133994777455     2.951340080555    12.000000000000
         C           -0.334451179202    -0.417005222545     4.374340080555    12.000000000000
         H            0.151548820798     1.015994777455     2.818340080555     1.007825032230
         H           -0.171451179202    -0.636005222545     2.247340080555     1.007825032230
         H           -1.513451179202     0.384994777455     2.729340080555     1.007825032230
         H           -1.023451179202    -1.252005222545     4.503340080555     1.007825032230
         H           -0.553330179202     0.359475777455     5.122120080555     1.007825032230
         H            0.696074820798    -0.768478222545     4.530810080555     1.007825032230
         C           -1.556451179202     1.788994777455    -2.684659919445    12.000000000000
         C            0.893548820798    -0.792005222545    -0.248659919445    12.000000000000
         C            1.350548820798     0.487994777455    -0.587659919445    12.000000000000
         C           -0.355451179202    -1.233005222545    -0.682659919445    12.000000000000
         C            0.546548820798     1.330994777455    -1.365659919445    12.000000000000
         C           -1.149451179202    -0.385005222545    -1.470659919445    12.000000000000
         C           -0.708451179202     0.900994777455    -1.812659919445    12.000000000000
         O            1.650548820798    -1.625005222545     0.518340080555    15.994914619570
         H            2.323548820798     0.820994777455    -0.266659919445     1.007825032230
         H            2.480548820798    -1.206005222545     0.760340080555     1.007825032230
         H           -0.709451179202    -2.214005222545    -0.401659919445     1.007825032230
         H            0.907548820798     2.315994777455    -1.634659919445     1.007825032230
         H           -2.119451179202    -0.726005222545    -1.807659919445     1.007825032230
         H           -1.419451179202     2.820994777455    -2.362659919445     1.007825032230
         H           -2.606451179202     1.539994777455    -2.526659919445     1.007825032230
         H           -1.324244179202     1.711830777455    -3.757099919445     1.007825032230

  Running in c1 symmetry.

  Rotational constants: A =      0.05736  B =      0.02143  C =      0.01888 [cm^-1]
  Rotational constants: A =   1719.75623  B =    642.60213  C =    566.01507 [MHz]
  Nuclear repulsion =  497.586990108772568

  Charge       = 0
  Multiplicity = 1
  Electrons    = 76
  Nalpha       = 38
  Nbeta        = 38

  ==> Algorithm <==

  SCF Algorithm Type is PK.
  DIIS enabled.
  MOM disabled.
  Fractional occupation disabled.
  Guess Type is SAD.
  Energy threshold   = 1.00e-06
  Density threshold  = 1.00e-10
  Integral threshold = 0.00e+00

  ==> Primary Basis <==

  Basis Set: CC-PVDZ
    Blend: CC-PVDZ
    Number of shells: 102
    Number of basis function: 210
    Number of Cartesian functions: 220
    Spherical Harmonics?: true
    Max angular momentum: 2

  ==> Pre-Iterations <==

   -------------------------------------------------------
    Irrep   Nso     Nmo     Nalpha   Nbeta   Ndocc  Nsocc
   -------------------------------------------------------
     A        210     210       0       0       0       0
   -------------------------------------------------------
    Total     210     210      38      38      38       0
   -------------------------------------------------------

  ==> Integral Setup <==

  Using integral reordering PK algorithm.
  Sizing the integral batches needed.
  Building batch lookup table.
   Calculation information:
      Number of atoms:                  24
      Number of AO shells:             102
      Number of primitives:            290
      Number of atomic orbitals:       220
      Number of basis functions:       210

      Integral cutoff                 1.00e-12
      Number of threads:                 1

	Batch   1 pq = [       0,    9405] index = [             0,44231715] size =     44231715
	Batch   2 pq = [    9405,   13301] index = [      44231715,88464951] size =     44233236
	Batch   3 pq = [   13301,   16290] index = [      88464951,132690195] size =     44225244
	Batch   4 pq = [   16290,   18810] index = [     132690195,176917455] size =     44227260
	Batch   5 pq = [   18810,   21030] index = [     176917455,221140965] size =     44223510
	Batch   6 pq = [   21030,   22155] index = [     221140965,245433090] size =     24292125
  Task number: 23
  Buffer size: 11059200
  Buffer per thread: 2
  We computed 11904313 shell quartets total.
  Whereas there are 13799631 unique shell quartets.

  ==> DiskJK: Disk-Based J/K Matrices <==

    J tasked:                  Yes
    K tasked:                  Yes
    wK tasked:                  No
    Memory [MiB]:              375
    Schwarz Cutoff:          1E-12

    OpenMP threads:              1

  Minimum eigenvalue in the overlap matrix is 3.3271135091E-04.
  Using Symmetric Orthogonalization.

  SCF Guess: Superposition of Atomic Densities via on-the-fly atomic UHF.

  ==> Iterations <==

                        Total Energy        Delta E     RMS |[F,P]|

   @RHF iter SAD:  -422.60779801203694   -4.22608e+02   0.00000e+00
   @RHF iter   1:  -423.60403226097611   -9.96234e-01   2.96559e-03 DIIS
   @RHF iter   2:  -423.81916090848256   -2.15129e-01   1.24817e-03 DIIS
   @RHF iter   3:  -423.85355297811162   -3.43921e-02   2.85688e-04 DIIS
   @RHF iter   4:  -423.85641145052512   -2.85847e-03   1.21081e-04 DIIS
   @RHF iter   5:  -423.85678835093904   -3.76900e-04   2.04164e-05 DIIS
   @RHF iter   6:  -423.85680571991793   -1.73690e-05   6.48501e-06 DIIS
   @RHF iter   7:  -423.85680738099830   -1.66108e-06   2.15691e-06 DIIS
   @RHF iter   8:  -423.85680762822511   -2.47227e-07   8.32691e-07 DIIS
   @RHF iter   9:  -423.85680767394535   -4.57202e-08   3.45228e-07 DIIS
   @RHF iter  10:  -423.85680768362704   -9.68168e-09   1.49622e-07 DIIS
   @RHF iter  11:  -423.85680768661518   -2.98814e-09   6.77410e-08 DIIS
   @RHF iter  12:  -423.85680768713780   -5.22618e-10   3.07402e-08 DIIS
   @RHF iter  13:  -423.85680768722239   -8.45830e-11   8.31667e-09 DIIS
   @RHF iter  14:  -423.85680768722739   -5.00222e-12   2.25904e-09 DIIS
   @RHF iter  15:  -423.85680768722864   -1.25056e-12   7.91990e-10 DIIS
   @RHF iter  16:  -423.85680768722750    1.13687e-12   3.13426e-10 DIIS
   @RHF iter  17:  -423.85680768722625    1.25056e-12   1.46979e-10 DIIS
   @RHF iter  18:  -423.85680768722960   -3.35376e-12   7.50695e-11 DIIS
  Energy and wave function converged.

  ==> Post-Iterations <==

    Orbital Energies [Eh]
    ---------------------

    Doubly Occupied:

       1A    -20.586205     2A    -11.300733     3A    -11.241540
       4A    -11.240369     5A    -11.235904     6A    -11.234760
       7A    -11.231625     8A    -11.227801     9A    -11.212552
      10A    -11.205490    11A     -1.403363    12A     -1.146617
      13A     -1.036215    14A     -1.015498    15A     -1.008347
      16A     -0.925128    17A     -0.844821    18A     -0.828452
      19A     -0.800690    20A     -0.731416    21A     -0.667293
      22A     -0.642181    23A     -0.605872    24A     -0.595650
      25A     -0.590894    26A     -0.586698    27A     -0.579984
      28A     -0.571928    29A     -0.567935    30A     -0.525896
      31A     -0.497742    32A     -0.490570    33A     -0.486277
      34A     -0.480322    35A     -0.473577    36A     -0.464858
      37A     -0.336939    38A     -0.300865

    Virtual:

      39A      0.127022    40A      0.154058    41A      0.171458
      42A      0.187037    43A      0.200974    44A      0.215819
      45A      0.221774    46A      0.247471    47A      0.255251
      48A      0.260031    49A      0.264616    50A      0.274882
      51A      0.282063    52A      0.289114    53A      0.294742
      54A      0.327519    55A      0.369044    56A      0.371048
      57A      0.400585    58A      0.437751    59A      0.453447
      60A      0.479380    61A      0.494605    62A      0.505359
      63A      0.584314    64A      0.598097    65A      0.603626
      66A      0.612272    67A      0.638078    68A      0.649443
      69A      0.662725    70A      0.664195    71A      0.681257
      72A      0.687334    73A      0.700410    74A      0.728880
      75A      0.733149    76A      0.748189    77A      0.758177
      78A      0.768391    79A      0.779943    80A      0.797988
      81A      0.822525    82A      0.840739    83A      0.845776
      84A      0.866248    85A      0.877059    86A      0.884015
      87A      0.889011    88A      0.895528    89A      0.897330
      90A      0.899113    91A      0.909332    92A      0.914265
      93A      0.921520    94A      0.928940    95A      0.933226
      96A      0.941566    97A      0.948325    98A      0.973528
      99A      0.994417   100A      1.009209   101A      1.034054
     102A      1.074520   103A      1.120160   104A      1.127788
     105A      1.138087   106A      1.142300   107A      1.159663
     108A      1.170109   109A      1.205570   110A      1.227694
     111A      1.241683   112A      1.252372   113A      1.264816
     114A      1.286454   115A      1.302494   116A      1.308190
     117A      1.344747   118A      1.354313   119A      1.371389
     120A      1.385007   121A      1.468047   122A      1.485461
     123A      1.494329   124A      1.500260   125A      1.527506
     126A      1.554651   127A      1.590145   128A      1.614603
     129A      1.634567   130A      1.685088   131A      1.688961
     132A      1.703805   133A      1.714213   134A      1.727372
     135A      1.745957   136A      1.776753   137A      1.799251
     138A      1.805612   139A      1.864698   140A      1.873516
     141A      1.880027   142A      1.885420   143A      1.893819
     144A      1.900597   145A      1.909399   146A      1.914507
     147A      1.935556   148A      1.939575   149A      1.942862
     150A      1.953037   151A      1.958284   152A      1.965235
     153A      1.973665   154A      1.974781   155A      1.979863
     156A      2.005127   157A      2.031813   158A      2.049969
     159A      2.053720   160A      2.061613   161A      2.069408
     162A      2.113550   163A      2.118829   164A      2.140219
     165A      2.142292   166A      2.153783   167A      2.196548
     168A      2.226293   169A      2.254125   170A      2.272079
     171A      2.293506   172A      2.308440   173A      2.312105
     174A      2.328494   175A      2.384344   176A      2.423766
     177A      2.456577   178A      2.466046   179A      2.469788
     180A      2.477941   181A      2.482304   182A      2.531246
     183A      2.556547   184A      2.580918   185A      2.596559
     186A      2.615397   187A      2.632963   188A      2.746715
     189A      2.767016   190A      2.769763   191A      2.784572
     192A      2.797448   193A      2.823566   194A      2.841156
     195A      2.854896   196A      2.875846   197A      2.899125
     198A      2.951670   199A      2.971148   200A      2.983534
     201A      3.010577   202A      3.079608   203A      3.096902
     204A      3.253903   205A      3.265197   206A      3.343283
     207A      3.581239   208A      3.682817   209A      3.945159
     210A      4.193794

    Final Occupation by Irrep:
              A
    DOCC [    38 ]

  @RHF Final Energy:  -423.85680768722960

   => Energetics <=

    Nuclear Repulsion Energy =            497.5869901087725680
    One-Electron Energy =               -1561.0415813403917582
    Two-Electron Energy =                 639.5977835443894719
    Total Energy =                       -423.8568076872296615

Computation Completed

Properties will be evaluated at   0.000000,   0.000000,   0.000000 [a0]

Properties computed using the SCF density matrix

  Nuclear Dipole Moment: [e a0]
     X:    -4.5683      Y:     3.8993      Z:     9.3346

  Electronic Dipole Moment: [e a0]
     X:     4.8476      Y:    -3.4296      Z:    -9.5099

  Dipole Moment: [e a0]
     X:     0.2793      Y:     0.4697      Z:    -0.1753     Total:     0.5739

  Dipole Moment: [D]
     X:     0.7098      Y:     1.1939      Z:    -0.4456     Total:     1.4587

*** tstop() called on ds3 at Mon Apr 27 23:49:22 2020
Module time:
	user time   =     111.79 seconds =       1.86 minutes
	system time =      48.22 seconds =       0.80 minutes
	total time  =        154 seconds =       2.57 minutes
Total time:
	user time   =     111.79 seconds =       1.86 minutes
	system time =      48.22 seconds =       0.80 minutes
	total time  =        154 seconds =       2.57 minutes
                                     G D M A

                                 by Anthony Stone

                           version 2.2.06, 22 June 2011

               Distributed Multipoles from Gaussian wavefunctions

Starting at 23:49:22 on 27 Apr 2020

Using SCF density matrix from file ./SSI/SSI-044THR-118TYR-1-dimer.test.4062.fchk

                         Distributed Multipole Analysis

Standard DMA

Positions and radii in angstrom
Multipole moments in atomic units, ea_0^k for rank k

C          x = -0.476451  y =  0.133995  z =  2.951340 angstrom
           Maximum rank =  0   Radius =  0.650 angstrom
                   Q00  =  -0.238587

C          x = -0.334451  y = -0.417005  z =  4.374340 angstrom
           Maximum rank =  0   Radius =  0.650 angstrom
                   Q00  =  -0.230714

H          x =  0.151549  y =  1.015995  z =  2.818340 angstrom
           Maximum rank =  0   Radius =  0.325 angstrom
                   Q00  =   0.072927

H          x = -0.171451  y = -0.636005  z =  2.247340 angstrom
           Maximum rank =  0   Radius =  0.325 angstrom
                   Q00  =   0.080569

H          x = -1.513451  y =  0.384995  z =  2.729340 angstrom
           Maximum rank =  0   Radius =  0.325 angstrom
                   Q00  =   0.077533

H          x = -1.023451  y = -1.252005  z =  4.503340 angstrom
           Maximum rank =  0   Radius =  0.325 angstrom
                   Q00  =   0.079548

H          x = -0.553330  y =  0.359476  z =  5.122120 angstrom
           Maximum rank =  0   Radius =  0.325 angstrom
                   Q00  =   0.074056

H          x =  0.696075  y = -0.768478  z =  4.530810 angstrom
           Maximum rank =  0   Radius =  0.325 angstrom
                   Q00  =   0.073632

C          x = -1.556451  y =  1.788995  z = -2.684660 angstrom
           Maximum rank =  0   Radius =  0.650 angstrom
                   Q00  =  -0.191272

C          x =  0.893549  y = -0.792005  z = -0.248660 angstrom
           Maximum rank =  0   Radius =  0.650 angstrom
                   Q00  =   0.319615

C          x =  1.350549  y =  0.487995  z = -0.587660 angstrom
           Maximum rank =  0   Radius =  0.650 angstrom
                   Q00  =  -0.176103

C          x = -0.355451  y = -1.233005  z = -0.682660 angstrom
           Maximum rank =  0   Radius =  0.650 angstrom
                   Q00  =  -0.107868

C          x =  0.546549  y =  1.330995  z = -1.365660 angstrom
           Maximum rank =  0   Radius =  0.650 angstrom
                   Q00  =  -0.066814

C          x = -1.149451  y = -0.385005  z = -1.470660 angstrom
           Maximum rank =  0   Radius =  0.650 angstrom
                   Q00  =   0.041574

C          x = -0.708451  y =  0.900995  z = -1.812660 angstrom
           Maximum rank =  0   Radius =  0.650 angstrom
                   Q00  =  -0.133129

O          x =  1.650549  y = -1.625005  z =  0.518340 angstrom
           Maximum rank =  0   Radius =  0.650 angstrom
                   Q00  =  -0.661900

H          x =  2.323549  y =  0.820995  z = -0.266660 angstrom
           Maximum rank =  0   Radius =  0.325 angstrom
                   Q00  =   0.072951

H          x =  2.480549  y = -1.206005  z =  0.760340 angstrom
           Maximum rank =  0   Radius =  0.325 angstrom
                   Q00  =   0.405029

H          x = -0.709451  y = -2.214005  z = -0.401660 angstrom
           Maximum rank =  0   Radius =  0.325 angstrom
                   Q00  =   0.082333

H          x =  0.907549  y =  2.315995  z = -1.634660 angstrom
           Maximum rank =  0   Radius =  0.325 angstrom
                   Q00  =   0.070125

H          x = -2.119451  y = -0.726005  z = -1.807660 angstrom
           Maximum rank =  0   Radius =  0.325 angstrom
                   Q00  =   0.065598

H          x = -1.419451  y =  2.820995  z = -2.362660 angstrom
           Maximum rank =  0   Radius =  0.325 angstrom
                   Q00  =   0.094838

H          x = -2.606451  y =  1.539995  z = -2.526660 angstrom
           Maximum rank =  0   Radius =  0.325 angstrom
                   Q00  =   0.095617

H          x = -1.324244  y =  1.711831  z = -3.757100 angstrom
           Maximum rank =  0   Radius =  0.325 angstrom
                   Q00  =   0.100443

Total multipoles referred to origin at
           x =   0.000000,  y =    0.000000,  z =    0.000000 angstrom
                   Q00  =  -0.000000

Finished at 23:49:22 on 27 Apr 2020

  DMA results are available in the Python driver through the
	  variable('DMA DISTRIBUTED MULTIPOLES')
  and
	  variable('DMA TOTAL MULTIPOLES')
  commands.

    Psi4 stopped on: Monday, 27 April 2020 11:49PM
    Psi4 wall time for execution: 0:02:34.78

*** Psi4 exiting successfully. Buy a developer a beer!
