                               Psi4 1.3.2 release

  ==> Input File <==

--------------------------------------------------------------------------
import numpy as np
set {scf_type pk
basis cc-pvdz
d_convergence 10
gdma_switch   0
gdma_limit    0
gdma_origin   [ 0.0,  0.0,  0.0 ]
}
molecule test {
    units Angstrom
    0 1
    --
    0 1
    C                1.391943970964481    -1.361744829221089     0.693989650389067
    C                2.080943970964481    -1.776744829221089     1.982989650389067
    N               -0.053056029035519    -1.397744829221089     0.968989650389067
    H                1.700943970964481    -0.346744829221089     0.425989650389067
    H                1.655943970964481    -2.046744829221089    -0.118010349610933
    H                1.865943970964481    -2.826744829221089     2.193989650389067
    H                1.673943970964481    -1.184744829221089     2.806989650389067
    H               -0.293056029035519    -0.800744829221089     1.748989650389067
    H               -0.555056029035519    -1.013744829221089     0.162989650389067
    H               -0.391056029035519    -2.335744829221088     1.146989650389067
    H                3.169023970964481    -1.615273829221089     1.985949650389067
    C               -1.165056029035519     2.319255170778912    -1.758010349610933
    C               -0.824056029035519     1.113255170778911    -0.906010349610933
    O               -0.136056029035519     1.295255170778911     0.120989650389067
    O               -1.244056029035519    -0.018744829221089    -1.258010349610933
    H               -2.140056029035519     2.704255170778912    -1.449010349610933
    H               -1.276056029035519     1.986255170778911    -2.791010349610933
    H               -0.437026029035519     3.140734170778911    -1.686290349610933

}
e, wfn = energy('scf', return_wfn=True)
gdma(wfn)
dmavals = variable('DMA DISTRIBUTED MULTIPOLES')
charges = np.array(dmavals)
print(charges)
np.save('SSI-113LYS-173GLU-1-dimer.npy', np.array(charges))--------------------------------------------------------------------------

*** tstart() called on ds3
*** at Tue Apr 28 12:09:44 2020

   => Loading Basis Set <=

    Name: CC-PVDZ
    Role: ORBITAL
    Keyword: BASIS
    atoms 1-2, 12-13  entry C          line   138 file /theoryfs2/ds/metcalf/miniconda2/envs/tf2gpu/share/psi4/basis/cc-pvdz.gbs
    atoms 3           entry N          line   168 file /theoryfs2/ds/metcalf/miniconda2/envs/tf2gpu/share/psi4/basis/cc-pvdz.gbs
    atoms 4-11, 16-18 entry H          line    22 file /theoryfs2/ds/metcalf/miniconda2/envs/tf2gpu/share/psi4/basis/cc-pvdz.gbs
    atoms 14-15       entry O          line   198 file /theoryfs2/ds/metcalf/miniconda2/envs/tf2gpu/share/psi4/basis/cc-pvdz.gbs

         ---------------------------------------------------------
                                   SCF
               by Justin Turney, Rob Parrish, Andy Simmonett
                          and Daniel G. A. Smith
                              RHF Reference
                        1 Threads,    500 MiB Core
         ---------------------------------------------------------

  ==> Geometry <==

    Molecular point group: c1
    Full point group: C1

    Geometry (in Angstrom), charge = 0, multiplicity = 1:

       Center              X                  Y                   Z               Mass
    ------------   -----------------  -----------------  -----------------  -----------------
         C            1.391943970964    -1.361744829221     0.693989650389    12.000000000000
         C            2.080943970964    -1.776744829221     1.982989650389    12.000000000000
         N           -0.053056029036    -1.397744829221     0.968989650389    14.003074004430
         H            1.700943970964    -0.346744829221     0.425989650389     1.007825032230
         H            1.655943970964    -2.046744829221    -0.118010349611     1.007825032230
         H            1.865943970964    -2.826744829221     2.193989650389     1.007825032230
         H            1.673943970964    -1.184744829221     2.806989650389     1.007825032230
         H           -0.293056029036    -0.800744829221     1.748989650389     1.007825032230
         H           -0.555056029036    -1.013744829221     0.162989650389     1.007825032230
         H           -0.391056029036    -2.335744829221     1.146989650389     1.007825032230
         H            3.169023970964    -1.615273829221     1.985949650389     1.007825032230
         C           -1.165056029036     2.319255170779    -1.758010349611    12.000000000000
         C           -0.824056029036     1.113255170779    -0.906010349611    12.000000000000
         O           -0.136056029036     1.295255170779     0.120989650389    15.994914619570
         O           -1.244056029036    -0.018744829221    -1.258010349611    15.994914619570
         H           -2.140056029036     2.704255170779    -1.449010349611     1.007825032230
         H           -1.276056029036     1.986255170779    -2.791010349611     1.007825032230
         H           -0.437026029036     3.140734170779    -1.686290349611     1.007825032230

  Running in c1 symmetry.

  Rotational constants: A =      0.21306  B =      0.03329  C =      0.03091 [cm^-1]
  Rotational constants: A =   6387.26161  B =    998.15471  C =    926.79570 [MHz]
  Nuclear repulsion =  316.692250403226410

  Charge       = 0
  Multiplicity = 1
  Electrons    = 58
  Nalpha       = 29
  Nbeta        = 29

  ==> Algorithm <==

  SCF Algorithm Type is PK.
  DIIS enabled.
  MOM disabled.
  Fractional occupation disabled.
  Guess Type is SAD.
  Energy threshold   = 1.00e-06
  Density threshold  = 1.00e-10
  Integral threshold = 0.00e+00

  ==> Primary Basis <==

  Basis Set: CC-PVDZ
    Blend: CC-PVDZ
    Number of shells: 75
    Number of basis function: 153
    Number of Cartesian functions: 160
    Spherical Harmonics?: true
    Max angular momentum: 2

  ==> Pre-Iterations <==

   -------------------------------------------------------
    Irrep   Nso     Nmo     Nalpha   Nbeta   Ndocc  Nsocc
   -------------------------------------------------------
     A        153     153       0       0       0       0
   -------------------------------------------------------
    Total     153     153      29      29      29       0
   -------------------------------------------------------

  ==> Integral Setup <==

  Using integral reordering PK algorithm.
  Sizing the integral batches needed.
  Building batch lookup table.
   Calculation information:
      Number of atoms:                  18
      Number of AO shells:              75
      Number of primitives:            209
      Number of atomic orbitals:       160
      Number of basis functions:       153

      Integral cutoff                 1.00e-12
      Number of threads:                 1

	Batch   1 pq = [       0,    9405] index = [             0,44231715] size =     44231715
	Batch   2 pq = [    9405,   11781] index = [      44231715,69401871] size =     25170156
  Task number: 7
  Buffer size: 11059200
  Buffer per thread: 2
  We computed 3528681 shell quartets total.
  Whereas there are 4062675 unique shell quartets.

  ==> DiskJK: Disk-Based J/K Matrices <==

    J tasked:                  Yes
    K tasked:                  Yes
    wK tasked:                  No
    Memory [MiB]:              375
    Schwarz Cutoff:          1E-12

    OpenMP threads:              1

  Minimum eigenvalue in the overlap matrix is 4.7899571813E-03.
  Using Symmetric Orthogonalization.

  SCF Guess: Superposition of Atomic Densities via on-the-fly atomic UHF.

  ==> Iterations <==

                        Total Energy        Delta E     RMS |[F,P]|

   @RHF iter SAD:  -360.83821884951391   -3.60838e+02   0.00000e+00
   @RHF iter   1:  -361.81810679911638   -9.79888e-01   4.59408e-03 DIIS
   @RHF iter   2:  -362.01391725459462   -1.95810e-01   2.45579e-03 DIIS
   @RHF iter   3:  -362.06541029770443   -5.14930e-02   4.33243e-04 DIIS
   @RHF iter   4:  -362.06831615210200   -2.90585e-03   1.38612e-04 DIIS
   @RHF iter   5:  -362.06862287070868   -3.06719e-04   2.40617e-05 DIIS
   @RHF iter   6:  -362.06863477808764   -1.19074e-05   6.56317e-06 DIIS
   @RHF iter   7:  -362.06863541143787   -6.33350e-07   2.61085e-06 DIIS
   @RHF iter   8:  -362.06863551642562   -1.04988e-07   8.89248e-07 DIIS
   @RHF iter   9:  -362.06863553262133   -1.61957e-08   2.57641e-07 DIIS
   @RHF iter  10:  -362.06863553500079   -2.37947e-09   1.11069e-07 DIIS
   @RHF iter  11:  -362.06863553545929   -4.58499e-10   3.23682e-08 DIIS
   @RHF iter  12:  -362.06863553550170   -4.24052e-11   8.37350e-09 DIIS
   @RHF iter  13:  -362.06863553550443   -2.72848e-12   2.39539e-09 DIIS
   @RHF iter  14:  -362.06863553550431    1.13687e-13   8.13904e-10 DIIS
   @RHF iter  15:  -362.06863553550511   -7.95808e-13   2.05331e-10 DIIS
   @RHF iter  16:  -362.06863553550522   -1.13687e-13   7.68384e-11 DIIS
  Energy and wave function converged.

  ==> Post-Iterations <==

    Orbital Energies [Eh]
    ---------------------

    Doubly Occupied:

       1A    -20.441631     2A    -20.433198     3A    -15.701332
       4A    -11.314726     5A    -11.282800     6A    -11.270566
       7A    -11.179136     8A     -1.339713     9A     -1.322884
      10A     -1.211576    11A     -1.064834    12A     -0.932286
      13A     -0.902073    14A     -0.798740    15A     -0.771373
      16A     -0.693073    17A     -0.657946    18A     -0.643143
      19A     -0.579405    20A     -0.567693    21A     -0.565731
      22A     -0.553482    23A     -0.549098    24A     -0.538302
      25A     -0.492048    26A     -0.460672    27A     -0.357104
      28A     -0.347119    29A     -0.340872

    Virtual:

      30A      0.123746    31A      0.173866    32A      0.176295
      33A      0.215928    34A      0.224353    35A      0.242560
      36A      0.257489    37A      0.261686    38A      0.278270
      39A      0.304260    40A      0.323101    41A      0.341185
      42A      0.346961    43A      0.359547    44A      0.444393
      45A      0.520795    46A      0.548941    47A      0.557753
      48A      0.569706    49A      0.582563    50A      0.604408
      51A      0.645099    52A      0.689886    53A      0.747407
      54A      0.752983    55A      0.780171    56A      0.802085
      57A      0.824858    58A      0.829372    59A      0.842129
      60A      0.845768    61A      0.851779    62A      0.853827
      63A      0.878963    64A      0.899522    65A      0.904554
      66A      0.912166    67A      0.916341    68A      0.948813
      69A      0.976618    70A      0.984555    71A      1.031702
      72A      1.046352    73A      1.076108    74A      1.082702
      75A      1.152715    76A      1.178825    77A      1.212434
      78A      1.233684    79A      1.303593    80A      1.337075
      81A      1.392564    82A      1.415512    83A      1.420595
      84A      1.439148    85A      1.454532    86A      1.509299
      87A      1.532580    88A      1.554293    89A      1.576463
      90A      1.610826    91A      1.633323    92A      1.666311
      93A      1.700379    94A      1.718796    95A      1.721549
      96A      1.777388    97A      1.828359    98A      1.862060
      99A      1.876646   100A      1.893411   101A      1.899055
     102A      1.909866   103A      1.925650   104A      1.928326
     105A      1.945605   106A      1.965350   107A      1.969576
     108A      2.014810   109A      2.048234   110A      2.068880
     111A      2.078835   112A      2.111342   113A      2.121986
     114A      2.155221   115A      2.176686   116A      2.235080
     117A      2.237877   118A      2.270793   119A      2.294578
     120A      2.340121   121A      2.349567   122A      2.378090
     123A      2.418645   124A      2.452001   125A      2.508134
     126A      2.531476   127A      2.545301   128A      2.583955
     129A      2.606480   130A      2.663646   131A      2.679548
     132A      2.717078   133A      2.738048   134A      2.785059
     135A      2.788778   136A      2.840079   137A      2.841081
     138A      2.859027   139A      2.923043   140A      2.974407
     141A      3.019924   142A      3.069617   143A      3.123448
     144A      3.139517   145A      3.188224   146A      3.332874
     147A      3.415521   148A      3.457763   149A      3.619894
     150A      3.662035   151A      3.901529   152A      3.914410
     153A      4.048919

    Final Occupation by Irrep:
              A
    DOCC [    29 ]

  @RHF Final Energy:  -362.06863553550522

   => Energetics <=

    Nuclear Repulsion Energy =            316.6922504032264101
    One-Electron Energy =               -1122.8966647167508199
    Two-Electron Energy =                 444.1357787780192439
    Total Energy =                       -362.0686355355052228

Computation Completed

Properties will be evaluated at   0.000000,   0.000000,   0.000000 [a0]

Properties computed using the SCF density matrix

  Nuclear Dipole Moment: [e a0]
     X:     4.6560      Y:    -4.0577      Z:     4.1424

  Electronic Dipole Moment: [e a0]
     X:    -3.5152      Y:     1.5626      Z:    -2.1613

  Dipole Moment: [e a0]
     X:     1.1409      Y:    -2.4951      Z:     1.9811     Total:     3.3841

  Dipole Moment: [D]
     X:     2.8998      Y:    -6.3420      Z:     5.0354     Total:     8.6014

*** tstop() called on ds3 at Tue Apr 28 12:10:21 2020
Module time:
	user time   =      26.03 seconds =       0.43 minutes
	system time =      10.93 seconds =       0.18 minutes
	total time  =         37 seconds =       0.62 minutes
Total time:
	user time   =      26.03 seconds =       0.43 minutes
	system time =      10.93 seconds =       0.18 minutes
	total time  =         37 seconds =       0.62 minutes
                                     G D M A

                                 by Anthony Stone

                           version 2.2.06, 22 June 2011

               Distributed Multipoles from Gaussian wavefunctions

Starting at 12:10:21 on 28 Apr 2020

Using SCF density matrix from file ./SSI/SSI-113LYS-173GLU-1-dimer.test.8654.fchk

                         Distributed Multipole Analysis

Standard DMA

Positions and radii in angstrom
Multipole moments in atomic units, ea_0^k for rank k

C          x =  1.391944  y = -1.361745  z =  0.693990 angstrom
           Maximum rank =  0   Radius =  0.650 angstrom
                   Q00  =   0.043599

C          x =  2.080944  y = -1.776745  z =  1.982990 angstrom
           Maximum rank =  0   Radius =  0.650 angstrom
                   Q00  =  -0.245353

N          x = -0.053056  y = -1.397745  z =  0.968990 angstrom
           Maximum rank =  0   Radius =  0.650 angstrom
                   Q00  =  -0.124954

H          x =  1.700944  y = -0.346745  z =  0.425990 angstrom
           Maximum rank =  0   Radius =  0.325 angstrom
                   Q00  =   0.148672

H          x =  1.655944  y = -2.046745  z = -0.118010 angstrom
           Maximum rank =  0   Radius =  0.325 angstrom
                   Q00  =   0.098611

H          x =  1.865944  y = -2.826745  z =  2.193990 angstrom
           Maximum rank =  0   Radius =  0.325 angstrom
                   Q00  =   0.074792

H          x =  1.673944  y = -1.184745  z =  2.806990 angstrom
           Maximum rank =  0   Radius =  0.325 angstrom
                   Q00  =   0.084565

H          x = -0.293056  y = -0.800745  z =  1.748990 angstrom
           Maximum rank =  0   Radius =  0.325 angstrom
                   Q00  =   0.241719

H          x = -0.555056  y = -1.013745  z =  0.162990 angstrom
           Maximum rank =  0   Radius =  0.325 angstrom
                   Q00  =   0.309664

H          x = -0.391056  y = -2.335745  z =  1.146990 angstrom
           Maximum rank =  0   Radius =  0.325 angstrom
                   Q00  =   0.200665

H          x =  3.169024  y = -1.615274  z =  1.985950 angstrom
           Maximum rank =  0   Radius =  0.325 angstrom
                   Q00  =   0.124512

C          x = -1.165056  y =  2.319255  z = -1.758010 angstrom
           Maximum rank =  0   Radius =  0.650 angstrom
                   Q00  =  -0.244949

C          x = -0.824056  y =  1.113255  z = -0.906010 angstrom
           Maximum rank =  0   Radius =  0.650 angstrom
                   Q00  =   0.845774

O          x = -0.136056  y =  1.295255  z =  0.120990 angstrom
           Maximum rank =  0   Radius =  0.650 angstrom
                   Q00  =  -0.909533

O          x = -1.244056  y = -0.018745  z = -1.258010 angstrom
           Maximum rank =  0   Radius =  0.650 angstrom
                   Q00  =  -0.926536

H          x = -2.140056  y =  2.704255  z = -1.449010 angstrom
           Maximum rank =  0   Radius =  0.325 angstrom
                   Q00  =   0.106655

H          x = -1.276056  y =  1.986255  z = -2.791010 angstrom
           Maximum rank =  0   Radius =  0.325 angstrom
                   Q00  =   0.086607

H          x = -0.437026  y =  3.140734  z = -1.686290 angstrom
           Maximum rank =  0   Radius =  0.325 angstrom
                   Q00  =   0.085491

Total multipoles referred to origin at
           x =   0.000000,  y =    0.000000,  z =    0.000000 angstrom
                   Q00  =  -0.000000

Finished at 12:10:21 on 28 Apr 2020

  DMA results are available in the Python driver through the
	  variable('DMA DISTRIBUTED MULTIPOLES')
  and
	  variable('DMA TOTAL MULTIPOLES')
  commands.

    Psi4 stopped on: Tuesday, 28 April 2020 12:10PM
    Psi4 wall time for execution: 0:00:36.49

*** Psi4 exiting successfully. Buy a developer a beer!
