                               Psi4 1.3.2 release

  ==> Input File <==

--------------------------------------------------------------------------
import numpy as np
set {scf_type pk
basis cc-pvdz
d_convergence 10
gdma_switch   0
gdma_limit    0
gdma_origin   [ 0.0,  0.0,  0.0 ]
}
molecule test {
    units Angstrom
    0 1
    --
    0 1
    C                0.699825114825288    -3.000861273249936    -2.026911188794393
    C                1.627825114825288    -3.726861273249936    -3.002911188794393
    O               -0.652174885174712    -3.353861273249936    -2.225911188794393
    H                0.982825114825288    -3.264861273249937    -1.006911188794393
    H                0.821825114825288    -1.924861273249936    -2.157911188794392
    H                2.644825114825288    -3.574861273249937    -2.636911188794392
    H               -1.193174885174712    -2.946861273249936    -1.540911188794392
    H                1.546228114825288    -3.304521273249937    -4.015319188794392
    H                1.436469114825288    -4.810011273249936    -3.015909188794392
    C                0.603825114825288    -0.101861273249936     0.008088811205607
    C                1.474825114825288    -0.920861273249936     0.969088811205607
    C               -0.065174885174712     1.085138726750064     0.646088811205607
    C                0.606825114825288     2.304138726750063     0.766088811205607
    C               -1.377174885174712     0.983138726750064     1.113088811205607
    C               -0.018174885174712     3.398138726750063     1.366088811205607
    C               -2.006174885174711     2.077138726750064     1.705088811205607
    C               -1.327174885174712     3.282138726750063     1.835088811205607
    H                1.210825114825288     0.239138726750064    -0.831911188794393
    H               -0.169174885174712    -0.753861273249936    -0.398911188794393
    H                1.882825114825288    -1.754861273249936     0.399088811205607
    H                1.615825114825288     2.406138726750063     0.393088811205607
    H               -1.922174885174712     0.056138726750064     1.003088811205607
    H                0.510825114825288     4.336138726750064     1.459088811205608
    H               -3.027174885174712     2.009138726750064     2.038088811205608
    H               -1.818174885174712     4.124138726750064     2.299088811205607
    H                0.873109114825288    -1.320241273249936     1.798806811205607
    H                2.344195114825288    -0.339121273249936     1.309339811205607

}
e, wfn = energy('scf', return_wfn=True)
gdma(wfn)
dmavals = variable('DMA DISTRIBUTED MULTIPOLES')
charges = np.array(dmavals)
print(charges)
np.save('SSI-055SER-071PHE-1-dimer.npy', np.array(charges))--------------------------------------------------------------------------

*** tstart() called on ds3
*** at Mon Apr 27 13:23:36 2020

   => Loading Basis Set <=

    Name: CC-PVDZ
    Role: ORBITAL
    Keyword: BASIS
    atoms 1-2, 10-17 entry C          line   138 file /theoryfs2/ds/metcalf/miniconda2/envs/tf2gpu/share/psi4/basis/cc-pvdz.gbs
    atoms 3          entry O          line   198 file /theoryfs2/ds/metcalf/miniconda2/envs/tf2gpu/share/psi4/basis/cc-pvdz.gbs
    atoms 4-9, 18-27 entry H          line    22 file /theoryfs2/ds/metcalf/miniconda2/envs/tf2gpu/share/psi4/basis/cc-pvdz.gbs

         ---------------------------------------------------------
                                   SCF
               by Justin Turney, Rob Parrish, Andy Simmonett
                          and Daniel G. A. Smith
                              RHF Reference
                        1 Threads,    500 MiB Core
         ---------------------------------------------------------

  ==> Geometry <==

    Molecular point group: c1
    Full point group: C1

    Geometry (in Angstrom), charge = 0, multiplicity = 1:

       Center              X                  Y                   Z               Mass
    ------------   -----------------  -----------------  -----------------  -----------------
         C            0.699825114825    -3.000861273250    -2.026911188794    12.000000000000
         C            1.627825114825    -3.726861273250    -3.002911188794    12.000000000000
         O           -0.652174885175    -3.353861273250    -2.225911188794    15.994914619570
         H            0.982825114825    -3.264861273250    -1.006911188794     1.007825032230
         H            0.821825114825    -1.924861273250    -2.157911188794     1.007825032230
         H            2.644825114825    -3.574861273250    -2.636911188794     1.007825032230
         H           -1.193174885175    -2.946861273250    -1.540911188794     1.007825032230
         H            1.546228114825    -3.304521273250    -4.015319188794     1.007825032230
         H            1.436469114825    -4.810011273250    -3.015909188794     1.007825032230
         C            0.603825114825    -0.101861273250     0.008088811206    12.000000000000
         C            1.474825114825    -0.920861273250     0.969088811206    12.000000000000
         C           -0.065174885175     1.085138726750     0.646088811206    12.000000000000
         C            0.606825114825     2.304138726750     0.766088811206    12.000000000000
         C           -1.377174885175     0.983138726750     1.113088811206    12.000000000000
         C           -0.018174885175     3.398138726750     1.366088811206    12.000000000000
         C           -2.006174885175     2.077138726750     1.705088811206    12.000000000000
         C           -1.327174885175     3.282138726750     1.835088811206    12.000000000000
         H            1.210825114825     0.239138726750    -0.831911188794     1.007825032230
         H           -0.169174885175    -0.753861273250    -0.398911188794     1.007825032230
         H            1.882825114825    -1.754861273250     0.399088811206     1.007825032230
         H            1.615825114825     2.406138726750     0.393088811206     1.007825032230
         H           -1.922174885175     0.056138726750     1.003088811206     1.007825032230
         H            0.510825114825     4.336138726750     1.459088811206     1.007825032230
         H           -3.027174885175     2.009138726750     2.038088811206     1.007825032230
         H           -1.818174885175     4.124138726750     2.299088811206     1.007825032230
         H            0.873109114825    -1.320241273250     1.798806811206     1.007825032230
         H            2.344195114825    -0.339121273250     1.309339811206     1.007825032230

  Running in c1 symmetry.

  Rotational constants: A =      0.07857  B =      0.01136  C =      0.01060 [cm^-1]
  Rotational constants: A =   2355.41448  B =    340.45386  C =    317.69933 [MHz]
  Nuclear repulsion =  561.614882442910016

  Charge       = 0
  Multiplicity = 1
  Electrons    = 84
  Nalpha       = 42
  Nbeta        = 42

  ==> Algorithm <==

  SCF Algorithm Type is PK.
  DIIS enabled.
  MOM disabled.
  Fractional occupation disabled.
  Guess Type is SAD.
  Energy threshold   = 1.00e-06
  Density threshold  = 1.00e-10
  Integral threshold = 0.00e+00

  ==> Primary Basis <==

  Basis Set: CC-PVDZ
    Blend: CC-PVDZ
    Number of shells: 114
    Number of basis function: 234
    Number of Cartesian functions: 245
    Spherical Harmonics?: true
    Max angular momentum: 2

  ==> Pre-Iterations <==

   -------------------------------------------------------
    Irrep   Nso     Nmo     Nalpha   Nbeta   Ndocc  Nsocc
   -------------------------------------------------------
     A        234     234       0       0       0       0
   -------------------------------------------------------
    Total     234     234      42      42      42       0
   -------------------------------------------------------

  ==> Integral Setup <==

  Using integral reordering PK algorithm.
  Sizing the integral batches needed.
  Building batch lookup table.
   Calculation information:
      Number of atoms:                  27
      Number of AO shells:             114
      Number of primitives:            322
      Number of atomic orbitals:       245
      Number of basis functions:       234

      Integral cutoff                 1.00e-12
      Number of threads:                 1

	Batch   1 pq = [       0,    9405] index = [             0,44231715] size =     44231715
	Batch   2 pq = [    9405,   13301] index = [      44231715,88464951] size =     44233236
	Batch   3 pq = [   13301,   16290] index = [      88464951,132690195] size =     44225244
	Batch   4 pq = [   16290,   18810] index = [     132690195,176917455] size =     44227260
	Batch   5 pq = [   18810,   21030] index = [     176917455,221140965] size =     44223510
	Batch   6 pq = [   21030,   23037] index = [     221140965,265363203] size =     44222238
	Batch   7 pq = [   23037,   24883] index = [     265363203,309594286] size =     44231083
	Batch   8 pq = [   24883,   26601] index = [     309594286,353819901] size =     44225615
	Batch   9 pq = [   26601,   27495] index = [     353819901,378001260] size =     24181359
  Task number: 35
  Buffer size: 11059200
  Buffer per thread: 2
  We computed 17825084 shell quartets total.
  Whereas there are 21487290 unique shell quartets.

  ==> DiskJK: Disk-Based J/K Matrices <==

    J tasked:                  Yes
    K tasked:                  Yes
    wK tasked:                  No
    Memory [MiB]:              375
    Schwarz Cutoff:          1E-12

    OpenMP threads:              1

  Minimum eigenvalue in the overlap matrix is 3.1393531838E-04.
  Using Symmetric Orthogonalization.

  SCF Guess: Superposition of Atomic Densities via on-the-fly atomic UHF.

  ==> Iterations <==

                        Total Energy        Delta E     RMS |[F,P]|

   @RHF iter SAD:  -461.60557782879528   -4.61606e+02   0.00000e+00
   @RHF iter   1:  -462.60886056247517   -1.00328e+00   2.78071e-03 DIIS
   @RHF iter   2:  -462.83983101158185   -2.30970e-01   1.25744e-03 DIIS
   @RHF iter   3:  -462.88034298250130   -4.05120e-02   2.69105e-04 DIIS
   @RHF iter   4:  -462.88354261316567   -3.19963e-03   8.00951e-05 DIIS
   @RHF iter   5:  -462.88373095799739   -1.88345e-04   1.66932e-05 DIIS
   @RHF iter   6:  -462.88374269132237   -1.17333e-05   4.38542e-06 DIIS
   @RHF iter   7:  -462.88374354326919   -8.51947e-07   1.85949e-06 DIIS
   @RHF iter   8:  -462.88374368261708   -1.39348e-07   4.68942e-07 DIIS
   @RHF iter   9:  -462.88374370231116   -1.96941e-08   2.05402e-07 DIIS
   @RHF iter  10:  -462.88374370760437   -5.29320e-09   1.03325e-07 DIIS
   @RHF iter  11:  -462.88374370933104   -1.72668e-09   3.64177e-08 DIIS
   @RHF iter  12:  -462.88374370954580   -2.14754e-10   1.31595e-08 DIIS
   @RHF iter  13:  -462.88374370956313   -1.73372e-11   4.36272e-09 DIIS
   @RHF iter  14:  -462.88374370956478   -1.64846e-12   1.16260e-09 DIIS
   @RHF iter  15:  -462.88374370956558   -7.95808e-13   4.41735e-10 DIIS
   @RHF iter  16:  -462.88374370956353    2.04636e-12   1.58774e-10 DIIS
   @RHF iter  17:  -462.88374370956285    6.82121e-13   7.02694e-11 DIIS
  Energy and wave function converged.

  ==> Post-Iterations <==

    Orbital Energies [Eh]
    ---------------------

    Doubly Occupied:

       1A    -20.547122     2A    -11.274968     3A    -11.242046
       4A    -11.239319     5A    -11.237785     6A    -11.236101
       7A    -11.234834     8A    -11.234756     9A    -11.233898
      10A    -11.229592    11A    -11.222962    12A     -1.353072
      13A     -1.156147    14A     -1.067421    15A     -1.014255
      16A     -1.008810    17A     -0.986198    18A     -0.867392
      19A     -0.833281    20A     -0.828525    21A     -0.789164
      22A     -0.696510    23A     -0.691232    24A     -0.644690
      25A     -0.644589    26A     -0.638108    27A     -0.595495
      28A     -0.590821    29A     -0.581886    30A     -0.568250
      31A     -0.546145    32A     -0.531528    33A     -0.526511
      34A     -0.521890    35A     -0.505730    36A     -0.485450
      37A     -0.482462    38A     -0.474698    39A     -0.472372
      40A     -0.433074    41A     -0.334824    42A     -0.324527

    Virtual:

      43A      0.132776    44A      0.134399    45A      0.158477
      46A      0.187154    47A      0.188530    48A      0.205965
      49A      0.215963    50A      0.228436    51A      0.236218
      52A      0.248982    53A      0.250897    54A      0.264017
      55A      0.269775    56A      0.284665    57A      0.292304
      58A      0.312912    59A      0.321075    60A      0.324489
      61A      0.343269    62A      0.386570    63A      0.396441
      64A      0.421664    65A      0.432659    66A      0.449189
      67A      0.471794    68A      0.484620    69A      0.493496
      70A      0.566983    71A      0.581323    72A      0.595675
      73A      0.610781    74A      0.629281    75A      0.643738
      76A      0.651973    77A      0.675603    78A      0.692325
      79A      0.702994    80A      0.714283    81A      0.731282
      82A      0.736650    83A      0.742443    84A      0.747276
      85A      0.753482    86A      0.764096    87A      0.769367
      88A      0.774504    89A      0.791223    90A      0.810978
      91A      0.828980    92A      0.848870    93A      0.858043
      94A      0.867428    95A      0.870592    96A      0.879424
      97A      0.885123    98A      0.889981    99A      0.893717
     100A      0.899660   101A      0.905538   102A      0.911244
     103A      0.923653   104A      0.926151   105A      0.938304
     106A      0.948681   107A      0.961666   108A      0.973877
     109A      0.984755   110A      0.996060   111A      0.999678
     112A      1.039725   113A      1.093604   114A      1.115580
     115A      1.132337   116A      1.136168   117A      1.148477
     118A      1.149922   119A      1.157965   120A      1.176028
     121A      1.189937   122A      1.227223   123A      1.234465
     124A      1.242328   125A      1.253389   126A      1.287698
     127A      1.289119   128A      1.298045   129A      1.307230
     130A      1.318288   131A      1.327929   132A      1.415576
     133A      1.418925   134A      1.430681   135A      1.451254
     136A      1.483659   137A      1.508453   138A      1.528082
     139A      1.539758   140A      1.561338   141A      1.605853
     142A      1.613586   143A      1.631883   144A      1.678510
     145A      1.682256   146A      1.704009   147A      1.718384
     148A      1.731470   149A      1.760866   150A      1.763189
     151A      1.811061   152A      1.830734   153A      1.853099
     154A      1.856366   155A      1.869189   156A      1.877713
     157A      1.879899   158A      1.888484   159A      1.897042
     160A      1.901167   161A      1.907457   162A      1.913244
     163A      1.917571   164A      1.933113   165A      1.938108
     166A      1.946838   167A      1.952614   168A      1.963920
     169A      1.964721   170A      1.969512   171A      1.985275
     172A      1.992234   173A      2.005925   174A      2.013505
     175A      2.034722   176A      2.052480   177A      2.055383
     178A      2.077514   179A      2.086582   180A      2.118868
     181A      2.147080   182A      2.156668   183A      2.160784
     184A      2.163319   185A      2.165896   186A      2.202149
     187A      2.217854   188A      2.236860   189A      2.245052
     190A      2.266263   191A      2.271738   192A      2.297712
     193A      2.308191   194A      2.317749   195A      2.318723
     196A      2.347518   197A      2.389539   198A      2.453339
     199A      2.461294   200A      2.476829   201A      2.490219
     202A      2.496164   203A      2.517368   204A      2.536447
     205A      2.548390   206A      2.575989   207A      2.590995
     208A      2.647740   209A      2.742592   210A      2.753558
     211A      2.756716   212A      2.771793   213A      2.781656
     214A      2.788540   215A      2.795753   216A      2.799680
     217A      2.839058   218A      2.861147   219A      2.900396
     220A      2.934456   221A      2.939634   222A      2.969085
     223A      2.987547   224A      3.016833   225A      3.052678
     226A      3.183507   227A      3.198053   228A      3.300900
     229A      3.333038   230A      3.423541   231A      3.463550
     232A      3.635960   233A      3.964553   234A      4.129233

    Final Occupation by Irrep:
              A
    DOCC [    42 ]

  @RHF Final Energy:  -462.88374370956285

   => Energetics <=

    Nuclear Repulsion Energy =            561.6148824429100159
    One-Electron Energy =               -1740.7403736532489802
    Two-Electron Energy =                 716.2417475007762278
    Total Energy =                       -462.8837437095628502

Computation Completed

Properties will be evaluated at   0.000000,   0.000000,   0.000000 [a0]

Properties computed using the SCF density matrix

  Nuclear Dipole Moment: [e a0]
     X:     7.2528      Y:   -10.1626      Z:    -4.6090

  Electronic Dipole Moment: [e a0]
     X:    -6.9534      Y:    10.5023      Z:     5.0599

  Dipole Moment: [e a0]
     X:     0.2994      Y:     0.3398      Z:     0.4509     Total:     0.6390

  Dipole Moment: [D]
     X:     0.7610      Y:     0.8636      Z:     1.1460     Total:     1.6242

*** tstop() called on ds3 at Mon Apr 27 13:27:16 2020
Module time:
	user time   =     139.25 seconds =       2.32 minutes
	system time =      64.93 seconds =       1.08 minutes
	total time  =        220 seconds =       3.67 minutes
Total time:
	user time   =     139.25 seconds =       2.32 minutes
	system time =      64.93 seconds =       1.08 minutes
	total time  =        220 seconds =       3.67 minutes
                                     G D M A

                                 by Anthony Stone

                           version 2.2.06, 22 June 2011

               Distributed Multipoles from Gaussian wavefunctions

Starting at 13:27:16 on 27 Apr 2020

Using SCF density matrix from file ./SSI/SSI-055SER-071PHE-1-dimer.test.6433.fchk

                         Distributed Multipole Analysis

Standard DMA

Positions and radii in angstrom
Multipole moments in atomic units, ea_0^k for rank k

C          x =  0.699825  y = -3.000861  z = -2.026911 angstrom
           Maximum rank =  0   Radius =  0.650 angstrom
                   Q00  =   0.086519

C          x =  1.627825  y = -3.726861  z = -3.002911 angstrom
           Maximum rank =  0   Radius =  0.650 angstrom
                   Q00  =  -0.236164

O          x = -0.652175  y = -3.353861  z = -2.225911 angstrom
           Maximum rank =  0   Radius =  0.650 angstrom
                   Q00  =  -0.587518

H          x =  0.982825  y = -3.264861  z = -1.006911 angstrom
           Maximum rank =  0   Radius =  0.325 angstrom
                   Q00  =   0.036590

H          x =  0.821825  y = -1.924861  z = -2.157911 angstrom
           Maximum rank =  0   Radius =  0.325 angstrom
                   Q00  =   0.039985

H          x =  2.644825  y = -3.574861  z = -2.636911 angstrom
           Maximum rank =  0   Radius =  0.325 angstrom
                   Q00  =   0.080447

H          x = -1.193175  y = -2.946861  z = -1.540911 angstrom
           Maximum rank =  0   Radius =  0.325 angstrom
                   Q00  =   0.389780

H          x =  1.546228  y = -3.304521  z = -4.015319 angstrom
           Maximum rank =  0   Radius =  0.325 angstrom
                   Q00  =   0.090372

H          x =  1.436469  y = -4.810011  z = -3.015909 angstrom
           Maximum rank =  0   Radius =  0.325 angstrom
                   Q00  =   0.096158

C          x =  0.603825  y = -0.101861  z =  0.008089 angstrom
           Maximum rank =  0   Radius =  0.650 angstrom
                   Q00  =  -0.011858

C          x =  1.474825  y = -0.920861  z =  0.969089 angstrom
           Maximum rank =  0   Radius =  0.650 angstrom
                   Q00  =  -0.253363

C          x = -0.065175  y =  1.085139  z =  0.646089 angstrom
           Maximum rank =  0   Radius =  0.650 angstrom
                   Q00  =  -0.093755

C          x =  0.606825  y =  2.304139  z =  0.766089 angstrom
           Maximum rank =  0   Radius =  0.650 angstrom
                   Q00  =  -0.097498

C          x = -1.377175  y =  0.983139  z =  1.113089 angstrom
           Maximum rank =  0   Radius =  0.650 angstrom
                   Q00  =   0.008195

C          x = -0.018175  y =  3.398139  z =  1.366089 angstrom
           Maximum rank =  0   Radius =  0.650 angstrom
                   Q00  =  -0.059910

C          x = -2.006175  y =  2.077139  z =  1.705089 angstrom
           Maximum rank =  0   Radius =  0.650 angstrom
                   Q00  =  -0.076494

C          x = -1.327175  y =  3.282139  z =  1.835089 angstrom
           Maximum rank =  0   Radius =  0.650 angstrom
                   Q00  =  -0.079998

H          x =  1.210825  y =  0.239139  z = -0.831911 angstrom
           Maximum rank =  0   Radius =  0.325 angstrom
                   Q00  =   0.070105

H          x = -0.169175  y = -0.753861  z = -0.398911 angstrom
           Maximum rank =  0   Radius =  0.325 angstrom
                   Q00  =   0.040926

H          x =  1.882825  y = -1.754861  z =  0.399089 angstrom
           Maximum rank =  0   Radius =  0.325 angstrom
                   Q00  =   0.079279

H          x =  1.615825  y =  2.406139  z =  0.393089 angstrom
           Maximum rank =  0   Radius =  0.325 angstrom
                   Q00  =   0.056416

H          x = -1.922175  y =  0.056139  z =  1.003089 angstrom
           Maximum rank =  0   Radius =  0.325 angstrom
                   Q00  =   0.051236

H          x =  0.510825  y =  4.336139  z =  1.459089 angstrom
           Maximum rank =  0   Radius =  0.325 angstrom
                   Q00  =   0.066736

H          x = -3.027175  y =  2.009139  z =  2.038089 angstrom
           Maximum rank =  0   Radius =  0.325 angstrom
                   Q00  =   0.065872

H          x = -1.818175  y =  4.124139  z =  2.299089 angstrom
           Maximum rank =  0   Radius =  0.325 angstrom
                   Q00  =   0.062700

H          x =  0.873109  y = -1.320241  z =  1.798807 angstrom
           Maximum rank =  0   Radius =  0.325 angstrom
                   Q00  =   0.087335

H          x =  2.344195  y = -0.339121  z =  1.309340 angstrom
           Maximum rank =  0   Radius =  0.325 angstrom
                   Q00  =   0.087907

Total multipoles referred to origin at
           x =   0.000000,  y =    0.000000,  z =    0.000000 angstrom
                   Q00  =  -0.000000

Finished at 13:27:17 on 27 Apr 2020

  DMA results are available in the Python driver through the
	  variable('DMA DISTRIBUTED MULTIPOLES')
  and
	  variable('DMA TOTAL MULTIPOLES')
  commands.

    Psi4 stopped on: Monday, 27 April 2020 01:27PM
    Psi4 wall time for execution: 0:03:41.10

*** Psi4 exiting successfully. Buy a developer a beer!
