                               Psi4 1.3.2 release

  ==> Input File <==

--------------------------------------------------------------------------
import numpy as np
set {scf_type pk
basis cc-pvdz
d_convergence 10
gdma_switch   0
gdma_limit    0
gdma_origin   [ 0.0,  0.0,  0.0 ]
}
molecule test {
    units Angstrom
    1 1
    --
    1 1
    C                1.037287761346755    -3.408381373785287    -0.797919465980218
    C               -0.043712238653245    -0.244381373785288     1.005080534019782
    C               -1.296712238653245    -0.626381373785288     1.442080534019782
    C                0.747287761346755    -1.139381373785288     0.256080534019782
    C                0.243287761346755    -2.388381373785287    -0.042919465980218
    C               -1.769712238653244    -1.862381373785288     1.174080534019782
    C               -1.022712238653245    -2.728381373785288     0.425080534019782
    H                0.339287761346755     0.735618626214712     1.258080534019782
    H               -1.898712238653244     0.061618626214712     2.018080534019782
    H                1.737287761346755    -0.850381373785288    -0.070919465980218
    H               -2.731712238653245    -2.171381373785288     1.558080534019782
    H                0.834287761346755    -4.393381373785288    -0.371919465980218
    H                2.098287761346755    -3.205381373785288    -0.650919465980218
    H               -1.417712238653245    -3.708381373785288     0.203080534019782
    H                0.807207761346755    -3.432901373785288    -1.873308465980218
    C                0.217287761346755     3.083618626214712    -0.654919465980218
    C               -0.022712238653245     3.535618626214712    -2.008919465980219
    N                1.333287761346756     4.062618626214712    -0.242919465980218
    H               -0.673712238653245     3.200618626214712    -0.029919465980218
    H                0.557287761346755     2.041618626214712    -0.657919465980218
    H                0.849287761346755     3.308618626214712    -2.629919465980219
    H               -0.100712238653245     4.627618626214713    -1.985919465980218
    H                0.915287761346755     4.957618626214713     0.023080534019782
    H                1.802287761346755     3.734618626214712     0.593080534019782
    H                2.039287761346756     4.203618626214712    -0.955919465980218
    H               -0.935477238653245     3.245598626214712    -2.549983465980219

}
e, wfn = energy('scf', return_wfn=True)
gdma(wfn)
dmavals = variable('DMA DISTRIBUTED MULTIPOLES')
charges = np.array(dmavals)
print(charges)
np.save('SSI-046PHE-050LYS-1-dimer.npy', np.array(charges))--------------------------------------------------------------------------

*** tstart() called on ds3
*** at Mon Apr 27 01:20:55 2020

   => Loading Basis Set <=

    Name: CC-PVDZ
    Role: ORBITAL
    Keyword: BASIS
    atoms 1-7, 16-17  entry C          line   138 file /theoryfs2/ds/metcalf/miniconda2/envs/tf2gpu/share/psi4/basis/cc-pvdz.gbs
    atoms 8-15, 19-26 entry H          line    22 file /theoryfs2/ds/metcalf/miniconda2/envs/tf2gpu/share/psi4/basis/cc-pvdz.gbs
    atoms 18          entry N          line   168 file /theoryfs2/ds/metcalf/miniconda2/envs/tf2gpu/share/psi4/basis/cc-pvdz.gbs

         ---------------------------------------------------------
                                   SCF
               by Justin Turney, Rob Parrish, Andy Simmonett
                          and Daniel G. A. Smith
                              RHF Reference
                        1 Threads,    500 MiB Core
         ---------------------------------------------------------

  ==> Geometry <==

    Molecular point group: c1
    Full point group: C1

    Geometry (in Angstrom), charge = 1, multiplicity = 1:

       Center              X                  Y                   Z               Mass
    ------------   -----------------  -----------------  -----------------  -----------------
         C            1.037287761347    -3.408381373785    -0.797919465980    12.000000000000
         C           -0.043712238653    -0.244381373785     1.005080534020    12.000000000000
         C           -1.296712238653    -0.626381373785     1.442080534020    12.000000000000
         C            0.747287761347    -1.139381373785     0.256080534020    12.000000000000
         C            0.243287761347    -2.388381373785    -0.042919465980    12.000000000000
         C           -1.769712238653    -1.862381373785     1.174080534020    12.000000000000
         C           -1.022712238653    -2.728381373785     0.425080534020    12.000000000000
         H            0.339287761347     0.735618626215     1.258080534020     1.007825032230
         H           -1.898712238653     0.061618626215     2.018080534020     1.007825032230
         H            1.737287761347    -0.850381373785    -0.070919465980     1.007825032230
         H           -2.731712238653    -2.171381373785     1.558080534020     1.007825032230
         H            0.834287761347    -4.393381373785    -0.371919465980     1.007825032230
         H            2.098287761347    -3.205381373785    -0.650919465980     1.007825032230
         H           -1.417712238653    -3.708381373785     0.203080534020     1.007825032230
         H            0.807207761347    -3.432901373785    -1.873308465980     1.007825032230
         C            0.217287761347     3.083618626215    -0.654919465980    12.000000000000
         C           -0.022712238653     3.535618626215    -2.008919465980    12.000000000000
         N            1.333287761347     4.062618626215    -0.242919465980    14.003074004430
         H           -0.673712238653     3.200618626215    -0.029919465980     1.007825032230
         H            0.557287761347     2.041618626215    -0.657919465980     1.007825032230
         H            0.849287761347     3.308618626215    -2.629919465980     1.007825032230
         H           -0.100712238653     4.627618626215    -1.985919465980     1.007825032230
         H            0.915287761347     4.957618626215     0.023080534020     1.007825032230
         H            1.802287761347     3.734618626215     0.593080534020     1.007825032230
         H            2.039287761347     4.203618626215    -0.955919465980     1.007825032230
         H           -0.935477238653     3.245598626215    -2.549983465980     1.007825032230

  Running in c1 symmetry.

  Rotational constants: A =      0.06783  B =      0.01465  C =      0.01337 [cm^-1]
  Rotational constants: A =   2033.36082  B =    439.17459  C =    400.79994 [MHz]
  Nuclear repulsion =  488.453727565568045

  Charge       = 1
  Multiplicity = 1
  Electrons    = 76
  Nalpha       = 38
  Nbeta        = 38

  ==> Algorithm <==

  SCF Algorithm Type is PK.
  DIIS enabled.
  MOM disabled.
  Fractional occupation disabled.
  Guess Type is SAD.
  Energy threshold   = 1.00e-06
  Density threshold  = 1.00e-10
  Integral threshold = 0.00e+00

  ==> Primary Basis <==

  Basis Set: CC-PVDZ
    Blend: CC-PVDZ
    Number of shells: 108
    Number of basis function: 220
    Number of Cartesian functions: 230
    Spherical Harmonics?: true
    Max angular momentum: 2

  ==> Pre-Iterations <==

   -------------------------------------------------------
    Irrep   Nso     Nmo     Nalpha   Nbeta   Ndocc  Nsocc
   -------------------------------------------------------
     A        220     220       0       0       0       0
   -------------------------------------------------------
    Total     220     220      38      38      38       0
   -------------------------------------------------------

  ==> Integral Setup <==

  Using integral reordering PK algorithm.
  Sizing the integral batches needed.
  Building batch lookup table.
   Calculation information:
      Number of atoms:                  26
      Number of AO shells:             108
      Number of primitives:            300
      Number of atomic orbitals:       230
      Number of basis functions:       220

      Integral cutoff                 1.00e-12
      Number of threads:                 1

	Batch   1 pq = [       0,    9405] index = [             0,44231715] size =     44231715
	Batch   2 pq = [    9405,   13301] index = [      44231715,88464951] size =     44233236
	Batch   3 pq = [   13301,   16290] index = [      88464951,132690195] size =     44225244
	Batch   4 pq = [   16290,   18810] index = [     132690195,176917455] size =     44227260
	Batch   5 pq = [   18810,   21030] index = [     176917455,221140965] size =     44223510
	Batch   6 pq = [   21030,   23037] index = [     221140965,265363203] size =     44222238
	Batch   7 pq = [   23037,   24310] index = [     265363203,295500205] size =     30137002
  Task number: 27
  Buffer size: 11059200
  Buffer per thread: 2
  We computed 13099677 shell quartets total.
  Whereas there are 17325441 unique shell quartets.

  ==> DiskJK: Disk-Based J/K Matrices <==

    J tasked:                  Yes
    K tasked:                  Yes
    wK tasked:                  No
    Memory [MiB]:              375
    Schwarz Cutoff:          1E-12

    OpenMP threads:              1

  Minimum eigenvalue in the overlap matrix is 2.8601223283E-04.
  Using Symmetric Orthogonalization.

  SCF Guess: Superposition of Atomic Densities via on-the-fly atomic UHF.

  ==> Iterations <==

                        Total Energy        Delta E     RMS |[F,P]|

   @RHF iter SAD:  -403.94552176596471   -4.03946e+02   0.00000e+00
   @RHF iter   1:  -404.12095102119935   -1.75429e-01   2.70485e-03 DIIS
   @RHF iter   2:  -404.33890048922518   -2.17949e-01   1.07556e-03 DIIS
   @RHF iter   3:  -404.36959993824917   -3.06994e-02   2.73138e-04 DIIS
   @RHF iter   4:  -404.37263297500039   -3.03304e-03   6.59285e-05 DIIS
   @RHF iter   5:  -404.37276789416853   -1.34919e-04   2.10405e-05 DIIS
   @RHF iter   6:  -404.37278369418038   -1.58000e-05   6.21116e-06 DIIS
   @RHF iter   7:  -404.37278517451284   -1.48033e-06   1.69279e-06 DIIS
   @RHF iter   8:  -404.37278537271129   -1.98198e-07   6.17425e-07 DIIS
   @RHF iter   9:  -404.37278541323985   -4.05286e-08   2.92106e-07 DIIS
   @RHF iter  10:  -404.37278542257604   -9.33619e-09   1.45896e-07 DIIS
   @RHF iter  11:  -404.37278542543606   -2.86002e-09   5.53160e-08 DIIS
   @RHF iter  12:  -404.37278542580924   -3.73177e-10   1.80654e-08 DIIS
   @RHF iter  13:  -404.37278542583249   -2.32490e-11   4.69119e-09 DIIS
   @RHF iter  14:  -404.37278542583738   -4.88853e-12   1.32767e-09 DIIS
   @RHF iter  15:  -404.37278542583692    4.54747e-13   6.76297e-10 DIIS
   @RHF iter  16:  -404.37278542583687    5.68434e-14   3.02271e-10 DIIS
   @RHF iter  17:  -404.37278542583539    1.47793e-12   1.21492e-10 DIIS
   @RHF iter  18:  -404.37278542583590   -5.11591e-13   5.20980e-11 DIIS
  Energy and wave function converged.

  ==> Post-Iterations <==

    Orbital Energies [Eh]
    ---------------------

    Doubly Occupied:

       1A    -15.900695     2A    -11.484203     3A    -11.401843
       4A    -11.335194     5A    -11.327591     6A    -11.325788
       7A    -11.318936     8A    -11.314830     9A    -11.312669
      10A    -11.306411    11A     -1.515490    12A     -1.252401
      13A     -1.240364    14A     -1.139504    15A     -1.106737
      16A     -1.052478    17A     -1.018106    18A     -0.977410
      19A     -0.955736    20A     -0.921966    21A     -0.886279
      22A     -0.859890    23A     -0.811204    24A     -0.786357
      25A     -0.738878    26A     -0.726464    27A     -0.720718
      28A     -0.699689    29A     -0.684922    30A     -0.675210
      31A     -0.658764    32A     -0.651481    33A     -0.616861
      34A     -0.582927    35A     -0.576728    36A     -0.568974
      37A     -0.427099    38A     -0.415300

    Virtual:

      39A     -0.047008    40A      0.008364    41A      0.015045
      42A      0.028651    43A      0.045497    44A      0.053286
      45A      0.077235    46A      0.085979    47A      0.101738
      48A      0.112201    49A      0.124758    50A      0.131387
      51A      0.142048    52A      0.152406    53A      0.162373
      54A      0.173692    55A      0.187372    56A      0.200453
      57A      0.216173    58A      0.238811    59A      0.282788
      60A      0.299738    61A      0.360810    62A      0.374767
      63A      0.387946    64A      0.396307    65A      0.404830
      66A      0.407662    67A      0.419292    68A      0.447064
      69A      0.450714    70A      0.480857    71A      0.513813
      72A      0.555767    73A      0.589137    74A      0.600107
      75A      0.605426    76A      0.613697    77A      0.616413
      78A      0.626686    79A      0.636197    80A      0.642001
      81A      0.655808    82A      0.662983    83A      0.665953
      84A      0.675128    85A      0.681143    86A      0.692724
      87A      0.696138    88A      0.703314    89A      0.706493
      90A      0.713368    91A      0.744390    92A      0.753312
      93A      0.762322    94A      0.770429    95A      0.783557
      96A      0.795658    97A      0.806884    98A      0.809368
      99A      0.814633   100A      0.821217   101A      0.833868
     102A      0.848144   103A      0.862748   104A      0.869680
     105A      0.876397   106A      0.905328   107A      0.930506
     108A      0.935582   109A      0.952866   110A      0.965337
     111A      1.032320   112A      1.039618   113A      1.056169
     114A      1.067976   115A      1.072065   116A      1.096016
     117A      1.144432   118A      1.155536   119A      1.166567
     120A      1.175184   121A      1.191475   122A      1.214735
     123A      1.223883   124A      1.237608   125A      1.244884
     126A      1.250482   127A      1.293616   128A      1.328392
     129A      1.413864   130A      1.425347   131A      1.432373
     132A      1.451319   133A      1.471582   134A      1.503659
     135A      1.511593   136A      1.519124   137A      1.592250
     138A      1.620996   139A      1.624135   140A      1.642546
     141A      1.648936   142A      1.656167   143A      1.666051
     144A      1.678945   145A      1.697469   146A      1.709466
     147A      1.723855   148A      1.733118   149A      1.751144
     150A      1.776218   151A      1.781508   152A      1.801148
     153A      1.805821   154A      1.822921   155A      1.825229
     156A      1.834440   157A      1.835416   158A      1.846324
     159A      1.867059   160A      1.871094   161A      1.881109
     162A      1.899747   163A      1.910541   164A      1.913919
     165A      1.946379   166A      1.960907   167A      1.963513
     168A      1.970288   169A      1.983622   170A      1.994830
     171A      2.005972   172A      2.028232   173A      2.054283
     174A      2.068001   175A      2.072008   176A      2.091838
     177A      2.099881   178A      2.106120   179A      2.116488
     180A      2.149079   181A      2.177146   182A      2.193877
     183A      2.213574   184A      2.219505   185A      2.221471
     186A      2.234021   187A      2.242802   188A      2.318919
     189A      2.322418   190A      2.383677   191A      2.386395
     192A      2.396184   193A      2.406457   194A      2.420738
     195A      2.469995   196A      2.516831   197A      2.547404
     198A      2.556106   199A      2.577269   200A      2.648905
     201A      2.659017   202A      2.673584   203A      2.682013
     204A      2.691324   205A      2.708517   206A      2.728971
     207A      2.761589   208A      2.775645   209A      2.790081
     210A      2.801367   211A      2.872320   212A      2.909506
     213A      2.944371   214A      2.953534   215A      3.065774
     216A      3.088815   217A      3.129335   218A      3.136198
     219A      3.231118   220A      3.922477

    Final Occupation by Irrep:
              A
    DOCC [    38 ]

  @RHF Final Energy:  -404.37278542583590

   => Energetics <=

    Nuclear Repulsion Energy =            488.4537275655680446
    One-Electron Energy =               -1503.0608245011585495
    Two-Electron Energy =                 610.2343115097546615
    Total Energy =                       -404.3727854258359002

Computation Completed

Properties will be evaluated at   0.000000,   0.000000,   0.000000 [a0]

Properties computed using the SCF density matrix

  Nuclear Dipole Moment: [e a0]
     X:     3.9539      Y:    11.5710      Z:    -5.7396

  Electronic Dipole Moment: [e a0]
     X:    -2.1342      Y:    -4.9839      Z:     4.9051

  Dipole Moment: [e a0]
     X:     1.8197      Y:     6.5871      Z:    -0.8345     Total:     6.8846

  Dipole Moment: [D]
     X:     4.6252      Y:    16.7427      Z:    -2.1211     Total:    17.4989

*** tstop() called on ds3 at Mon Apr 27 01:23:00 2020
Module time:
	user time   =      85.42 seconds =       1.42 minutes
	system time =      44.06 seconds =       0.73 minutes
	total time  =        125 seconds =       2.08 minutes
Total time:
	user time   =      85.42 seconds =       1.42 minutes
	system time =      44.06 seconds =       0.73 minutes
	total time  =        125 seconds =       2.08 minutes
                                     G D M A

                                 by Anthony Stone

                           version 2.2.06, 22 June 2011

               Distributed Multipoles from Gaussian wavefunctions

Starting at 1:23:0 on 27 Apr 2020

Using SCF density matrix from file ./SSI/SSI-046PHE-050LYS-1-dimer.test.12438.fchk

                         Distributed Multipole Analysis

Standard DMA

Positions and radii in angstrom
Multipole moments in atomic units, ea_0^k for rank k

C          x =  1.037288  y = -3.408381  z = -0.797919 angstrom
           Maximum rank =  0   Radius =  0.650 angstrom
                   Q00  =  -0.202442

C          x = -0.043712  y = -0.244381  z =  1.005081 angstrom
           Maximum rank =  0   Radius =  0.650 angstrom
                   Q00  =  -0.114031

C          x = -1.296712  y = -0.626381  z =  1.442081 angstrom
           Maximum rank =  0   Radius =  0.650 angstrom
                   Q00  =  -0.046881

C          x =  0.747288  y = -1.139381  z =  0.256081 angstrom
           Maximum rank =  0   Radius =  0.650 angstrom
                   Q00  =  -0.092033

C          x =  0.243288  y = -2.388381  z = -0.042919 angstrom
           Maximum rank =  0   Radius =  0.650 angstrom
                   Q00  =  -0.093875

C          x = -1.769712  y = -1.862381  z =  1.174081 angstrom
           Maximum rank =  0   Radius =  0.650 angstrom
                   Q00  =  -0.057062

C          x = -1.022712  y = -2.728381  z =  0.425081 angstrom
           Maximum rank =  0   Radius =  0.650 angstrom
                   Q00  =   0.008917

H          x =  0.339288  y =  0.735619  z =  1.258081 angstrom
           Maximum rank =  0   Radius =  0.325 angstrom
                   Q00  =   0.016243

H          x = -1.898712  y =  0.061619  z =  2.018081 angstrom
           Maximum rank =  0   Radius =  0.325 angstrom
                   Q00  =   0.057782

H          x =  1.737288  y = -0.850381  z = -0.070919 angstrom
           Maximum rank =  0   Radius =  0.325 angstrom
                   Q00  =   0.053958

H          x = -2.731712  y = -2.171381  z =  1.558081 angstrom
           Maximum rank =  0   Radius =  0.325 angstrom
                   Q00  =   0.076471

H          x =  0.834288  y = -4.393381  z = -0.371919 angstrom
           Maximum rank =  0   Radius =  0.325 angstrom
                   Q00  =   0.111542

H          x =  2.098288  y = -3.205381  z = -0.650919 angstrom
           Maximum rank =  0   Radius =  0.325 angstrom
                   Q00  =   0.099309

H          x = -1.417712  y = -3.708381  z =  0.203081 angstrom
           Maximum rank =  0   Radius =  0.325 angstrom
                   Q00  =   0.070516

H          x =  0.807208  y = -3.432901  z = -1.873308 angstrom
           Maximum rank =  0   Radius =  0.325 angstrom
                   Q00  =   0.111297

C          x =  0.217288  y =  3.083619  z = -0.654919 angstrom
           Maximum rank =  0   Radius =  0.650 angstrom
                   Q00  =  -0.026948

C          x = -0.022712  y =  3.535619  z = -2.008919 angstrom
           Maximum rank =  0   Radius =  0.650 angstrom
                   Q00  =  -0.228008

N          x =  1.333288  y =  4.062619  z = -0.242919 angstrom
           Maximum rank =  0   Radius =  0.650 angstrom
                   Q00  =  -0.120574

H          x = -0.673712  y =  3.200619  z = -0.029919 angstrom
           Maximum rank =  0   Radius =  0.325 angstrom
                   Q00  =   0.137590

H          x =  0.557288  y =  2.041619  z = -0.657919 angstrom
           Maximum rank =  0   Radius =  0.325 angstrom
                   Q00  =   0.141140

H          x =  0.849288  y =  3.308619  z = -2.629919 angstrom
           Maximum rank =  0   Radius =  0.325 angstrom
                   Q00  =   0.093154

H          x = -0.100712  y =  4.627619  z = -1.985919 angstrom
           Maximum rank =  0   Radius =  0.325 angstrom
                   Q00  =   0.065854

H          x =  0.915288  y =  4.957619  z =  0.023081 angstrom
           Maximum rank =  0   Radius =  0.325 angstrom
                   Q00  =   0.263317

H          x =  1.802288  y =  3.734619  z =  0.593081 angstrom
           Maximum rank =  0   Radius =  0.325 angstrom
                   Q00  =   0.245313

H          x =  2.039288  y =  4.203619  z = -0.955919 angstrom
           Maximum rank =  0   Radius =  0.325 angstrom
                   Q00  =   0.270080

H          x = -0.935477  y =  3.245599  z = -2.549983 angstrom
           Maximum rank =  0   Radius =  0.325 angstrom
                   Q00  =   0.159371

Total multipoles referred to origin at
           x =   0.000000,  y =    0.000000,  z =    0.000000 angstrom
                   Q00  =   1.000000

Finished at 1:23:0 on 27 Apr 2020

  DMA results are available in the Python driver through the
	  variable('DMA DISTRIBUTED MULTIPOLES')
  and
	  variable('DMA TOTAL MULTIPOLES')
  commands.

    Psi4 stopped on: Monday, 27 April 2020 01:23AM
    Psi4 wall time for execution: 0:02:05.12

*** Psi4 exiting successfully. Buy a developer a beer!
