                               Psi4 1.3.2 release

  ==> Input File <==

--------------------------------------------------------------------------
import numpy as np
set {scf_type pk
basis cc-pvdz
d_convergence 10
gdma_switch   0
gdma_limit    0
gdma_origin   [ 0.0,  0.0,  0.0 ]
}
molecule test {
    units Angstrom
    0 1
    --
    0 1
    C                2.402462667417201     1.073203537820305    -1.065162863951250
    C                0.784462667417201     1.509203537820305     0.761837136048750
    N               -0.247537332582799     1.100203537820305     1.464837136048750
    N                1.285462667417201     0.736203537820305    -0.183162863951250
    N                1.300462667417201     2.684203537820304     1.030837136048750
    H               -0.752537332582799     0.268203537820305     1.135837136048750
    H               -0.673537332582799     1.705203537820305     2.145837136048750
    H                0.819462667417201    -0.160796462179695    -0.340162863951250
    H                2.100462667417201     3.009203537820305     0.514837136048750
    H                0.907462667417201     3.268203537820304     1.751837136048750
    H                2.420462667417201     2.147203537820305    -1.263162863951249
    H                2.235462667417202     0.591203537820305    -2.028162863951250
    H                3.391492667417201     0.764543537820305    -0.695635863951250
    C               -2.236537332582799    -2.696796462179695    -1.239162863951250
    C               -1.340537332582799    -1.754796462179695    -0.459162863951250
    O               -1.814537332582799    -1.027796462179695     0.450837136048750
    O               -0.135537332582799    -1.701796462179695    -0.770162863951250
    H               -1.688537332582799    -3.617796462179696    -1.453162863951249
    H               -2.444537332582799    -2.267796462179696    -2.205162863951250
    H               -3.211497332582799    -2.941626462179696    -0.792489863951250

}
e, wfn = energy('scf', return_wfn=True)
gdma(wfn)
dmavals = variable('DMA DISTRIBUTED MULTIPOLES')
charges = np.array(dmavals)
print(charges)
np.save('SSI-146ARG-207GLU-1-dimer.npy', np.array(charges))--------------------------------------------------------------------------

*** tstart() called on ds3
*** at Mon Apr 27 16:30:44 2020

   => Loading Basis Set <=

    Name: CC-PVDZ
    Role: ORBITAL
    Keyword: BASIS
    atoms 1-2, 14-15  entry C          line   138 file /theoryfs2/ds/metcalf/miniconda2/envs/tf2gpu/share/psi4/basis/cc-pvdz.gbs
    atoms 3-5         entry N          line   168 file /theoryfs2/ds/metcalf/miniconda2/envs/tf2gpu/share/psi4/basis/cc-pvdz.gbs
    atoms 6-13, 18-20 entry H          line    22 file /theoryfs2/ds/metcalf/miniconda2/envs/tf2gpu/share/psi4/basis/cc-pvdz.gbs
    atoms 16-17       entry O          line   198 file /theoryfs2/ds/metcalf/miniconda2/envs/tf2gpu/share/psi4/basis/cc-pvdz.gbs

         ---------------------------------------------------------
                                   SCF
               by Justin Turney, Rob Parrish, Andy Simmonett
                          and Daniel G. A. Smith
                              RHF Reference
                        1 Threads,    500 MiB Core
         ---------------------------------------------------------

  ==> Geometry <==

    Molecular point group: c1
    Full point group: C1

    Geometry (in Angstrom), charge = 0, multiplicity = 1:

       Center              X                  Y                   Z               Mass
    ------------   -----------------  -----------------  -----------------  -----------------
         C            2.402462667417     1.073203537820    -1.065162863951    12.000000000000
         C            0.784462667417     1.509203537820     0.761837136049    12.000000000000
         N           -0.247537332583     1.100203537820     1.464837136049    14.003074004430
         N            1.285462667417     0.736203537820    -0.183162863951    14.003074004430
         N            1.300462667417     2.684203537820     1.030837136049    14.003074004430
         H           -0.752537332583     0.268203537820     1.135837136049     1.007825032230
         H           -0.673537332583     1.705203537820     2.145837136049     1.007825032230
         H            0.819462667417    -0.160796462180    -0.340162863951     1.007825032230
         H            2.100462667417     3.009203537820     0.514837136049     1.007825032230
         H            0.907462667417     3.268203537820     1.751837136049     1.007825032230
         H            2.420462667417     2.147203537820    -1.263162863951     1.007825032230
         H            2.235462667417     0.591203537820    -2.028162863951     1.007825032230
         H            3.391492667417     0.764543537820    -0.695635863951     1.007825032230
         C           -2.236537332583    -2.696796462180    -1.239162863951    12.000000000000
         C           -1.340537332583    -1.754796462180    -0.459162863951    12.000000000000
         O           -1.814537332583    -1.027796462180     0.450837136049    15.994914619570
         O           -0.135537332583    -1.701796462180    -0.770162863951    15.994914619570
         H           -1.688537332583    -3.617796462180    -1.453162863951     1.007825032230
         H           -2.444537332583    -2.267796462180    -2.205162863951     1.007825032230
         H           -3.211497332583    -2.941626462180    -0.792489863951     1.007825032230

  Running in c1 symmetry.

  Rotational constants: A =      0.09688  B =      0.02493  C =      0.02030 [cm^-1]
  Rotational constants: A =   2904.45970  B =    747.28675  C =    608.65920 [MHz]
  Nuclear repulsion =  465.568846435747389

  Charge       = 0
  Multiplicity = 1
  Electrons    = 72
  Nalpha       = 36
  Nbeta        = 36

  ==> Algorithm <==

  SCF Algorithm Type is PK.
  DIIS enabled.
  MOM disabled.
  Fractional occupation disabled.
  Guess Type is SAD.
  Energy threshold   = 1.00e-06
  Density threshold  = 1.00e-10
  Integral threshold = 0.00e+00

  ==> Primary Basis <==

  Basis Set: CC-PVDZ
    Blend: CC-PVDZ
    Number of shells: 87
    Number of basis function: 181
    Number of Cartesian functions: 190
    Spherical Harmonics?: true
    Max angular momentum: 2

  ==> Pre-Iterations <==

   -------------------------------------------------------
    Irrep   Nso     Nmo     Nalpha   Nbeta   Ndocc  Nsocc
   -------------------------------------------------------
     A        181     181       0       0       0       0
   -------------------------------------------------------
    Total     181     181      36      36      36       0
   -------------------------------------------------------

  ==> Integral Setup <==

  Using integral reordering PK algorithm.
  Sizing the integral batches needed.
  Building batch lookup table.
   Calculation information:
      Number of atoms:                  20
      Number of AO shells:              87
      Number of primitives:            253
      Number of atomic orbitals:       190
      Number of basis functions:       181

      Integral cutoff                 1.00e-12
      Number of threads:                 1

	Batch   1 pq = [       0,    9405] index = [             0,44231715] size =     44231715
	Batch   2 pq = [    9405,   13301] index = [      44231715,88464951] size =     44233236
	Batch   3 pq = [   13301,   16471] index = [      88464951,135655156] size =     47190205
  Task number: 13
  Buffer size: 11059200
  Buffer per thread: 2
  We computed 6114035 shell quartets total.
  Whereas there are 7328706 unique shell quartets.

  ==> DiskJK: Disk-Based J/K Matrices <==

    J tasked:                  Yes
    K tasked:                  Yes
    wK tasked:                  No
    Memory [MiB]:              375
    Schwarz Cutoff:          1E-12

    OpenMP threads:              1

  Minimum eigenvalue in the overlap matrix is 3.7596089854E-03.
  Using Symmetric Orthogonalization.

  SCF Guess: Superposition of Atomic Densities via on-the-fly atomic UHF.

  ==> Iterations <==

                        Total Energy        Delta E     RMS |[F,P]|

   @RHF iter SAD:  -469.80228704040729   -4.69802e+02   0.00000e+00
   @RHF iter   1:  -470.73180132219710   -9.29514e-01   4.17294e-03 DIIS
   @RHF iter   2:  -470.95130281086330   -2.19501e-01   2.13901e-03 DIIS
   @RHF iter   3:  -471.00588029469191   -5.45775e-02   3.88244e-04 DIIS
   @RHF iter   4:  -471.00898165219240   -3.10136e-03   1.29045e-04 DIIS
   @RHF iter   5:  -471.00932878586406   -3.47134e-04   2.29264e-05 DIIS
   @RHF iter   6:  -471.00934472310070   -1.59372e-05   7.07278e-06 DIIS
   @RHF iter   7:  -471.00934593975609   -1.21666e-06   2.03890e-06 DIIS
   @RHF iter   8:  -471.00934607563516   -1.35879e-07   7.88337e-07 DIIS
   @RHF iter   9:  -471.00934608975194   -1.41168e-08   2.93340e-07 DIIS
   @RHF iter  10:  -471.00934609167456   -1.92261e-09   6.84944e-08 DIIS
   @RHF iter  11:  -471.00934609190125   -2.26692e-10   2.31357e-08 DIIS
   @RHF iter  12:  -471.00934609192950   -2.82512e-11   1.01980e-08 DIIS
   @RHF iter  13:  -471.00934609193376   -4.26326e-12   3.61765e-09 DIIS
   @RHF iter  14:  -471.00934609193587   -2.10321e-12   9.52506e-10 DIIS
   @RHF iter  15:  -471.00934609193575    1.13687e-13   3.48132e-10 DIIS
   @RHF iter  16:  -471.00934609193615   -3.97904e-13   1.12028e-10 DIIS
   @RHF iter  17:  -471.00934609193604    1.13687e-13   4.75019e-11 DIIS
  Energy and wave function converged.

  ==> Post-Iterations <==

    Orbital Energies [Eh]
    ---------------------

    Doubly Occupied:

       1A    -20.429067     2A    -20.427836     3A    -15.644522
       4A    -15.607811     5A    -15.599202     6A    -11.421144
       7A    -11.303256     8A    -11.277292     9A    -11.175085
      10A     -1.386364    11A     -1.320608    12A     -1.243462
      13A     -1.223868    14A     -1.201774    15A     -0.992106
      16A     -0.930120    17A     -0.879968    18A     -0.817518
      19A     -0.778267    20A     -0.707020    21A     -0.690502
      22A     -0.668610    23A     -0.649981    24A     -0.635699
      25A     -0.598801    26A     -0.578741    27A     -0.565420
      28A     -0.551141    29A     -0.542356    30A     -0.486083
      31A     -0.463337    32A     -0.454141    33A     -0.416417
      34A     -0.351963    35A     -0.339135    36A     -0.332967

    Virtual:

      37A      0.126909    38A      0.158831    39A      0.186554
      40A      0.210724    41A      0.215805    42A      0.239966
      43A      0.248481    44A      0.256707    45A      0.273637
      46A      0.300837    47A      0.308144    48A      0.346368
      49A      0.367754    50A      0.410174    51A      0.435484
      52A      0.451395    53A      0.487110    54A      0.498397
      55A      0.574365    56A      0.590655    57A      0.603386
      58A      0.613236    59A      0.670721    60A      0.680426
      61A      0.682800    62A      0.690244    63A      0.703171
      64A      0.721861    65A      0.733368    66A      0.784455
      67A      0.794196    68A      0.819028    69A      0.821717
      70A      0.837980    71A      0.842034    72A      0.857582
      73A      0.900662    74A      0.904621    75A      0.912320
      76A      0.919117    77A      0.924202    78A      0.945499
      79A      0.957356    80A      0.972614    81A      0.990006
      82A      0.990817    83A      1.056292    84A      1.066138
      85A      1.081485    86A      1.097556    87A      1.121937
      88A      1.161113    89A      1.198887    90A      1.219651
      91A      1.256695    92A      1.272384    93A      1.290577
      94A      1.304339    95A      1.338450    96A      1.342865
      97A      1.363562    98A      1.390550    99A      1.410423
     100A      1.428254   101A      1.449523   102A      1.490248
     103A      1.504526   104A      1.557277   105A      1.569404
     106A      1.588984   107A      1.613515   108A      1.641520
     109A      1.665084   110A      1.680074   111A      1.706330
     112A      1.712445   113A      1.737372   114A      1.747337
     115A      1.811441   116A      1.816705   117A      1.861049
     118A      1.882981   119A      1.887997   120A      1.899957
     121A      1.919425   122A      1.932444   123A      1.948784
     124A      1.957049   125A      1.963807   126A      1.991638
     127A      1.993981   128A      2.009948   129A      2.020894
     130A      2.070491   131A      2.074499   132A      2.124887
     133A      2.157758   134A      2.174385   135A      2.204164
     136A      2.247445   137A      2.261062   138A      2.293944
     139A      2.304266   140A      2.324330   141A      2.340603
     142A      2.413967   143A      2.414487   144A      2.453664
     145A      2.489320   146A      2.496146   147A      2.516544
     148A      2.550325   149A      2.562983   150A      2.590210
     151A      2.629794   152A      2.648078   153A      2.655669
     154A      2.721856   155A      2.734972   156A      2.753965
     157A      2.798345   158A      2.811766   159A      2.857646
     160A      2.885939   161A      2.892564   162A      2.923766
     163A      2.955268   164A      2.989401   165A      3.003601
     166A      3.051747   167A      3.083785   168A      3.129345
     169A      3.161523   170A      3.180592   171A      3.238188
     172A      3.302755   173A      3.396521   174A      3.482044
     175A      3.624980   176A      3.660841   177A      3.756086
     178A      3.834785   179A      3.914544   180A      3.938213
     181A      4.069556

    Final Occupation by Irrep:
              A
    DOCC [    36 ]

  @RHF Final Energy:  -471.00934609193604

   => Energetics <=

    Nuclear Repulsion Energy =            465.5688464357473890
    One-Electron Energy =               -1567.7732200773571094
    Two-Electron Energy =                 631.1950275496735685
    Total Energy =                       -471.0093460919360950

Computation Completed

Properties will be evaluated at   0.000000,   0.000000,   0.000000 [a0]

Properties computed using the SCF density matrix

  Nuclear Dipole Moment: [e a0]
     X:     2.8939      Y:     2.5666      Z:    -3.0359

  Electronic Dipole Moment: [e a0]
     X:    -0.6943      Y:     1.2428      Z:     3.7460

  Dipole Moment: [e a0]
     X:     2.1996      Y:     3.8094      Z:     0.7101     Total:     4.4558

  Dipole Moment: [D]
     X:     5.5909      Y:     9.6824      Z:     1.8050     Total:    11.3254

*** tstop() called on ds3 at Mon Apr 27 16:31:57 2020
Module time:
	user time   =      51.34 seconds =       0.86 minutes
	system time =      25.90 seconds =       0.43 minutes
	total time  =         73 seconds =       1.22 minutes
Total time:
	user time   =      51.34 seconds =       0.86 minutes
	system time =      25.90 seconds =       0.43 minutes
	total time  =         73 seconds =       1.22 minutes
                                     G D M A

                                 by Anthony Stone

                           version 2.2.06, 22 June 2011

               Distributed Multipoles from Gaussian wavefunctions

Starting at 16:31:57 on 27 Apr 2020

Using SCF density matrix from file ./SSI/SSI-146ARG-207GLU-1-dimer.test.27042.fchk

                         Distributed Multipole Analysis

Standard DMA

Positions and radii in angstrom
Multipole moments in atomic units, ea_0^k for rank k

C          x =  2.402463  y =  1.073204  z = -1.065163 angstrom
           Maximum rank =  0   Radius =  0.650 angstrom
                   Q00  =  -0.098630

C          x =  0.784463  y =  1.509204  z =  0.761837 angstrom
           Maximum rank =  0   Radius =  0.650 angstrom
                   Q00  =   1.067570

N          x = -0.247537  y =  1.100204  z =  1.464837 angstrom
           Maximum rank =  0   Radius =  0.650 angstrom
                   Q00  =  -0.611704

N          x =  1.285463  y =  0.736204  z = -0.183163 angstrom
           Maximum rank =  0   Radius =  0.650 angstrom
                   Q00  =  -0.511895

N          x =  1.300463  y =  2.684204  z =  1.030837 angstrom
           Maximum rank =  0   Radius =  0.650 angstrom
                   Q00  =  -0.583360

H          x = -0.752537  y =  0.268204  z =  1.135837 angstrom
           Maximum rank =  0   Radius =  0.325 angstrom
                   Q00  =   0.353593

H          x = -0.673537  y =  1.705204  z =  2.145837 angstrom
           Maximum rank =  0   Radius =  0.325 angstrom
                   Q00  =   0.219495

H          x =  0.819463  y = -0.160796  z = -0.340163 angstrom
           Maximum rank =  0   Radius =  0.325 angstrom
                   Q00  =   0.323377

H          x =  2.100463  y =  3.009204  z =  0.514837 angstrom
           Maximum rank =  0   Radius =  0.325 angstrom
                   Q00  =   0.237311

H          x =  0.907463  y =  3.268204  z =  1.751837 angstrom
           Maximum rank =  0   Radius =  0.325 angstrom
                   Q00  =   0.239533

H          x =  2.420463  y =  2.147204  z = -1.263163 angstrom
           Maximum rank =  0   Radius =  0.325 angstrom
                   Q00  =   0.073550

H          x =  2.235463  y =  0.591204  z = -2.028163 angstrom
           Maximum rank =  0   Radius =  0.325 angstrom
                   Q00  =   0.147299

H          x =  3.391493  y =  0.764544  z = -0.695636 angstrom
           Maximum rank =  0   Radius =  0.325 angstrom
                   Q00  =   0.102689

C          x = -2.236537  y = -2.696796  z = -1.239163 angstrom
           Maximum rank =  0   Radius =  0.650 angstrom
                   Q00  =  -0.258988

C          x = -1.340537  y = -1.754796  z = -0.459163 angstrom
           Maximum rank =  0   Radius =  0.650 angstrom
                   Q00  =   0.882202

O          x = -1.814537  y = -1.027796  z =  0.450837 angstrom
           Maximum rank =  0   Radius =  0.650 angstrom
                   Q00  =  -0.936061

O          x = -0.135537  y = -1.701796  z = -0.770163 angstrom
           Maximum rank =  0   Radius =  0.650 angstrom
                   Q00  =  -0.925605

H          x = -1.688537  y = -3.617796  z = -1.453163 angstrom
           Maximum rank =  0   Radius =  0.325 angstrom
                   Q00  =   0.091346

H          x = -2.444537  y = -2.267796  z = -2.205163 angstrom
           Maximum rank =  0   Radius =  0.325 angstrom
                   Q00  =   0.103309

H          x = -3.211497  y = -2.941626  z = -0.792490 angstrom
           Maximum rank =  0   Radius =  0.325 angstrom
                   Q00  =   0.084969

Total multipoles referred to origin at
           x =   0.000000,  y =    0.000000,  z =    0.000000 angstrom
                   Q00  =  -0.000000

Finished at 16:31:58 on 27 Apr 2020

  DMA results are available in the Python driver through the
	  variable('DMA DISTRIBUTED MULTIPOLES')
  and
	  variable('DMA TOTAL MULTIPOLES')
  commands.

    Psi4 stopped on: Monday, 27 April 2020 04:31PM
    Psi4 wall time for execution: 0:01:13.90

*** Psi4 exiting successfully. Buy a developer a beer!
