                               Psi4 1.3.2 release

  ==> Input File <==

--------------------------------------------------------------------------
import numpy as np
set {scf_type pk
basis cc-pvdz
d_convergence 10
gdma_switch   0
gdma_limit    0
gdma_origin   [ 0.0,  0.0,  0.0 ]
}
molecule test {
    units Angstrom
    0 1
    --
    0 1
    C                1.628928558272600     1.049208742771682     1.156280260949026
    C                2.690928558272600     1.498208742771682     2.156280260949026
    H                1.664928558272600    -0.030791257228318     1.024280260949026
    H                0.640928558272600     1.333208742771682     1.518280260949026
    H                1.793928558272600     1.541208742771682     0.199280260949026
    H                2.646928558272600     2.585208742771682     2.228280260949026
    H                3.691631458272600     1.202868742771682     1.807900260949026
    H                2.474883558272600     1.087718742771682     3.153690260949026
    C               -1.072071441727400    -0.654791257228318    -0.792719739050974
    C               -0.798071441727400    -1.748791257228318    -1.829719739050974
    C               -2.523071441727400    -0.202791257228318    -0.742719739050974
    H               -0.736071441727400    -0.979791257228318     0.179280260949026
    H               -0.478071441727400     0.223208742771682    -1.035719739050974
    H               -1.154071441727400    -1.398791257228318    -2.797719739050974
    H               -3.182071441727400    -0.995791257228318    -0.391719739050974
    H               -2.612071441727400     0.631208742771682    -0.051719739050974
    H               -2.817071441727400     0.127208742771682    -1.735719739050974
    H                0.281625558272600    -1.951411257228318    -1.886279739050974
    H               -1.341974441727400    -2.673281257228318    -1.585829739050974

}
e, wfn = energy('scf', return_wfn=True)
gdma(wfn)
dmavals = variable('DMA DISTRIBUTED MULTIPOLES')
charges = np.array(dmavals)
print(charges)
np.save('SSI-022LEU-062ILE-1-dimer.npy', np.array(charges))--------------------------------------------------------------------------

*** tstart() called on ds3
*** at Mon Apr 27 21:40:45 2020

   => Loading Basis Set <=

    Name: CC-PVDZ
    Role: ORBITAL
    Keyword: BASIS
    atoms 1-2, 9-11  entry C          line   138 file /theoryfs2/ds/metcalf/miniconda2/envs/tf2gpu/share/psi4/basis/cc-pvdz.gbs
    atoms 3-8, 12-19 entry H          line    22 file /theoryfs2/ds/metcalf/miniconda2/envs/tf2gpu/share/psi4/basis/cc-pvdz.gbs

         ---------------------------------------------------------
                                   SCF
               by Justin Turney, Rob Parrish, Andy Simmonett
                          and Daniel G. A. Smith
                              RHF Reference
                        1 Threads,    500 MiB Core
         ---------------------------------------------------------

  ==> Geometry <==

    Molecular point group: c1
    Full point group: C1

    Geometry (in Angstrom), charge = 0, multiplicity = 1:

       Center              X                  Y                   Z               Mass
    ------------   -----------------  -----------------  -----------------  -----------------
         C            1.628928558273     1.049208742772     1.156280260949    12.000000000000
         C            2.690928558273     1.498208742772     2.156280260949    12.000000000000
         H            1.664928558273    -0.030791257228     1.024280260949     1.007825032230
         H            0.640928558273     1.333208742772     1.518280260949     1.007825032230
         H            1.793928558273     1.541208742772     0.199280260949     1.007825032230
         H            2.646928558273     2.585208742772     2.228280260949     1.007825032230
         H            3.691631458273     1.202868742772     1.807900260949     1.007825032230
         H            2.474883558273     1.087718742772     3.153690260949     1.007825032230
         C           -1.072071441727    -0.654791257228    -0.792719739051    12.000000000000
         C           -0.798071441727    -1.748791257228    -1.829719739051    12.000000000000
         C           -2.523071441727    -0.202791257228    -0.742719739051    12.000000000000
         H           -0.736071441727    -0.979791257228     0.179280260949     1.007825032230
         H           -0.478071441727     0.223208742772    -1.035719739051     1.007825032230
         H           -1.154071441727    -1.398791257228    -2.797719739051     1.007825032230
         H           -3.182071441727    -0.995791257228    -0.391719739051     1.007825032230
         H           -2.612071441727     0.631208742772    -0.051719739051     1.007825032230
         H           -2.817071441727     0.127208742772    -1.735719739051     1.007825032230
         H            0.281625558273    -1.951411257228    -1.886279739051     1.007825032230
         H           -1.341974441727    -2.673281257228    -1.585829739051     1.007825032230

  Running in c1 symmetry.

  Rotational constants: A =      0.25107  B =      0.03385  C =      0.03074 [cm^-1]
  Rotational constants: A =   7526.87326  B =   1014.71330  C =    921.51917 [MHz]
  Nuclear repulsion =  174.503348896755256

  Charge       = 0
  Multiplicity = 1
  Electrons    = 44
  Nalpha       = 22
  Nbeta        = 22

  ==> Algorithm <==

  SCF Algorithm Type is PK.
  DIIS enabled.
  MOM disabled.
  Fractional occupation disabled.
  Guess Type is SAD.
  Energy threshold   = 1.00e-06
  Density threshold  = 1.00e-10
  Integral threshold = 0.00e+00

  ==> Primary Basis <==

  Basis Set: CC-PVDZ
    Blend: CC-PVDZ
    Number of shells: 72
    Number of basis function: 140
    Number of Cartesian functions: 145
    Spherical Harmonics?: true
    Max angular momentum: 2

  ==> Pre-Iterations <==

   -------------------------------------------------------
    Irrep   Nso     Nmo     Nalpha   Nbeta   Ndocc  Nsocc
   -------------------------------------------------------
     A        140     140       0       0       0       0
   -------------------------------------------------------
    Total     140     140      22      22      22       0
   -------------------------------------------------------

  ==> Integral Setup <==

  Using integral reordering PK algorithm.
  Sizing the integral batches needed.
  Building batch lookup table.
   Calculation information:
      Number of atoms:                  19
      Number of AO shells:              72
      Number of primitives:            180
      Number of atomic orbitals:       145
      Number of basis functions:       140

      Integral cutoff                 1.00e-12
      Number of threads:                 1

	Batch   1 pq = [       0,    9405] index = [             0,44231715] size =     44231715
	Batch   2 pq = [    9405,    9870] index = [      44231715,48713385] size =      4481670
  Task number: 5
  Buffer size: 11059200
  Buffer per thread: 2
  We computed 2683093 shell quartets total.
  Whereas there are 3454506 unique shell quartets.

  ==> DiskJK: Disk-Based J/K Matrices <==

    J tasked:                  Yes
    K tasked:                  Yes
    wK tasked:                  No
    Memory [MiB]:              375
    Schwarz Cutoff:          1E-12

    OpenMP threads:              1

  Minimum eigenvalue in the overlap matrix is 5.3570537882E-03.
  Using Symmetric Orthogonalization.

  SCF Guess: Superposition of Atomic Densities via on-the-fly atomic UHF.

  ==> Iterations <==

                        Total Energy        Delta E     RMS |[F,P]|

   @RHF iter SAD:  -196.37569452470944   -1.96376e+02   0.00000e+00
   @RHF iter   1:  -197.31194183377588   -9.36247e-01   3.81926e-03 DIIS
   @RHF iter   2:  -197.47287154385884   -1.60930e-01   1.64763e-03 DIIS
   @RHF iter   3:  -197.50148793589292   -2.86164e-02   3.26448e-04 DIIS
   @RHF iter   4:  -197.50371879922352   -2.23086e-03   4.87981e-05 DIIS
   @RHF iter   5:  -197.50375821070267   -3.94115e-05   1.46686e-05 DIIS
   @RHF iter   6:  -197.50376150744555   -3.29674e-06   2.51424e-06 DIIS
   @RHF iter   7:  -197.50376161826986   -1.10824e-07   4.67830e-07 DIIS
   @RHF iter   8:  -197.50376162291445   -4.64459e-09   1.21952e-07 DIIS
   @RHF iter   9:  -197.50376162321351   -2.99053e-10   3.91360e-08 DIIS
   @RHF iter  10:  -197.50376162324881   -3.52998e-11   8.21495e-09 DIIS
   @RHF iter  11:  -197.50376162325077   -1.96110e-12   1.46556e-09 DIIS
   @RHF iter  12:  -197.50376162325074    2.84217e-14   2.50678e-10 DIIS
   @RHF iter  13:  -197.50376162325099   -2.55795e-13   4.57721e-11 DIIS
  Energy and wave function converged.

  ==> Post-Iterations <==

    Orbital Energies [Eh]
    ---------------------

    Doubly Occupied:

       1A    -11.219129     2A    -11.216680     3A    -11.216348
       4A    -11.215295     5A    -11.212988     6A     -1.053423
       7A     -1.019273     8A     -0.924916     9A     -0.836437
      10A     -0.796849    11A     -0.625066    12A     -0.599437
      13A     -0.598507    14A     -0.594838    15A     -0.549373
      16A     -0.532072    17A     -0.500727    18A     -0.487201
      19A     -0.485574    20A     -0.471789    21A     -0.468470
      22A     -0.464725

    Virtual:

      23A      0.171831    24A      0.193028    25A      0.215402
      26A      0.218238    27A      0.228026    28A      0.252554
      29A      0.260100    30A      0.265180    31A      0.277395
      32A      0.281229    33A      0.299358    34A      0.307295
      35A      0.311168    36A      0.320367    37A      0.367544
      38A      0.404252    39A      0.430444    40A      0.567935
      41A      0.581837    42A      0.598687    43A      0.599087
      44A      0.608289    45A      0.615272    46A      0.624649
      47A      0.680288    48A      0.690911    49A      0.739010
      50A      0.795214    51A      0.804127    52A      0.840236
      53A      0.876877    54A      0.886790    55A      0.890376
      56A      0.894296    57A      0.896692    58A      0.899830
      59A      0.900862    60A      0.906963    61A      0.915116
      62A      0.919011    63A      0.922170    64A      0.933537
      65A      0.944737    66A      0.969152    67A      0.974396
      68A      1.005971    69A      1.124132    70A      1.128548
      71A      1.133861    72A      1.147594    73A      1.205995
      74A      1.240711    75A      1.384001    76A      1.464525
      77A      1.473768    78A      1.481251    79A      1.485271
      80A      1.536137    81A      1.580811    82A      1.629627
      83A      1.677726    84A      1.679937    85A      1.692026
      86A      1.693337    87A      1.701842    88A      1.855257
      89A      1.859125    90A      1.875666    91A      1.878011
      92A      1.886734    93A      1.904901    94A      1.917259
      95A      1.929650    96A      1.940633    97A      1.947933
      98A      1.954473    99A      1.956755   100A      1.961947
     101A      1.977691   102A      1.983025   103A      1.994628
     104A      2.000577   105A      2.010212   106A      2.039123
     107A      2.063601   108A      2.099934   109A      2.116039
     110A      2.135126   111A      2.149506   112A      2.290603
     113A      2.297999   114A      2.306562   115A      2.333703
     116A      2.343187   117A      2.350409   118A      2.454043
     119A      2.466315   120A      2.510663   121A      2.537552
     122A      2.561674   123A      2.573444   124A      2.594634
     125A      2.618612   126A      2.631521   127A      2.753609
     128A      2.760762   129A      2.775220   130A      2.789917
     131A      2.792461   132A      2.823118   133A      2.847230
     134A      2.852705   135A      2.930999   136A      2.948560
     137A      2.957964   138A      2.971118   139A      2.981141
     140A      3.084533

    Final Occupation by Irrep:
              A
    DOCC [    22 ]

  @RHF Final Energy:  -197.50376162325099

   => Energetics <=

    Nuclear Repulsion Energy =            174.5033488967552557
    One-Electron Energy =                -609.8359847607150641
    Two-Electron Energy =                 237.8288742407088137
    Total Energy =                       -197.5037616232509947

Computation Completed

Properties will be evaluated at   0.000000,   0.000000,   0.000000 [a0]

Properties computed using the SCF density matrix

  Nuclear Dipole Moment: [e a0]
     X:     0.8188      Y:     0.6581      Z:     0.5871

  Electronic Dipole Moment: [e a0]
     X:    -0.7979      Y:    -0.6191      Z:    -0.5646

  Dipole Moment: [e a0]
     X:     0.0210      Y:     0.0390      Z:     0.0225     Total:     0.0497

  Dipole Moment: [D]
     X:     0.0533      Y:     0.0992      Z:     0.0573     Total:     0.1264

*** tstop() called on ds3 at Mon Apr 27 21:41:05 2020
Module time:
	user time   =      14.10 seconds =       0.23 minutes
	system time =       6.44 seconds =       0.11 minutes
	total time  =         20 seconds =       0.33 minutes
Total time:
	user time   =      14.10 seconds =       0.23 minutes
	system time =       6.44 seconds =       0.11 minutes
	total time  =         20 seconds =       0.33 minutes
                                     G D M A

                                 by Anthony Stone

                           version 2.2.06, 22 June 2011

               Distributed Multipoles from Gaussian wavefunctions

Starting at 21:41:5 on 27 Apr 2020

Using SCF density matrix from file ./SSI/SSI-022LEU-062ILE-1-dimer.test.4403.fchk

                         Distributed Multipole Analysis

Standard DMA

Positions and radii in angstrom
Multipole moments in atomic units, ea_0^k for rank k

C          x =  1.628929  y =  1.049209  z =  1.156280 angstrom
           Maximum rank =  0   Radius =  0.650 angstrom
                   Q00  =  -0.237419

C          x =  2.690929  y =  1.498209  z =  2.156280 angstrom
           Maximum rank =  0   Radius =  0.650 angstrom
                   Q00  =  -0.234131

H          x =  1.664929  y = -0.030791  z =  1.024280 angstrom
           Maximum rank =  0   Radius =  0.325 angstrom
                   Q00  =   0.079311

H          x =  0.640929  y =  1.333209  z =  1.518280 angstrom
           Maximum rank =  0   Radius =  0.325 angstrom
                   Q00  =   0.077537

H          x =  1.793929  y =  1.541209  z =  0.199280 angstrom
           Maximum rank =  0   Radius =  0.325 angstrom
                   Q00  =   0.078169

H          x =  2.646929  y =  2.585209  z =  2.228280 angstrom
           Maximum rank =  0   Radius =  0.325 angstrom
                   Q00  =   0.077390

H          x =  3.691631  y =  1.202869  z =  1.807900 angstrom
           Maximum rank =  0   Radius =  0.325 angstrom
                   Q00  =   0.080233

H          x =  2.474884  y =  1.087719  z =  3.153690 angstrom
           Maximum rank =  0   Radius =  0.325 angstrom
                   Q00  =   0.079497

C          x = -1.072071  y = -0.654791  z = -0.792720 angstrom
           Maximum rank =  0   Radius =  0.650 angstrom
                   Q00  =  -0.092075

C          x = -0.798071  y = -1.748791  z = -1.829720 angstrom
           Maximum rank =  0   Radius =  0.650 angstrom
                   Q00  =  -0.234553

C          x = -2.523071  y = -0.202791  z = -0.742720 angstrom
           Maximum rank =  0   Radius =  0.650 angstrom
                   Q00  =  -0.240137

H          x = -0.736071  y = -0.979791  z =  0.179280 angstrom
           Maximum rank =  0   Radius =  0.325 angstrom
                   Q00  =   0.050137

H          x = -0.478071  y =  0.223209  z = -1.035720 angstrom
           Maximum rank =  0   Radius =  0.325 angstrom
                   Q00  =   0.044445

H          x = -1.154071  y = -1.398791  z = -2.797720 angstrom
           Maximum rank =  0   Radius =  0.325 angstrom
                   Q00  =   0.075236

H          x = -3.182071  y = -0.995791  z = -0.391720 angstrom
           Maximum rank =  0   Radius =  0.325 angstrom
                   Q00  =   0.077422

H          x = -2.612071  y =  0.631209  z = -0.051720 angstrom
           Maximum rank =  0   Radius =  0.325 angstrom
                   Q00  =   0.082314

H          x = -2.817071  y =  0.127209  z = -1.735720 angstrom
           Maximum rank =  0   Radius =  0.325 angstrom
                   Q00  =   0.075930

H          x =  0.281626  y = -1.951411  z = -1.886280 angstrom
           Maximum rank =  0   Radius =  0.325 angstrom
                   Q00  =   0.084388

H          x = -1.341974  y = -2.673281  z = -1.585830 angstrom
           Maximum rank =  0   Radius =  0.325 angstrom
                   Q00  =   0.076305

Total multipoles referred to origin at
           x =   0.000000,  y =    0.000000,  z =    0.000000 angstrom
                   Q00  =  -0.000000

Finished at 21:41:5 on 27 Apr 2020

  DMA results are available in the Python driver through the
	  variable('DMA DISTRIBUTED MULTIPOLES')
  and
	  variable('DMA TOTAL MULTIPOLES')
  commands.

    Psi4 stopped on: Monday, 27 April 2020 09:41PM
    Psi4 wall time for execution: 0:00:20.04

*** Psi4 exiting successfully. Buy a developer a beer!
