                               Psi4 1.3.2 release

  ==> Input File <==

--------------------------------------------------------------------------
import numpy as np
set {scf_type pk
basis cc-pvdz
d_convergence 10
gdma_switch   0
gdma_limit    0
gdma_origin   [ 0.0,  0.0,  0.0 ]
}
molecule test {
    units Angstrom
    1 1
    --
    1 1
    C                0.094413245172991     4.858554445239377    -0.323930905816563
    C                1.271413245172991     0.726554445239376    -0.967930905816563
    C                0.140413245172991     1.241554445239376    -1.597930905816563
    C                2.019413245172991     1.534554445239376    -0.128930905816563
    C               -0.249586754827009     2.585554445239377    -1.384930905816563
    C                1.632413245172991     2.870554445239376     0.079069094183437
    C                0.494413245172991     3.410554445239376    -0.542930905816563
    O                1.619413245172991    -0.580445554760624    -1.166930905816563
    H               -0.448586754827009     0.613554445239376    -2.251930905816563
    H                1.069413245172991    -1.000445554760624    -1.838930905816563
    H                2.892413245172990     1.126554445239376     0.359069094183437
    H               -1.130586754827009     2.974554445239376    -1.879930905816563
    H                2.219413245172990     3.494554445239376     0.738069094183437
    H                0.510413245172991     5.209554445239377     0.622069094183437
    H               -0.990586754827010     4.904554445239375    -0.250930905816563
    H                0.414971745172991     5.529791445239376    -1.134290905816563
    C               -1.056586754827009    -1.063445554760624     1.306069094183437
    C               -2.142586754827009    -0.109445554760624     1.748069094183437
    C               -0.832586754827009    -3.437445554760624     0.658069094183437
    N               -1.575586754827009    -2.417445554760624     1.069069094183437
    N                0.454413245172991    -3.269445554760623     0.430069094183437
    N               -1.366586754827009    -4.626445554760624     0.464069094183437
    H               -0.619586754827009    -0.674445554760624     0.386069094183437
    H               -0.288586754827009    -1.101445554760624     2.083069094183437
    H               -2.619586754827010    -0.539445554760624     2.629069094183437
    H               -2.888586754827009    -0.017445554760624     0.957069094183437
    H               -2.557586754827009    -2.587445554760623     1.231069094183437
    H                0.869413245172991    -2.360445554760624     0.555069094183437
    H                1.005413245172991    -4.018445554760625     0.044069094183437
    H               -2.351586754827009    -4.769445554760624     0.626069094183437
    H               -0.806586754827009    -5.396445554760623     0.138069094183437
    H               -1.740873754827009     0.886601445239376     1.985803094183437

}
e, wfn = energy('scf', return_wfn=True)
gdma(wfn)
dmavals = variable('DMA DISTRIBUTED MULTIPOLES')
charges = np.array(dmavals)
print(charges)
np.save('SSI-090TYR-095ARG-1-dimer.npy', np.array(charges))--------------------------------------------------------------------------

*** tstart() called on ds3
*** at Tue Apr 28 09:38:30 2020

   => Loading Basis Set <=

    Name: CC-PVDZ
    Role: ORBITAL
    Keyword: BASIS
    atoms 1-7, 17-19  entry C          line   138 file /theoryfs2/ds/metcalf/miniconda2/envs/tf2gpu/share/psi4/basis/cc-pvdz.gbs
    atoms 8           entry O          line   198 file /theoryfs2/ds/metcalf/miniconda2/envs/tf2gpu/share/psi4/basis/cc-pvdz.gbs
    atoms 9-16, 23-32 entry H          line    22 file /theoryfs2/ds/metcalf/miniconda2/envs/tf2gpu/share/psi4/basis/cc-pvdz.gbs
    atoms 20-22       entry N          line   168 file /theoryfs2/ds/metcalf/miniconda2/envs/tf2gpu/share/psi4/basis/cc-pvdz.gbs

         ---------------------------------------------------------
                                   SCF
               by Justin Turney, Rob Parrish, Andy Simmonett
                          and Daniel G. A. Smith
                              RHF Reference
                        1 Threads,    500 MiB Core
         ---------------------------------------------------------

  ==> Geometry <==

    Molecular point group: c1
    Full point group: C1

    Geometry (in Angstrom), charge = 1, multiplicity = 1:

       Center              X                  Y                   Z               Mass
    ------------   -----------------  -----------------  -----------------  -----------------
         C            0.094413245173     4.858554445239    -0.323930905817    12.000000000000
         C            1.271413245173     0.726554445239    -0.967930905817    12.000000000000
         C            0.140413245173     1.241554445239    -1.597930905817    12.000000000000
         C            2.019413245173     1.534554445239    -0.128930905817    12.000000000000
         C           -0.249586754827     2.585554445239    -1.384930905817    12.000000000000
         C            1.632413245173     2.870554445239     0.079069094183    12.000000000000
         C            0.494413245173     3.410554445239    -0.542930905817    12.000000000000
         O            1.619413245173    -0.580445554761    -1.166930905817    15.994914619570
         H           -0.448586754827     0.613554445239    -2.251930905817     1.007825032230
         H            1.069413245173    -1.000445554761    -1.838930905817     1.007825032230
         H            2.892413245173     1.126554445239     0.359069094183     1.007825032230
         H           -1.130586754827     2.974554445239    -1.879930905817     1.007825032230
         H            2.219413245173     3.494554445239     0.738069094183     1.007825032230
         H            0.510413245173     5.209554445239     0.622069094183     1.007825032230
         H           -0.990586754827     4.904554445239    -0.250930905817     1.007825032230
         H            0.414971745173     5.529791445239    -1.134290905817     1.007825032230
         C           -1.056586754827    -1.063445554761     1.306069094183    12.000000000000
         C           -2.142586754827    -0.109445554761     1.748069094183    12.000000000000
         C           -0.832586754827    -3.437445554761     0.658069094183    12.000000000000
         N           -1.575586754827    -2.417445554761     1.069069094183    14.003074004430
         N            0.454413245173    -3.269445554761     0.430069094183    14.003074004430
         N           -1.366586754827    -4.626445554761     0.464069094183    14.003074004430
         H           -0.619586754827    -0.674445554761     0.386069094183     1.007825032230
         H           -0.288586754827    -1.101445554761     2.083069094183     1.007825032230
         H           -2.619586754827    -0.539445554761     2.629069094183     1.007825032230
         H           -2.888586754827    -0.017445554761     0.957069094183     1.007825032230
         H           -2.557586754827    -2.587445554761     1.231069094183     1.007825032230
         H            0.869413245173    -2.360445554761     0.555069094183     1.007825032230
         H            1.005413245173    -4.018445554761     0.044069094183     1.007825032230
         H           -2.351586754827    -4.769445554761     0.626069094183     1.007825032230
         H           -0.806586754827    -5.396445554761     0.138069094183     1.007825032230
         H           -1.740873754827     0.886601445239     1.985803094183     1.007825032230

  Running in c1 symmetry.

  Rotational constants: A =      0.04035  B =      0.00955  C =      0.00849 [cm^-1]
  Rotational constants: A =   1209.61912  B =    286.42363  C =    254.54966 [MHz]
  Nuclear repulsion =  878.072038304799776

  Charge       = 1
  Multiplicity = 1
  Electrons    = 106
  Nalpha       = 53
  Nbeta        = 53

  ==> Algorithm <==

  SCF Algorithm Type is PK.
  DIIS enabled.
  MOM disabled.
  Fractional occupation disabled.
  Guess Type is SAD.
  Energy threshold   = 1.00e-06
  Density threshold  = 1.00e-10
  Integral threshold = 0.00e+00

  ==> Primary Basis <==

  Basis Set: CC-PVDZ
    Blend: CC-PVDZ
    Number of shells: 138
    Number of basis function: 286
    Number of Cartesian functions: 300
    Spherical Harmonics?: true
    Max angular momentum: 2

  ==> Pre-Iterations <==

   -------------------------------------------------------
    Irrep   Nso     Nmo     Nalpha   Nbeta   Ndocc  Nsocc
   -------------------------------------------------------
     A        286     286       0       0       0       0
   -------------------------------------------------------
    Total     286     286      53      53      53       0
   -------------------------------------------------------

  ==> Integral Setup <==

  Using integral reordering PK algorithm.
  Sizing the integral batches needed.
  Building batch lookup table.
   Calculation information:
      Number of atoms:                  32
      Number of AO shells:             138
      Number of primitives:            398
      Number of atomic orbitals:       300
      Number of basis functions:       286

      Integral cutoff                 1.00e-12
      Number of threads:                 1

	Batch   1 pq = [       0,    9405] index = [             0,44231715] size =     44231715
	Batch   2 pq = [    9405,   13301] index = [      44231715,88464951] size =     44233236
	Batch   3 pq = [   13301,   16290] index = [      88464951,132690195] size =     44225244
	Batch   4 pq = [   16290,   18810] index = [     132690195,176917455] size =     44227260
	Batch   5 pq = [   18810,   21030] index = [     176917455,221140965] size =     44223510
	Batch   6 pq = [   21030,   23037] index = [     221140965,265363203] size =     44222238
	Batch   7 pq = [   23037,   24883] index = [     265363203,309594286] size =     44231083
	Batch   8 pq = [   24883,   26601] index = [     309594286,353819901] size =     44225615
	Batch   9 pq = [   26601,   28214] index = [     353819901,398029005] size =     44209104
	Batch  10 pq = [   28214,   29740] index = [     398029005,442248670] size =     44219665
	Batch  11 pq = [   29740,   31191] index = [     442248670,486454836] size =     44206166
	Batch  12 pq = [   31191,   32578] index = [     486454836,530679331] size =     44224495
	Batch  13 pq = [   32578,   33908] index = [     530679331,574893186] size =     44213855
	Batch  14 pq = [   33908,   35188] index = [     574893186,619115266] size =     44222080
	Batch  15 pq = [   35188,   36423] index = [     619115266,663335676] size =     44220410
	Batch  16 pq = [   36423,   37617] index = [     663335676,707538153] size =     44202477
	Batch  17 pq = [   37617,   38775] index = [     707538153,751769700] size =     44231547
	Batch  18 pq = [   38775,   39899] index = [     751769700,795985050] size =     44215350
	Batch  19 pq = [   39899,   41041] index = [     795985050,842202361] size =     46217311
  Task number: 77
  Buffer size: 11059200
  Buffer per thread: 2
  We computed 41541459 shell quartets total.
  Whereas there are 45998436 unique shell quartets.

  ==> DiskJK: Disk-Based J/K Matrices <==

    J tasked:                  Yes
    K tasked:                  Yes
    wK tasked:                  No
    Memory [MiB]:              375
    Schwarz Cutoff:          1E-12

    OpenMP threads:              1

  Minimum eigenvalue in the overlap matrix is 3.2868929214E-04.
  Using Symmetric Orthogonalization.

  SCF Guess: Superposition of Atomic Densities via on-the-fly atomic UHF.

  ==> Iterations <==

                        Total Energy        Delta E     RMS |[F,P]|

   @RHF iter SAD:  -626.40295168564103   -6.26403e+02   0.00000e+00
   @RHF iter   1:  -626.93059513562980   -5.27643e-01   2.53744e-03 DIIS
   @RHF iter   2:  -627.21183215633516   -2.81237e-01   1.02389e-03 DIIS
   @RHF iter   3:  -627.25320892967784   -4.13768e-02   2.59877e-04 DIIS
   @RHF iter   4:  -627.25722235314515   -4.01342e-03   9.58443e-05 DIIS
   @RHF iter   5:  -627.25766353129882   -4.41178e-04   1.97745e-05 DIIS
   @RHF iter   6:  -627.25769287406524   -2.93428e-05   7.14408e-06 DIIS
   @RHF iter   7:  -627.25769603283572   -3.15877e-06   1.79065e-06 DIIS
   @RHF iter   8:  -627.25769637177814   -3.38942e-07   5.99829e-07 DIIS
   @RHF iter   9:  -627.25769639832424   -2.65461e-08   2.05962e-07 DIIS
   @RHF iter  10:  -627.25769640161150   -3.28725e-09   6.54385e-08 DIIS
   @RHF iter  11:  -627.25769640224530   -6.33804e-10   2.85146e-08 DIIS
   @RHF iter  12:  -627.25769640242197   -1.76669e-10   1.52652e-08 DIIS
   @RHF iter  13:  -627.25769640246347   -4.14957e-11   6.81475e-09 DIIS
   @RHF iter  14:  -627.25769640247938   -1.59162e-11   2.04972e-09 DIIS
   @RHF iter  15:  -627.25769640247859    7.95808e-13   7.03711e-10 DIIS
   @RHF iter  16:  -627.25769640248086   -2.27374e-12   2.63609e-10 DIIS
   @RHF iter  17:  -627.25769640248268   -1.81899e-12   1.06416e-10 DIIS
   @RHF iter  18:  -627.25769640247643    6.25278e-12   4.77535e-11 DIIS
  Energy and wave function converged.

  ==> Post-Iterations <==

    Orbital Energies [Eh]
    ---------------------

    Doubly Occupied:

       1A    -20.698577     2A    -15.780195     3A    -15.775173
       4A    -15.772346     5A    -11.578715     6A    -11.421001
       7A    -11.397376     8A    -11.360774     9A    -11.333623
      10A    -11.332341    11A    -11.331679    12A    -11.327064
      13A    -11.326475    14A    -11.306458    15A     -1.536028
      16A     -1.511486    17A     -1.394057    18A     -1.381462
      19A     -1.239752    20A     -1.179727    21A     -1.127945
      22A     -1.105674    23A     -1.044675    24A     -1.013400
      25A     -1.006269    26A     -0.964481    27A     -0.940416
      28A     -0.925124    29A     -0.895427    30A     -0.848417
      31A     -0.845013    32A     -0.831219    33A     -0.822287
      34A     -0.782984    35A     -0.763508    36A     -0.757660
      37A     -0.733992    38A     -0.701848    39A     -0.694920
      40A     -0.680859    41A     -0.675697    42A     -0.665774
      43A     -0.652809    44A     -0.650041    45A     -0.647577
      46A     -0.613567    47A     -0.607491    48A     -0.584489
      49A     -0.577068    50A     -0.570806    51A     -0.560334
      52A     -0.427533    53A     -0.400547

    Virtual:

      54A      0.000549    55A      0.029627    56A      0.035169
      57A      0.039041    58A      0.048898    59A      0.062725
      60A      0.071589    61A      0.077986    62A      0.083758
      63A      0.108990    64A      0.127736    65A      0.130998
      66A      0.139546    67A      0.141916    68A      0.151784
      69A      0.161089    70A      0.180382    71A      0.184185
      72A      0.190479    73A      0.203122    74A      0.207811
      75A      0.215747    76A      0.255523    77A      0.278662
      78A      0.285255    79A      0.292855    80A      0.333459
      81A      0.352926    82A      0.362043    83A      0.365872
      84A      0.391895    85A      0.399579    86A      0.419734
      87A      0.452187    88A      0.465820    89A      0.473286
      90A      0.502565    91A      0.522758    92A      0.532961
      93A      0.544445    94A      0.547882    95A      0.551235
      96A      0.559690    97A      0.566845    98A      0.573976
      99A      0.582313   100A      0.593439   101A      0.610737
     102A      0.615496   103A      0.636842   104A      0.638684
     105A      0.647318   106A      0.663909   107A      0.676462
     108A      0.682477   109A      0.691002   110A      0.711532
     111A      0.721633   112A      0.730242   113A      0.740607
     114A      0.746111   115A      0.751670   116A      0.760859
     117A      0.763592   118A      0.768750   119A      0.779181
     120A      0.787445   121A      0.794250   122A      0.801411
     123A      0.802792   124A      0.808563   125A      0.813027
     126A      0.820708   127A      0.829553   128A      0.839853
     129A      0.850079   130A      0.856268   131A      0.867463
     132A      0.871853   133A      0.882741   134A      0.903018
     135A      0.920729   136A      0.923970   137A      0.945499
     138A      0.958628   139A      0.970990   140A      0.978788
     141A      1.006265   142A      1.031217   143A      1.047781
     144A      1.052981   145A      1.066332   146A      1.082460
     147A      1.111090   148A      1.124877   149A      1.128787
     150A      1.149950   151A      1.152820   152A      1.154876
     153A      1.172604   154A      1.185198   155A      1.195143
     156A      1.204511   157A      1.213309   158A      1.226117
     159A      1.231670   160A      1.249560   161A      1.258854
     162A      1.269140   163A      1.288515   164A      1.314583
     165A      1.350434   166A      1.370201   167A      1.394953
     168A      1.411059   169A      1.430622   170A      1.443987
     171A      1.466027   172A      1.499736   173A      1.523918
     174A      1.527416   175A      1.536718   176A      1.547000
     177A      1.556851   178A      1.563183   179A      1.570389
     180A      1.597053   181A      1.609969   182A      1.622105
     183A      1.633671   184A      1.659159   185A      1.683779
     186A      1.693018   187A      1.705020   188A      1.711275
     189A      1.717593   190A      1.731633   191A      1.733738
     192A      1.747975   193A      1.767500   194A      1.783112
     195A      1.789650   196A      1.799434   197A      1.803793
     198A      1.807016   199A      1.820082   200A      1.827190
     201A      1.829389   202A      1.833968   203A      1.845390
     204A      1.847867   205A      1.860118   206A      1.867916
     207A      1.877786   208A      1.885260   209A      1.898182
     210A      1.911510   211A      1.938222   212A      1.951323
     213A      1.960503   214A      1.962215   215A      1.964567
     216A      1.972900   217A      1.991669   218A      2.019247
     219A      2.027917   220A      2.041774   221A      2.046602
     222A      2.071446   223A      2.075065   224A      2.091830
     225A      2.112314   226A      2.133227   227A      2.134221
     228A      2.166472   229A      2.179353   230A      2.204463
     231A      2.209034   232A      2.237769   233A      2.248031
     234A      2.258804   235A      2.274590   236A      2.285247
     237A      2.309366   238A      2.326088   239A      2.340623
     240A      2.346620   241A      2.364623   242A      2.372945
     243A      2.378671   244A      2.390035   245A      2.393463
     246A      2.427137   247A      2.444760   248A      2.462876
     249A      2.480542   250A      2.510014   251A      2.519100
     252A      2.546155   253A      2.574068   254A      2.636693
     255A      2.644630   256A      2.649954   257A      2.664980
     258A      2.686708   259A      2.690803   260A      2.694144
     261A      2.711500   262A      2.741218   263A      2.761264
     264A      2.780203   265A      2.807674   266A      2.820994
     267A      2.849925   268A      2.864750   269A      2.872666
     270A      2.909002   271A      2.917916   272A      2.934466
     273A      2.979264   274A      3.008213   275A      3.079620
     276A      3.109428   277A      3.141656   278A      3.170987
     279A      3.173678   280A      3.231210   281A      3.475058
     282A      3.557155   283A      3.587582   284A      3.679628
     285A      3.855923   286A      4.073526

    Final Occupation by Irrep:
              A
    DOCC [    53 ]

  @RHF Final Energy:  -627.25769640247643

   => Energetics <=

    Nuclear Repulsion Energy =            878.0720383047997757
    One-Electron Energy =               -2580.4511471279120087
    Two-Electron Energy =                1075.1214124206358065
    Total Energy =                       -627.2576964024765402

Computation Completed

Properties will be evaluated at   0.000000,   0.000000,   0.000000 [a0]

Properties computed using the SCF density matrix

  Nuclear Dipole Moment: [e a0]
     X:    -6.9797      Y:     2.1592      Z:     4.6747

  Electronic Dipole Moment: [e a0]
     X:     4.9962      Y:    -7.2059      Z:    -3.7933

  Dipole Moment: [e a0]
     X:    -1.9835      Y:    -5.0467      Z:     0.8815     Total:     5.4936

  Dipole Moment: [D]
     X:    -5.0416      Y:   -12.8273      Z:     2.2404     Total:    13.9635

*** tstop() called on ds3 at Tue Apr 28 09:50:36 2020
Module time:
	user time   =     343.33 seconds =       5.72 minutes
	system time =     138.52 seconds =       2.31 minutes
	total time  =        726 seconds =      12.10 minutes
Total time:
	user time   =     343.33 seconds =       5.72 minutes
	system time =     138.52 seconds =       2.31 minutes
	total time  =        726 seconds =      12.10 minutes
                                     G D M A

                                 by Anthony Stone

                           version 2.2.06, 22 June 2011

               Distributed Multipoles from Gaussian wavefunctions

Starting at 9:50:36 on 28 Apr 2020

Using SCF density matrix from file ./SSI/SSI-090TYR-095ARG-1-dimer.test.10971.fchk

                         Distributed Multipole Analysis

Standard DMA

Positions and radii in angstrom
Multipole moments in atomic units, ea_0^k for rank k

C          x =  0.094413  y =  4.858554  z = -0.323931 angstrom
           Maximum rank =  0   Radius =  0.650 angstrom
                   Q00  =  -0.197277

C          x =  1.271413  y =  0.726554  z = -0.967931 angstrom
           Maximum rank =  0   Radius =  0.650 angstrom
                   Q00  =   0.251693

C          x =  0.140413  y =  1.241554  z = -1.597931 angstrom
           Maximum rank =  0   Radius =  0.650 angstrom
                   Q00  =  -0.165257

C          x =  2.019413  y =  1.534554  z = -0.128931 angstrom
           Maximum rank =  0   Radius =  0.650 angstrom
                   Q00  =  -0.116549

C          x = -0.249587  y =  2.585554  z = -1.384931 angstrom
           Maximum rank =  0   Radius =  0.650 angstrom
                   Q00  =  -0.058184

C          x =  1.632413  y =  2.870554  z =  0.079069 angstrom
           Maximum rank =  0   Radius =  0.650 angstrom
                   Q00  =   0.056670

C          x =  0.494413  y =  3.410554  z = -0.542931 angstrom
           Maximum rank =  0   Radius =  0.650 angstrom
                   Q00  =  -0.130338

O          x =  1.619413  y = -0.580446  z = -1.166931 angstrom
           Maximum rank =  0   Radius =  0.650 angstrom
                   Q00  =  -0.681813

H          x = -0.448587  y =  0.613554  z = -2.251931 angstrom
           Maximum rank =  0   Radius =  0.325 angstrom
                   Q00  =   0.070621

H          x =  1.069413  y = -1.000446  z = -1.838931 angstrom
           Maximum rank =  0   Radius =  0.325 angstrom
                   Q00  =   0.405669

H          x =  2.892413  y =  1.126554  z =  0.359069 angstrom
           Maximum rank =  0   Radius =  0.325 angstrom
                   Q00  =   0.085814

H          x = -1.130587  y =  2.974554  z = -1.879931 angstrom
           Maximum rank =  0   Radius =  0.325 angstrom
                   Q00  =   0.084766

H          x =  2.219413  y =  3.494554  z =  0.738069 angstrom
           Maximum rank =  0   Radius =  0.325 angstrom
                   Q00  =   0.082502

H          x =  0.510413  y =  5.209554  z =  0.622069 angstrom
           Maximum rank =  0   Radius =  0.325 angstrom
                   Q00  =   0.105055

H          x = -0.990587  y =  4.904554  z = -0.250931 angstrom
           Maximum rank =  0   Radius =  0.325 angstrom
                   Q00  =   0.100474

H          x =  0.414972  y =  5.529791  z = -1.134291 angstrom
           Maximum rank =  0   Radius =  0.325 angstrom
                   Q00  =   0.118174

C          x = -1.056587  y = -1.063446  z =  1.306069 angstrom
           Maximum rank =  0   Radius =  0.650 angstrom
                   Q00  =  -0.032071

C          x = -2.142587  y = -0.109446  z =  1.748069 angstrom
           Maximum rank =  0   Radius =  0.650 angstrom
                   Q00  =  -0.197753

C          x = -0.832587  y = -3.437446  z =  0.658069 angstrom
           Maximum rank =  0   Radius =  0.650 angstrom
                   Q00  =   1.087406

N          x = -1.575587  y = -2.417446  z =  1.069069 angstrom
           Maximum rank =  0   Radius =  0.650 angstrom
                   Q00  =  -0.497323

N          x =  0.454413  y = -3.269446  z =  0.430069 angstrom
           Maximum rank =  0   Radius =  0.650 angstrom
                   Q00  =  -0.585385

N          x = -1.366587  y = -4.626446  z =  0.464069 angstrom
           Maximum rank =  0   Radius =  0.650 angstrom
                   Q00  =  -0.601221

H          x = -0.619587  y = -0.674446  z =  0.386069 angstrom
           Maximum rank =  0   Radius =  0.325 angstrom
                   Q00  =   0.096257

H          x = -0.288587  y = -1.101446  z =  2.083069 angstrom
           Maximum rank =  0   Radius =  0.325 angstrom
                   Q00  =   0.089755

H          x = -2.619587  y = -0.539446  z =  2.629069 angstrom
           Maximum rank =  0   Radius =  0.325 angstrom
                   Q00  =   0.088867

H          x = -2.888587  y = -0.017446  z =  0.957069 angstrom
           Maximum rank =  0   Radius =  0.325 angstrom
                   Q00  =   0.095614

H          x = -2.557587  y = -2.587446  z =  1.231069 angstrom
           Maximum rank =  0   Radius =  0.325 angstrom
                   Q00  =   0.226771

H          x =  0.869413  y = -2.360446  z =  0.555069 angstrom
           Maximum rank =  0   Radius =  0.325 angstrom
                   Q00  =   0.280979

H          x =  1.005413  y = -4.018446  z =  0.044069 angstrom
           Maximum rank =  0   Radius =  0.325 angstrom
                   Q00  =   0.262526

H          x = -2.351587  y = -4.769446  z =  0.626069 angstrom
           Maximum rank =  0   Radius =  0.325 angstrom
                   Q00  =   0.262431

H          x = -0.806587  y = -5.396446  z =  0.138069 angstrom
           Maximum rank =  0   Radius =  0.325 angstrom
                   Q00  =   0.264656

H          x = -1.740874  y =  0.886601  z =  1.985803 angstrom
           Maximum rank =  0   Radius =  0.325 angstrom
                   Q00  =   0.146471

Total multipoles referred to origin at
           x =   0.000000,  y =    0.000000,  z =    0.000000 angstrom
                   Q00  =   1.000000

Finished at 9:50:36 on 28 Apr 2020

  DMA results are available in the Python driver through the
	  variable('DMA DISTRIBUTED MULTIPOLES')
  and
	  variable('DMA TOTAL MULTIPOLES')
  commands.

    Psi4 stopped on: Tuesday, 28 April 2020 09:50AM
    Psi4 wall time for execution: 0:12:06.10

*** Psi4 exiting successfully. Buy a developer a beer!
