                               Psi4 1.3.2 release

  ==> Input File <==

--------------------------------------------------------------------------
import numpy as np
set {scf_type pk
basis cc-pvdz
d_convergence 10
gdma_switch   0
gdma_limit    0
gdma_origin   [ 0.0,  0.0,  0.0 ]
}
molecule test {
    units Angstrom
    0 1
    --
    0 1
    C                1.458005428005019    -0.875334197755146     0.299959259826682
    C                1.875005428005019    -2.314334197755147     0.018959259826682
    H                1.469005428005019    -0.291334197755146    -0.622040740173318
    H                0.451005428005019    -0.857334197755146     0.720959259826682
    H                2.144005428005018    -0.425334197755146     1.018959259826682
    H                1.873005428005019    -2.857334197755146     0.964959259826682
    H                2.891145428005019    -2.344504197755146    -0.401224740173318
    H                1.149895428005019    -2.797984197755147    -0.652089740173318
    C               -1.020994571994981     1.982665802244854    -0.069040740173318
    C               -2.313994571994981     1.209665802244854    -0.263040740173318
    H               -1.169994571994981     3.037665802244854    -0.294040740173318
    H               -0.699994571994981     1.892665802244854     0.969959259826682
    H               -0.241994571994981     1.578665802244854    -0.716040740173318
    H               -3.094994571994981     1.662665802244854     0.348959259826682
    H               -2.108994571994981     0.216665802244854     0.130959259826682
    H               -2.638534571994982     1.153785802244854    -1.312589740173319

}
e, wfn = energy('scf', return_wfn=True)
gdma(wfn)
dmavals = variable('DMA DISTRIBUTED MULTIPOLES')
charges = np.array(dmavals)
print(charges)
np.save('SSI-162ALA-174ILE-1-dimer.npy', np.array(charges))--------------------------------------------------------------------------

*** tstart() called on ds3
*** at Mon Apr 27 13:26:59 2020

   => Loading Basis Set <=

    Name: CC-PVDZ
    Role: ORBITAL
    Keyword: BASIS
    atoms 1-2, 9-10  entry C          line   138 file /theoryfs2/ds/metcalf/miniconda2/envs/tf2gpu/share/psi4/basis/cc-pvdz.gbs
    atoms 3-8, 11-16 entry H          line    22 file /theoryfs2/ds/metcalf/miniconda2/envs/tf2gpu/share/psi4/basis/cc-pvdz.gbs

         ---------------------------------------------------------
                                   SCF
               by Justin Turney, Rob Parrish, Andy Simmonett
                          and Daniel G. A. Smith
                              RHF Reference
                        1 Threads,    500 MiB Core
         ---------------------------------------------------------

  ==> Geometry <==

    Molecular point group: c1
    Full point group: C1

    Geometry (in Angstrom), charge = 0, multiplicity = 1:

       Center              X                  Y                   Z               Mass
    ------------   -----------------  -----------------  -----------------  -----------------
         C            1.458005428005    -0.875334197755     0.299959259827    12.000000000000
         C            1.875005428005    -2.314334197755     0.018959259827    12.000000000000
         H            1.469005428005    -0.291334197755    -0.622040740173     1.007825032230
         H            0.451005428005    -0.857334197755     0.720959259827     1.007825032230
         H            2.144005428005    -0.425334197755     1.018959259827     1.007825032230
         H            1.873005428005    -2.857334197755     0.964959259827     1.007825032230
         H            2.891145428005    -2.344504197755    -0.401224740173     1.007825032230
         H            1.149895428005    -2.797984197755    -0.652089740173     1.007825032230
         C           -1.020994571995     1.982665802245    -0.069040740173    12.000000000000
         C           -2.313994571995     1.209665802245    -0.263040740173    12.000000000000
         H           -1.169994571995     3.037665802245    -0.294040740173     1.007825032230
         H           -0.699994571995     1.892665802245     0.969959259827     1.007825032230
         H           -0.241994571995     1.578665802245    -0.716040740173     1.007825032230
         H           -3.094994571995     1.662665802245     0.348959259827     1.007825032230
         H           -2.108994571995     0.216665802245     0.130959259827     1.007825032230
         H           -2.638534571995     1.153785802245    -1.312589740173     1.007825032230

  Running in c1 symmetry.

  Rotational constants: A =      0.47766  B =      0.04834  C =      0.04552 [cm^-1]
  Rotational constants: A =  14319.98723  B =   1449.05731  C =   1364.59615 [MHz]
  Nuclear repulsion =  122.015559906657188

  Charge       = 0
  Multiplicity = 1
  Electrons    = 36
  Nalpha       = 18
  Nbeta        = 18

  ==> Algorithm <==

  SCF Algorithm Type is PK.
  DIIS enabled.
  MOM disabled.
  Fractional occupation disabled.
  Guess Type is SAD.
  Energy threshold   = 1.00e-06
  Density threshold  = 1.00e-10
  Integral threshold = 0.00e+00

  ==> Primary Basis <==

  Basis Set: CC-PVDZ
    Blend: CC-PVDZ
    Number of shells: 60
    Number of basis function: 116
    Number of Cartesian functions: 120
    Spherical Harmonics?: true
    Max angular momentum: 2

  ==> Pre-Iterations <==

   -------------------------------------------------------
    Irrep   Nso     Nmo     Nalpha   Nbeta   Ndocc  Nsocc
   -------------------------------------------------------
     A        116     116       0       0       0       0
   -------------------------------------------------------
    Total     116     116      18      18      18       0
   -------------------------------------------------------

  ==> Integral Setup <==

  Using integral reordering PK algorithm.
  Sizing the integral batches needed.
  Building batch lookup table.
   Calculation information:
      Number of atoms:                  16
      Number of AO shells:              60
      Number of primitives:            148
      Number of atomic orbitals:       120
      Number of basis functions:       116

      Integral cutoff                 1.00e-12
      Number of threads:                 1

	Batch   1 pq = [       0,    6786] index = [             0,23028291] size =     23028291
  Task number: 3
  Buffer size: 11059200
  Buffer per thread: 2
  We computed 1423408 shell quartets total.
  Whereas there are 1675365 unique shell quartets.

  ==> DiskJK: Disk-Based J/K Matrices <==

    J tasked:                  Yes
    K tasked:                  Yes
    wK tasked:                  No
    Memory [MiB]:              375
    Schwarz Cutoff:          1E-12

    OpenMP threads:              1

  Minimum eigenvalue in the overlap matrix is 7.0901494395E-03.
  Using Symmetric Orthogonalization.

  SCF Guess: Superposition of Atomic Densities via on-the-fly atomic UHF.

  ==> Iterations <==

                        Total Energy        Delta E     RMS |[F,P]|

   @RHF iter SAD:  -157.37279819195376   -1.57373e+02   0.00000e+00
   @RHF iter   1:  -158.30509975287220   -9.32302e-01   4.24250e-03 DIIS
   @RHF iter   2:  -158.43984019863052   -1.34740e-01   1.81510e-03 DIIS
   @RHF iter   3:  -158.46369309113646   -2.38529e-02   3.50711e-04 DIIS
   @RHF iter   4:  -158.46552971669234   -1.83663e-03   3.84946e-05 DIIS
   @RHF iter   5:  -158.46555299385065   -2.32772e-05   6.31753e-06 DIIS
   @RHF iter   6:  -158.46555360174366   -6.07893e-07   7.99462e-07 DIIS
   @RHF iter   7:  -158.46555360909349   -7.34983e-09   2.50725e-07 DIIS
   @RHF iter   8:  -158.46555360959371   -5.00222e-10   3.54440e-08 DIIS
   @RHF iter   9:  -158.46555360961082   -1.71099e-11   5.77346e-09 DIIS
   @RHF iter  10:  -158.46555360961156   -7.38964e-13   1.61184e-09 DIIS
   @RHF iter  11:  -158.46555360961139    1.70530e-13   4.88319e-10 DIIS
   @RHF iter  12:  -158.46555360961102    3.69482e-13   1.26270e-10 DIIS
   @RHF iter  13:  -158.46555360961153   -5.11591e-13   2.24505e-11 DIIS
  Energy and wave function converged.

  ==> Post-Iterations <==

    Orbital Energies [Eh]
    ---------------------

    Doubly Occupied:

       1A    -11.219490     2A    -11.217477     3A    -11.216779
       4A    -11.214533     5A     -1.021666     6A     -1.019206
       7A     -0.837180     8A     -0.833332     9A     -0.603846
      10A     -0.600975    11A     -0.597531    12A     -0.595965
      13A     -0.504148    14A     -0.498395    15A     -0.488453
      16A     -0.487292    17A     -0.482335    18A     -0.479713

    Virtual:

      19A      0.169763    20A      0.197878    21A      0.222804
      22A      0.232191    23A      0.242904    24A      0.254854
      25A      0.267062    26A      0.275056    27A      0.279126
      28A      0.284694    29A      0.331905    30A      0.355020
      31A      0.392203    32A      0.402584    33A      0.570596
      34A      0.591042    35A      0.597274    36A      0.602322
      37A      0.607820    38A      0.628055    39A      0.679684
      40A      0.685051    41A      0.692603    42A      0.764977
      43A      0.850152    44A      0.862692    45A      0.888306
      46A      0.891521    47A      0.893703    48A      0.898446
      49A      0.902933    50A      0.906445    51A      0.912239
      52A      0.916897    53A      0.941779    54A      0.953727
      55A      0.982628    56A      0.995835    57A      1.123090
      58A      1.125143    59A      1.132254    60A      1.146044
      61A      1.222213    62A      1.264458    63A      1.465029
      64A      1.472132    65A      1.484220    66A      1.495672
      67A      1.571389    68A      1.587292    69A      1.678376
      70A      1.678971    71A      1.691953    72A      1.698936
      73A      1.844288    74A      1.858709    75A      1.869063
      76A      1.873485    77A      1.889567    78A      1.913100
      79A      1.936981    80A      1.938846    81A      1.945707
      82A      1.948185    83A      1.950906    84A      1.963194
      85A      1.969672    86A      1.972624    87A      1.993364
      88A      2.032868    89A      2.091698    90A      2.106307
      91A      2.114834    92A      2.146694    93A      2.290268
      94A      2.298310    95A      2.314213    96A      2.322350
      97A      2.444357    98A      2.456889    99A      2.474054
     100A      2.475510   101A      2.558834   102A      2.562085
     103A      2.570968   104A      2.592332   105A      2.759195
     106A      2.772223   107A      2.786119   108A      2.797897
     109A      2.841478   110A      2.849548   111A      2.856446
     112A      2.863337   113A      2.938598   114A      2.953831
     115A      2.961496   116A      2.978302

    Final Occupation by Irrep:
              A
    DOCC [    18 ]

  @RHF Final Energy:  -158.46555360961153

   => Energetics <=

    Nuclear Repulsion Energy =            122.0155599066571881
    One-Electron Energy =                -453.1255957475316904
    Two-Electron Energy =                 172.6444822312629697
    Total Energy =                       -158.4655536096115327

Computation Completed

Properties will be evaluated at   0.000000,   0.000000,   0.000000 [a0]

Properties computed using the SCF density matrix

  Nuclear Dipole Moment: [e a0]
     X:     0.0221      Y:    -0.0297      Z:     0.1469

  Electronic Dipole Moment: [e a0]
     X:    -0.0089      Y:     0.0264      Z:    -0.1257

  Dipole Moment: [e a0]
     X:     0.0132      Y:    -0.0033      Z:     0.0212     Total:     0.0252

  Dipole Moment: [D]
     X:     0.0334      Y:    -0.0084      Z:     0.0539     Total:     0.0640

*** tstop() called on ds3 at Mon Apr 27 13:27:15 2020
Module time:
	user time   =      12.50 seconds =       0.21 minutes
	system time =       4.28 seconds =       0.07 minutes
	total time  =         16 seconds =       0.27 minutes
Total time:
	user time   =      12.50 seconds =       0.21 minutes
	system time =       4.28 seconds =       0.07 minutes
	total time  =         16 seconds =       0.27 minutes
                                     G D M A

                                 by Anthony Stone

                           version 2.2.06, 22 June 2011

               Distributed Multipoles from Gaussian wavefunctions

Starting at 13:27:15 on 27 Apr 2020

Using SCF density matrix from file ./SSI/SSI-162ALA-174ILE-1-dimer.test.6664.fchk

                         Distributed Multipole Analysis

Standard DMA

Positions and radii in angstrom
Multipole moments in atomic units, ea_0^k for rank k

C          x =  1.458005  y = -0.875334  z =  0.299959 angstrom
           Maximum rank =  0   Radius =  0.650 angstrom
                   Q00  =  -0.237072

C          x =  1.875005  y = -2.314334  z =  0.018959 angstrom
           Maximum rank =  0   Radius =  0.650 angstrom
                   Q00  =  -0.234575

H          x =  1.469005  y = -0.291334  z = -0.622041 angstrom
           Maximum rank =  0   Radius =  0.325 angstrom
                   Q00  =   0.078053

H          x =  0.451005  y = -0.857334  z =  0.720959 angstrom
           Maximum rank =  0   Radius =  0.325 angstrom
                   Q00  =   0.078168

H          x =  2.144005  y = -0.425334  z =  1.018959 angstrom
           Maximum rank =  0   Radius =  0.325 angstrom
                   Q00  =   0.079633

H          x =  1.873005  y = -2.857334  z =  0.964959 angstrom
           Maximum rank =  0   Radius =  0.325 angstrom
                   Q00  =   0.076854

H          x =  2.891145  y = -2.344504  z = -0.401225 angstrom
           Maximum rank =  0   Radius =  0.325 angstrom
                   Q00  =   0.080038

H          x =  1.149895  y = -2.797984  z = -0.652090 angstrom
           Maximum rank =  0   Radius =  0.325 angstrom
                   Q00  =   0.079053

C          x = -1.020995  y =  1.982666  z = -0.069041 angstrom
           Maximum rank =  0   Radius =  0.650 angstrom
                   Q00  =  -0.233243

C          x = -2.313995  y =  1.209666  z = -0.263041 angstrom
           Maximum rank =  0   Radius =  0.650 angstrom
                   Q00  =  -0.231965

H          x = -1.169995  y =  3.037666  z = -0.294041 angstrom
           Maximum rank =  0   Radius =  0.325 angstrom
                   Q00  =   0.075340

H          x = -0.699995  y =  1.892666  z =  0.969959 angstrom
           Maximum rank =  0   Radius =  0.325 angstrom
                   Q00  =   0.077423

H          x = -0.241995  y =  1.578666  z = -0.716041 angstrom
           Maximum rank =  0   Radius =  0.325 angstrom
                   Q00  =   0.080590

H          x = -3.094995  y =  1.662666  z =  0.348959 angstrom
           Maximum rank =  0   Radius =  0.325 angstrom
                   Q00  =   0.077724

H          x = -2.108995  y =  0.216666  z =  0.130959 angstrom
           Maximum rank =  0   Radius =  0.325 angstrom
                   Q00  =   0.072360

H          x = -2.638535  y =  1.153786  z = -1.312590 angstrom
           Maximum rank =  0   Radius =  0.325 angstrom
                   Q00  =   0.081618

Total multipoles referred to origin at
           x =   0.000000,  y =    0.000000,  z =    0.000000 angstrom
                   Q00  =  -0.000000

Finished at 13:27:15 on 27 Apr 2020

  DMA results are available in the Python driver through the
	  variable('DMA DISTRIBUTED MULTIPOLES')
  and
	  variable('DMA TOTAL MULTIPOLES')
  commands.

    Psi4 stopped on: Monday, 27 April 2020 01:27PM
    Psi4 wall time for execution: 0:00:16.44

*** Psi4 exiting successfully. Buy a developer a beer!
