                               Psi4 1.3.2 release

  ==> Input File <==

--------------------------------------------------------------------------
import numpy as np
set {scf_type pk
basis cc-pvdz
d_convergence 10
gdma_switch   0
gdma_limit    0
gdma_origin   [ 0.0,  0.0,  0.0 ]
}
molecule test {
    units Angstrom
    0 1
    --
    0 1
    C               -0.645384828841841     1.456792014050737    -2.432680099943511
    C               -1.432384828841841     1.154792014050737    -0.107680099943511
    N               -1.245384828841841     0.647792014050737     1.094319900056489
    N               -0.562384828841841     0.904792014050737    -1.074680099943511
    N               -2.478384828841842     1.928792014050737    -0.329680099943511
    H               -0.411384828841841     0.064792014050737     1.253319900056489
    H               -1.926384828841841     0.762792014050737     1.826319900056489
    H                0.170615171158159     0.221792014050737    -0.873680099943511
    H               -2.678384828841841     2.241792014050737    -1.277680099943511
    H               -3.152384828841841     2.141792014050737     0.385319900056489
    H                0.339615171158159     1.418792014050737    -2.902680099943511
    H               -0.929384828841841     2.508792014050737    -2.375680099943511
    H               -1.374644828841841     0.937432014050737    -3.071780099943511
    C                2.609615171158159    -2.523207985949263     1.020319900056489
    C                1.548615171158159    -1.483207985949263     0.688319900056489
    O                1.000615171158159    -0.874207985949263     1.638319900056489
    O                1.273615171158158    -1.253207985949263    -0.510680099943511
    H                2.542615171158158    -2.763207985949263     2.082319900056489
    H                3.592615171158159    -2.085207985949263     0.834319900056489
    H                2.515065171158159    -3.449357985949263     0.434399900056489

}
e, wfn = energy('scf', return_wfn=True)
gdma(wfn)
dmavals = variable('DMA DISTRIBUTED MULTIPOLES')
charges = np.array(dmavals)
print(charges)
np.save('SSI-037ARG-152GLU-1-dimer.npy', np.array(charges))--------------------------------------------------------------------------

*** tstart() called on ds3
*** at Tue Apr 28 13:14:25 2020

   => Loading Basis Set <=

    Name: CC-PVDZ
    Role: ORBITAL
    Keyword: BASIS
    atoms 1-2, 14-15  entry C          line   138 file /theoryfs2/ds/metcalf/miniconda2/envs/tf2gpu/share/psi4/basis/cc-pvdz.gbs
    atoms 3-5         entry N          line   168 file /theoryfs2/ds/metcalf/miniconda2/envs/tf2gpu/share/psi4/basis/cc-pvdz.gbs
    atoms 6-13, 18-20 entry H          line    22 file /theoryfs2/ds/metcalf/miniconda2/envs/tf2gpu/share/psi4/basis/cc-pvdz.gbs
    atoms 16-17       entry O          line   198 file /theoryfs2/ds/metcalf/miniconda2/envs/tf2gpu/share/psi4/basis/cc-pvdz.gbs

         ---------------------------------------------------------
                                   SCF
               by Justin Turney, Rob Parrish, Andy Simmonett
                          and Daniel G. A. Smith
                              RHF Reference
                        1 Threads,    500 MiB Core
         ---------------------------------------------------------

  ==> Geometry <==

    Molecular point group: c1
    Full point group: C1

    Geometry (in Angstrom), charge = 0, multiplicity = 1:

       Center              X                  Y                   Z               Mass
    ------------   -----------------  -----------------  -----------------  -----------------
         C           -0.645384828842     1.456792014051    -2.432680099944    12.000000000000
         C           -1.432384828842     1.154792014051    -0.107680099944    12.000000000000
         N           -1.245384828842     0.647792014051     1.094319900056    14.003074004430
         N           -0.562384828842     0.904792014051    -1.074680099944    14.003074004430
         N           -2.478384828842     1.928792014051    -0.329680099944    14.003074004430
         H           -0.411384828842     0.064792014051     1.253319900056     1.007825032230
         H           -1.926384828842     0.762792014051     1.826319900056     1.007825032230
         H            0.170615171158     0.221792014051    -0.873680099944     1.007825032230
         H           -2.678384828842     2.241792014051    -1.277680099944     1.007825032230
         H           -3.152384828842     2.141792014051     0.385319900056     1.007825032230
         H            0.339615171158     1.418792014051    -2.902680099944     1.007825032230
         H           -0.929384828842     2.508792014051    -2.375680099944     1.007825032230
         H           -1.374644828842     0.937432014051    -3.071780099944     1.007825032230
         C            2.609615171158    -2.523207985949     1.020319900056    12.000000000000
         C            1.548615171158    -1.483207985949     0.688319900056    12.000000000000
         O            1.000615171158    -0.874207985949     1.638319900056    15.994914619570
         O            1.273615171158    -1.253207985949    -0.510680099944    15.994914619570
         H            2.542615171158    -2.763207985949     2.082319900056     1.007825032230
         H            3.592615171158    -2.085207985949     0.834319900056     1.007825032230
         H            2.515065171158    -3.449357985949     0.434399900056     1.007825032230

  Running in c1 symmetry.

  Rotational constants: A =      0.10105  B =      0.02455  C =      0.02009 [cm^-1]
  Rotational constants: A =   3029.31458  B =    736.02294  C =    602.30075 [MHz]
  Nuclear repulsion =  465.138348890527823

  Charge       = 0
  Multiplicity = 1
  Electrons    = 72
  Nalpha       = 36
  Nbeta        = 36

  ==> Algorithm <==

  SCF Algorithm Type is PK.
  DIIS enabled.
  MOM disabled.
  Fractional occupation disabled.
  Guess Type is SAD.
  Energy threshold   = 1.00e-06
  Density threshold  = 1.00e-10
  Integral threshold = 0.00e+00

  ==> Primary Basis <==

  Basis Set: CC-PVDZ
    Blend: CC-PVDZ
    Number of shells: 87
    Number of basis function: 181
    Number of Cartesian functions: 190
    Spherical Harmonics?: true
    Max angular momentum: 2

  ==> Pre-Iterations <==

   -------------------------------------------------------
    Irrep   Nso     Nmo     Nalpha   Nbeta   Ndocc  Nsocc
   -------------------------------------------------------
     A        181     181       0       0       0       0
   -------------------------------------------------------
    Total     181     181      36      36      36       0
   -------------------------------------------------------

  ==> Integral Setup <==

  Using integral reordering PK algorithm.
  Sizing the integral batches needed.
  Building batch lookup table.
   Calculation information:
      Number of atoms:                  20
      Number of AO shells:              87
      Number of primitives:            253
      Number of atomic orbitals:       190
      Number of basis functions:       181

      Integral cutoff                 1.00e-12
      Number of threads:                 1

	Batch   1 pq = [       0,    9405] index = [             0,44231715] size =     44231715
	Batch   2 pq = [    9405,   13301] index = [      44231715,88464951] size =     44233236
	Batch   3 pq = [   13301,   16471] index = [      88464951,135655156] size =     47190205
  Task number: 13
  Buffer size: 11059200
  Buffer per thread: 2
  We computed 6083022 shell quartets total.
  Whereas there are 7328706 unique shell quartets.

  ==> DiskJK: Disk-Based J/K Matrices <==

    J tasked:                  Yes
    K tasked:                  Yes
    wK tasked:                  No
    Memory [MiB]:              375
    Schwarz Cutoff:          1E-12

    OpenMP threads:              1

  Minimum eigenvalue in the overlap matrix is 3.7262080916E-03.
  Using Symmetric Orthogonalization.

  SCF Guess: Superposition of Atomic Densities via on-the-fly atomic UHF.

  ==> Iterations <==

                        Total Energy        Delta E     RMS |[F,P]|

   @RHF iter SAD:  -469.73630503826826   -4.69736e+02   0.00000e+00
   @RHF iter   1:  -470.73762470814881   -1.00132e+00   4.15477e-03 DIIS
   @RHF iter   2:  -470.95536046281768   -2.17736e-01   2.13009e-03 DIIS
   @RHF iter   3:  -471.00962348641809   -5.42630e-02   3.87480e-04 DIIS
   @RHF iter   4:  -471.01273753417058   -3.11405e-03   1.28659e-04 DIIS
   @RHF iter   5:  -471.01308476663496   -3.47232e-04   2.33601e-05 DIIS
   @RHF iter   6:  -471.01310124312778   -1.64765e-05   7.55873e-06 DIIS
   @RHF iter   7:  -471.01310259081123   -1.34768e-06   2.23089e-06 DIIS
   @RHF iter   8:  -471.01310274451833   -1.53707e-07   9.25591e-07 DIIS
   @RHF iter   9:  -471.01310276228332   -1.77650e-08   2.90544e-07 DIIS
   @RHF iter  10:  -471.01310276441120   -2.12788e-09   7.04711e-08 DIIS
   @RHF iter  11:  -471.01310276460396   -1.92756e-10   2.11159e-08 DIIS
   @RHF iter  12:  -471.01310276462732   -2.33626e-11   1.03628e-08 DIIS
   @RHF iter  13:  -471.01310276463244   -5.11591e-12   3.55961e-09 DIIS
   @RHF iter  14:  -471.01310276463335   -9.09495e-13   1.10640e-09 DIIS
   @RHF iter  15:  -471.01310276463386   -5.11591e-13   3.98735e-10 DIIS
   @RHF iter  16:  -471.01310276463164    2.21689e-12   1.34086e-10 DIIS
   @RHF iter  17:  -471.01310276463261   -9.66338e-13   5.73277e-11 DIIS
  Energy and wave function converged.

  ==> Post-Iterations <==

    Orbital Energies [Eh]
    ---------------------

    Doubly Occupied:

       1A    -20.433095     2A    -20.431332     3A    -15.643707
       4A    -15.605832     5A    -15.596464     6A    -11.421046
       7A    -11.303047     8A    -11.279359     9A    -11.175956
      10A     -1.379306    11A     -1.321849    12A     -1.237494
      13A     -1.220598    14A     -1.205706    15A     -0.989139
      16A     -0.927585    17A     -0.877977    18A     -0.810635
      19A     -0.775231    20A     -0.703055    21A     -0.689787
      22A     -0.666468    23A     -0.645571    24A     -0.632132
      25A     -0.595744    26A     -0.579378    27A     -0.563655
      28A     -0.552691    29A     -0.545131    30A     -0.486093
      31A     -0.462670    32A     -0.456633    33A     -0.413271
      34A     -0.351051    35A     -0.343504    36A     -0.337010

    Virtual:

      37A      0.128412    38A      0.160763    39A      0.185279
      40A      0.209658    41A      0.217575    42A      0.239111
      43A      0.246289    44A      0.248295    45A      0.271370
      46A      0.297835    47A      0.310923    48A      0.343321
      49A      0.372970    50A      0.411239    51A      0.438715
      52A      0.447923    53A      0.487580    54A      0.495626
      55A      0.579244    56A      0.600663    57A      0.605585
      58A      0.622502    59A      0.666594    60A      0.677782
      61A      0.681957    62A      0.695029    63A      0.702399
      64A      0.721981    65A      0.733877    66A      0.757004
      67A      0.797081    68A      0.820775    69A      0.830204
      70A      0.834786    71A      0.840760    72A      0.859930
      73A      0.899665    74A      0.905796    75A      0.908875
      76A      0.917619    77A      0.926836    78A      0.950241
      79A      0.957792    80A      0.974247    81A      0.989051
      82A      0.996221    83A      1.053256    84A      1.070328
      85A      1.084607    86A      1.101295    87A      1.124532
      88A      1.150443    89A      1.210623    90A      1.213768
      91A      1.250439    92A      1.259261    93A      1.302849
      94A      1.307648    95A      1.335297    96A      1.345226
      97A      1.358958    98A      1.377611    99A      1.411814
     100A      1.438098   101A      1.454549   102A      1.496382
     103A      1.514627   104A      1.552488   105A      1.578480
     106A      1.584886   107A      1.613971   108A      1.638762
     109A      1.673748   110A      1.690164   111A      1.698384
     112A      1.717695   113A      1.737135   114A      1.741201
     115A      1.811684   116A      1.819743   117A      1.860935
     118A      1.881264   119A      1.905080   120A      1.909564
     121A      1.911176   122A      1.941207   123A      1.947834
     124A      1.954929   125A      1.969740   126A      1.983579
     127A      1.990648   128A      2.000651   129A      2.019673
     130A      2.065017   131A      2.078693   132A      2.131490
     133A      2.158003   134A      2.188175   135A      2.215111
     136A      2.242055   137A      2.267154   138A      2.284458
     139A      2.294998   140A      2.348569   141A      2.360351
     142A      2.398689   143A      2.414600   144A      2.424928
     145A      2.470505   146A      2.481113   147A      2.512785
     148A      2.532996   149A      2.552550   150A      2.588409
     151A      2.628329   152A      2.636678   153A      2.659447
     154A      2.722874   155A      2.733017   156A      2.753255
     157A      2.784300   158A      2.800904   159A      2.847816
     160A      2.866182   161A      2.899490   162A      2.918463
     163A      2.952746   164A      2.993117   165A      3.001125
     166A      3.044273   167A      3.073497   168A      3.121029
     169A      3.161946   170A      3.175922   171A      3.216123
     172A      3.311547   173A      3.423346   174A      3.468754
     175A      3.622518   176A      3.667406   177A      3.749256
     178A      3.839299   179A      3.909238   180A      3.926263
     181A      4.064449

    Final Occupation by Irrep:
              A
    DOCC [    36 ]

  @RHF Final Energy:  -471.01310276463261

   => Energetics <=

    Nuclear Repulsion Energy =            465.1383488905278227
    One-Electron Energy =               -1566.9844948873599151
    Two-Electron Energy =                 630.8330432321994294
    Total Energy =                       -471.0131027646326629

Computation Completed

Properties will be evaluated at   0.000000,   0.000000,   0.000000 [a0]

Properties computed using the SCF density matrix

  Nuclear Dipole Moment: [e a0]
     X:    -1.2066      Y:     1.8548      Z:    -3.4487

  Electronic Dipole Moment: [e a0]
     X:    -2.0395      Y:     0.8329      Z:     2.3950

  Dipole Moment: [e a0]
     X:    -3.2461      Y:     2.6877      Z:    -1.0537     Total:     4.3441

  Dipole Moment: [D]
     X:    -8.2508      Y:     6.8314      Z:    -2.6783     Total:    11.0416

*** tstop() called on ds3 at Tue Apr 28 13:15:46 2020
Module time:
	user time   =      48.11 seconds =       0.80 minutes
	system time =      20.39 seconds =       0.34 minutes
	total time  =         81 seconds =       1.35 minutes
Total time:
	user time   =      48.11 seconds =       0.80 minutes
	system time =      20.39 seconds =       0.34 minutes
	total time  =         81 seconds =       1.35 minutes
                                     G D M A

                                 by Anthony Stone

                           version 2.2.06, 22 June 2011

               Distributed Multipoles from Gaussian wavefunctions

Starting at 13:15:46 on 28 Apr 2020

Using SCF density matrix from file ./SSI/SSI-037ARG-152GLU-1-dimer.test.15841.fchk

                         Distributed Multipole Analysis

Standard DMA

Positions and radii in angstrom
Multipole moments in atomic units, ea_0^k for rank k

C          x = -0.645385  y =  1.456792  z = -2.432680 angstrom
           Maximum rank =  0   Radius =  0.650 angstrom
                   Q00  =  -0.101055

C          x = -1.432385  y =  1.154792  z = -0.107680 angstrom
           Maximum rank =  0   Radius =  0.650 angstrom
                   Q00  =   1.061917

N          x = -1.245385  y =  0.647792  z =  1.094320 angstrom
           Maximum rank =  0   Radius =  0.650 angstrom
                   Q00  =  -0.629039

N          x = -0.562385  y =  0.904792  z = -1.074680 angstrom
           Maximum rank =  0   Radius =  0.650 angstrom
                   Q00  =  -0.507296

N          x = -2.478385  y =  1.928792  z = -0.329680 angstrom
           Maximum rank =  0   Radius =  0.650 angstrom
                   Q00  =  -0.583315

H          x = -0.411385  y =  0.064792  z =  1.253320 angstrom
           Maximum rank =  0   Radius =  0.325 angstrom
                   Q00  =   0.382184

H          x = -1.926385  y =  0.762792  z =  1.826320 angstrom
           Maximum rank =  0   Radius =  0.325 angstrom
                   Q00  =   0.221619

H          x =  0.170615  y =  0.221792  z = -0.873680 angstrom
           Maximum rank =  0   Radius =  0.325 angstrom
                   Q00  =   0.322688

H          x = -2.678385  y =  2.241792  z = -1.277680 angstrom
           Maximum rank =  0   Radius =  0.325 angstrom
                   Q00  =   0.238324

H          x = -3.152385  y =  2.141792  z =  0.385320 angstrom
           Maximum rank =  0   Radius =  0.325 angstrom
                   Q00  =   0.237920

H          x =  0.339615  y =  1.418792  z = -2.902680 angstrom
           Maximum rank =  0   Radius =  0.325 angstrom
                   Q00  =   0.152030

H          x = -0.929385  y =  2.508792  z = -2.375680 angstrom
           Maximum rank =  0   Radius =  0.325 angstrom
                   Q00  =   0.076907

H          x = -1.374645  y =  0.937432  z = -3.071780 angstrom
           Maximum rank =  0   Radius =  0.325 angstrom
                   Q00  =   0.094518

C          x =  2.609615  y = -2.523208  z =  1.020320 angstrom
           Maximum rank =  0   Radius =  0.650 angstrom
                   Q00  =  -0.250174

C          x =  1.548615  y = -1.483208  z =  0.688320 angstrom
           Maximum rank =  0   Radius =  0.650 angstrom
                   Q00  =   0.871016

O          x =  1.000615  y = -0.874208  z =  1.638320 angstrom
           Maximum rank =  0   Radius =  0.650 angstrom
                   Q00  =  -0.942527

O          x =  1.273615  y = -1.253208  z = -0.510680 angstrom
           Maximum rank =  0   Radius =  0.650 angstrom
                   Q00  =  -0.925248

H          x =  2.542615  y = -2.763208  z =  2.082320 angstrom
           Maximum rank =  0   Radius =  0.325 angstrom
                   Q00  =   0.082989

H          x =  3.592615  y = -2.085208  z =  0.834320 angstrom
           Maximum rank =  0   Radius =  0.325 angstrom
                   Q00  =   0.105483

H          x =  2.515065  y = -3.449358  z =  0.434400 angstrom
           Maximum rank =  0   Radius =  0.325 angstrom
                   Q00  =   0.091058

Total multipoles referred to origin at
           x =   0.000000,  y =    0.000000,  z =    0.000000 angstrom
                   Q00  =  -0.000000

Finished at 13:15:46 on 28 Apr 2020

  DMA results are available in the Python driver through the
	  variable('DMA DISTRIBUTED MULTIPOLES')
  and
	  variable('DMA TOTAL MULTIPOLES')
  commands.

    Psi4 stopped on: Tuesday, 28 April 2020 01:15PM
    Psi4 wall time for execution: 0:01:21.67

*** Psi4 exiting successfully. Buy a developer a beer!
