                               Psi4 1.3.2 release

  ==> Input File <==

--------------------------------------------------------------------------
import numpy as np
set {scf_type pk
basis cc-pvdz
d_convergence 10
gdma_switch   0
gdma_limit    0
gdma_origin   [ 0.0,  0.0,  0.0 ]
}
molecule test {
    units Angstrom
    0 1
    --
    0 1
    C                0.000659795194692     0.230749491622804    -3.090950218634013
    C                0.990659795194691     0.436749491622804     0.575049781365986
    C                0.698659795194691     0.788749491622804    -0.741950218634014
    C                0.925659795194692    -0.894250508377196     0.964049781365986
    C                0.327659795194692    -0.181250508377196    -1.675950218634014
    C                0.563659795194692    -1.877250508377196     0.059049781365986
    C                0.276659795194692    -1.519250508377196    -1.263950218634014
    O                1.216659795194692    -1.237250508377196     2.250049781365986
    H                1.281659795194692     1.198749491622804     1.286049781365986
    H                0.775659795194692     1.822749491622804    -1.041950218634013
    H                1.424659795194692    -0.466250508377196     2.791049781365986
    H                0.511659795194692    -2.908250508377197     0.380049781365986
    H                0.375659795194692     1.243749491622804    -3.218950218634014
    H                0.647659795194691    -0.386250508377196    -3.736950218634014
    H               -0.013340204805308    -2.287250508377197    -1.967950218634014
    H               -1.077507204805308     0.266019491622804    -3.306150218634014
    C               -2.287340204805309     1.668749491622804     1.894049781365986
    C               -2.292340204805309     2.159749491622803     0.435049781365986
    H               -2.562340204805309     2.483749491622803     2.566049781365987
    H               -3.004340204805309     0.855749491622804     2.008049781365986
    H               -1.295340204805308     1.302749491622804     2.159049781365987
    H               -2.025340204805309     1.326749491622804    -0.218950218634014
    H               -1.573361204805308     2.981109491622804     0.299289781365986
    H               -3.296091204805309     2.525469491622804     0.172889781365986

}
e, wfn = energy('scf', return_wfn=True)
gdma(wfn)
dmavals = variable('DMA DISTRIBUTED MULTIPOLES')
charges = np.array(dmavals)
print(charges)
np.save('SSI-003TYR-056ALA-1-dimer.npy', np.array(charges))--------------------------------------------------------------------------

*** tstart() called on ds3
*** at Mon Apr 27 01:29:28 2020

   => Loading Basis Set <=

    Name: CC-PVDZ
    Role: ORBITAL
    Keyword: BASIS
    atoms 1-7, 17-18  entry C          line   138 file /theoryfs2/ds/metcalf/miniconda2/envs/tf2gpu/share/psi4/basis/cc-pvdz.gbs
    atoms 8           entry O          line   198 file /theoryfs2/ds/metcalf/miniconda2/envs/tf2gpu/share/psi4/basis/cc-pvdz.gbs
    atoms 9-16, 19-24 entry H          line    22 file /theoryfs2/ds/metcalf/miniconda2/envs/tf2gpu/share/psi4/basis/cc-pvdz.gbs

         ---------------------------------------------------------
                                   SCF
               by Justin Turney, Rob Parrish, Andy Simmonett
                          and Daniel G. A. Smith
                              RHF Reference
                        1 Threads,    500 MiB Core
         ---------------------------------------------------------

  ==> Geometry <==

    Molecular point group: c1
    Full point group: C1

    Geometry (in Angstrom), charge = 0, multiplicity = 1:

       Center              X                  Y                   Z               Mass
    ------------   -----------------  -----------------  -----------------  -----------------
         C            0.000659795195     0.230749491623    -3.090950218634    12.000000000000
         C            0.990659795195     0.436749491623     0.575049781366    12.000000000000
         C            0.698659795195     0.788749491623    -0.741950218634    12.000000000000
         C            0.925659795195    -0.894250508377     0.964049781366    12.000000000000
         C            0.327659795195    -0.181250508377    -1.675950218634    12.000000000000
         C            0.563659795195    -1.877250508377     0.059049781366    12.000000000000
         C            0.276659795195    -1.519250508377    -1.263950218634    12.000000000000
         O            1.216659795195    -1.237250508377     2.250049781366    15.994914619570
         H            1.281659795195     1.198749491623     1.286049781366     1.007825032230
         H            0.775659795195     1.822749491623    -1.041950218634     1.007825032230
         H            1.424659795195    -0.466250508377     2.791049781366     1.007825032230
         H            0.511659795195    -2.908250508377     0.380049781366     1.007825032230
         H            0.375659795195     1.243749491623    -3.218950218634     1.007825032230
         H            0.647659795195    -0.386250508377    -3.736950218634     1.007825032230
         H           -0.013340204805    -2.287250508377    -1.967950218634     1.007825032230
         H           -1.077507204805     0.266019491623    -3.306150218634     1.007825032230
         C           -2.287340204805     1.668749491623     1.894049781366    12.000000000000
         C           -2.292340204805     2.159749491623     0.435049781366    12.000000000000
         H           -2.562340204805     2.483749491623     2.566049781366     1.007825032230
         H           -3.004340204805     0.855749491623     2.008049781366     1.007825032230
         H           -1.295340204805     1.302749491623     2.159049781366     1.007825032230
         H           -2.025340204805     1.326749491623    -0.218950218634     1.007825032230
         H           -1.573361204805     2.981109491623     0.299289781366     1.007825032230
         H           -3.296091204805     2.525469491623     0.172889781366     1.007825032230

  Running in c1 symmetry.

  Rotational constants: A =      0.03969  B =      0.03390  C =      0.02130 [cm^-1]
  Rotational constants: A =   1189.88403  B =   1016.33229  C =    638.48584 [MHz]
  Nuclear repulsion =  507.379490050296226

  Charge       = 0
  Multiplicity = 1
  Electrons    = 76
  Nalpha       = 38
  Nbeta        = 38

  ==> Algorithm <==

  SCF Algorithm Type is PK.
  DIIS enabled.
  MOM disabled.
  Fractional occupation disabled.
  Guess Type is SAD.
  Energy threshold   = 1.00e-06
  Density threshold  = 1.00e-10
  Integral threshold = 0.00e+00

  ==> Primary Basis <==

  Basis Set: CC-PVDZ
    Blend: CC-PVDZ
    Number of shells: 102
    Number of basis function: 210
    Number of Cartesian functions: 220
    Spherical Harmonics?: true
    Max angular momentum: 2

  ==> Pre-Iterations <==

   -------------------------------------------------------
    Irrep   Nso     Nmo     Nalpha   Nbeta   Ndocc  Nsocc
   -------------------------------------------------------
     A        210     210       0       0       0       0
   -------------------------------------------------------
    Total     210     210      38      38      38       0
   -------------------------------------------------------

  ==> Integral Setup <==

  Using integral reordering PK algorithm.
  Sizing the integral batches needed.
  Building batch lookup table.
   Calculation information:
      Number of atoms:                  24
      Number of AO shells:             102
      Number of primitives:            290
      Number of atomic orbitals:       220
      Number of basis functions:       210

      Integral cutoff                 1.00e-12
      Number of threads:                 1

	Batch   1 pq = [       0,    9405] index = [             0,44231715] size =     44231715
	Batch   2 pq = [    9405,   13301] index = [      44231715,88464951] size =     44233236
	Batch   3 pq = [   13301,   16290] index = [      88464951,132690195] size =     44225244
	Batch   4 pq = [   16290,   18810] index = [     132690195,176917455] size =     44227260
	Batch   5 pq = [   18810,   21030] index = [     176917455,221140965] size =     44223510
	Batch   6 pq = [   21030,   22155] index = [     221140965,245433090] size =     24292125
  Task number: 23
  Buffer size: 11059200
  Buffer per thread: 2
  We computed 13278394 shell quartets total.
  Whereas there are 13799631 unique shell quartets.

  ==> DiskJK: Disk-Based J/K Matrices <==

    J tasked:                  Yes
    K tasked:                  Yes
    wK tasked:                  No
    Memory [MiB]:              375
    Schwarz Cutoff:          1E-12

    OpenMP threads:              1

  Minimum eigenvalue in the overlap matrix is 3.2303915040E-04.
  Using Symmetric Orthogonalization.

  SCF Guess: Superposition of Atomic Densities via on-the-fly atomic UHF.

  ==> Iterations <==

                        Total Energy        Delta E     RMS |[F,P]|

   @RHF iter SAD:  -422.66377926510324   -4.22664e+02   0.00000e+00
   @RHF iter   1:  -423.59885383155779   -9.35075e-01   2.96791e-03 DIIS
   @RHF iter   2:  -423.81409578780284   -2.15242e-01   1.24854e-03 DIIS
   @RHF iter   3:  -423.84853753985590   -3.44418e-02   2.78091e-04 DIIS
   @RHF iter   4:  -423.85135401626167   -2.81648e-03   1.09999e-04 DIIS
   @RHF iter   5:  -423.85166319903209   -3.09183e-04   2.13360e-05 DIIS
   @RHF iter   6:  -423.85168115539534   -1.79564e-05   6.47276e-06 DIIS
   @RHF iter   7:  -423.85168287406009   -1.71866e-06   2.13065e-06 DIIS
   @RHF iter   8:  -423.85168312634067   -2.52281e-07   8.17789e-07 DIIS
   @RHF iter   9:  -423.85168317396813   -4.76275e-08   3.61543e-07 DIIS
   @RHF iter  10:  -423.85168318452691   -1.05588e-08   1.58896e-07 DIIS
   @RHF iter  11:  -423.85168318796468   -3.43778e-09   6.43192e-08 DIIS
   @RHF iter  12:  -423.85168318845115   -4.86466e-10   2.83552e-08 DIIS
   @RHF iter  13:  -423.85168318851407   -6.29257e-11   8.15173e-09 DIIS
   @RHF iter  14:  -423.85168318851794   -3.86535e-12   2.28770e-09 DIIS
   @RHF iter  15:  -423.85168318851692    1.02318e-12   7.18361e-10 DIIS
   @RHF iter  16:  -423.85168318851862   -1.70530e-12   2.58869e-10 DIIS
   @RHF iter  17:  -423.85168318851873   -1.13687e-13   1.17325e-10 DIIS
   @RHF iter  18:  -423.85168318851947   -7.38964e-13   6.00182e-11 DIIS
  Energy and wave function converged.

  ==> Post-Iterations <==

    Orbital Energies [Eh]
    ---------------------

    Doubly Occupied:

       1A    -20.582443     2A    -11.298210     3A    -11.240416
       4A    -11.238832     5A    -11.233935     6A    -11.232334
       7A    -11.230895     8A    -11.229855     9A    -11.214898
      10A    -11.213783    11A     -1.399455    12A     -1.150088
      13A     -1.038346    14A     -1.017768    15A     -1.010297
      16A     -0.926046    17A     -0.845287    18A     -0.832355
      19A     -0.801092    20A     -0.731488    21A     -0.666646
      22A     -0.641800    23A     -0.605302    24A     -0.598270
      25A     -0.592742    26A     -0.587491    27A     -0.584973
      28A     -0.577830    29A     -0.564305    30A     -0.521203
      31A     -0.493342    32A     -0.492212    33A     -0.486562
      34A     -0.484294    35A     -0.480976    36A     -0.465709
      37A     -0.337489    38A     -0.302632

    Virtual:

      39A      0.127402    40A      0.156362    41A      0.167778
      42A      0.179625    43A      0.205496    44A      0.209094
      45A      0.216889    46A      0.245401    47A      0.257233
      48A      0.261504    49A      0.267560    50A      0.272122
      51A      0.278585    52A      0.304044    53A      0.310447
      54A      0.319884    55A      0.372257    56A      0.374609
      57A      0.396055    58A      0.432174    59A      0.449023
      60A      0.476109    61A      0.497009    62A      0.514929
      63A      0.583948    64A      0.595344    65A      0.599487
      66A      0.619576    67A      0.635482    68A      0.648874
      69A      0.657162    70A      0.676496    71A      0.685469
      72A      0.690691    73A      0.715097    74A      0.718103
      75A      0.736292    76A      0.739727    77A      0.755279
      78A      0.770878    79A      0.788957    80A      0.796069
      81A      0.830482    82A      0.836371    83A      0.848445
      84A      0.858350    85A      0.869778    86A      0.873950
      87A      0.888386    88A      0.891443    89A      0.894250
      90A      0.906390    91A      0.911034    92A      0.917113
      93A      0.923880    94A      0.934281    95A      0.942537
      96A      0.947303    97A      0.979638    98A      0.991496
      99A      1.011187   100A      1.025226   101A      1.047494
     102A      1.062065   103A      1.115097   104A      1.125559
     105A      1.135934   106A      1.146620   107A      1.170279
     108A      1.183942   109A      1.202129   110A      1.230676
     111A      1.245651   112A      1.252334   113A      1.284404
     114A      1.286083   115A      1.303981   116A      1.308206
     117A      1.322267   118A      1.351803   119A      1.365392
     120A      1.394485   121A      1.473766   122A      1.478831
     123A      1.496567   124A      1.498472   125A      1.540975
     126A      1.553818   127A      1.585509   128A      1.608936
     129A      1.621764   130A      1.667769   131A      1.684211
     132A      1.694494   133A      1.701144   134A      1.743630
     135A      1.748630   136A      1.789238   137A      1.804222
     138A      1.814164   139A      1.865509   140A      1.874041
     141A      1.883666   142A      1.889434   143A      1.892737
     144A      1.905205   145A      1.907576   146A      1.924939
     147A      1.927323   148A      1.946094   149A      1.947725
     150A      1.956538   151A      1.960072   152A      1.968159
     153A      1.969825   154A      1.981598   155A      1.990841
     156A      2.011582   157A      2.037799   158A      2.052910
     159A      2.065721   160A      2.066449   161A      2.084442
     162A      2.107919   163A      2.122557   164A      2.127584
     165A      2.151644   166A      2.177405   167A      2.201654
     168A      2.224913   169A      2.262581   170A      2.271773
     171A      2.284436   172A      2.304336   173A      2.314270
     174A      2.325707   175A      2.370038   176A      2.428072
     177A      2.450015   178A      2.455218   179A      2.470504
     180A      2.477157   181A      2.505087   182A      2.506386
     183A      2.541295   184A      2.573037   185A      2.575747
     186A      2.616957   187A      2.652201   188A      2.749041
     189A      2.770760   190A      2.779767   191A      2.797441
     192A      2.803555   193A      2.808641   194A      2.820493
     195A      2.854653   196A      2.858572   197A      2.923191
     198A      2.949392   199A      2.971577   200A      2.980561
     201A      3.009864   202A      3.087898   203A      3.088933
     204A      3.250463   205A      3.276241   206A      3.347214
     207A      3.576066   208A      3.675071   209A      3.971181
     210A      4.194342

    Final Occupation by Irrep:
              A
    DOCC [    38 ]

  @RHF Final Energy:  -423.85168318851947

   => Energetics <=

    Nuclear Repulsion Energy =            507.3794900502962264
    One-Electron Energy =               -1580.5591363487062608
    Two-Electron Energy =                 649.3279631098905611
    Total Energy =                       -423.8516831885194733

Computation Completed

Properties will be evaluated at   0.000000,   0.000000,   0.000000 [a0]

Properties computed using the SCF density matrix

  Nuclear Dipole Moment: [e a0]
     X:    -9.2101      Y:     9.3302      Z:    -1.7033

  Electronic Dipole Moment: [e a0]
     X:     9.2803      Y:    -8.8126      Z:     1.6156

  Dipole Moment: [e a0]
     X:     0.0702      Y:     0.5175      Z:    -0.0877     Total:     0.5296

  Dipole Moment: [D]
     X:     0.1783      Y:     1.3154      Z:    -0.2228     Total:     1.3460

*** tstop() called on ds3 at Mon Apr 27 01:31:34 2020
Module time:
	user time   =      92.90 seconds =       1.55 minutes
	system time =      36.49 seconds =       0.61 minutes
	total time  =        126 seconds =       2.10 minutes
Total time:
	user time   =      92.90 seconds =       1.55 minutes
	system time =      36.49 seconds =       0.61 minutes
	total time  =        126 seconds =       2.10 minutes
                                     G D M A

                                 by Anthony Stone

                           version 2.2.06, 22 June 2011

               Distributed Multipoles from Gaussian wavefunctions

Starting at 1:31:34 on 27 Apr 2020

Using SCF density matrix from file ./SSI/SSI-003TYR-056ALA-1-dimer.test.12616.fchk

                         Distributed Multipole Analysis

Standard DMA

Positions and radii in angstrom
Multipole moments in atomic units, ea_0^k for rank k

C          x =  0.000660  y =  0.230749  z = -3.090950 angstrom
           Maximum rank =  0   Radius =  0.650 angstrom
                   Q00  =  -0.164589

C          x =  0.990660  y =  0.436749  z =  0.575050 angstrom
           Maximum rank =  0   Radius =  0.650 angstrom
                   Q00  =  -0.184956

C          x =  0.698660  y =  0.788749  z = -0.741950 angstrom
           Maximum rank =  0   Radius =  0.650 angstrom
                   Q00  =  -0.053390

C          x =  0.925660  y = -0.894251  z =  0.964050 angstrom
           Maximum rank =  0   Radius =  0.650 angstrom
                   Q00  =   0.389971

C          x =  0.327660  y = -0.181251  z = -1.675950 angstrom
           Maximum rank =  0   Radius =  0.650 angstrom
                   Q00  =  -0.147677

C          x =  0.563660  y = -1.877251  z =  0.059050 angstrom
           Maximum rank =  0   Radius =  0.650 angstrom
                   Q00  =  -0.113309

C          x =  0.276660  y = -1.519251  z = -1.263950 angstrom
           Maximum rank =  0   Radius =  0.650 angstrom
                   Q00  =  -0.009765

O          x =  1.216660  y = -1.237251  z =  2.250050 angstrom
           Maximum rank =  0   Radius =  0.650 angstrom
                   Q00  =  -0.679987

H          x =  1.281660  y =  1.198749  z =  1.286050 angstrom
           Maximum rank =  0   Radius =  0.325 angstrom
                   Q00  =   0.070526

H          x =  0.775660  y =  1.822749  z = -1.041950 angstrom
           Maximum rank =  0   Radius =  0.325 angstrom
                   Q00  =   0.070280

H          x =  1.424660  y = -0.466251  z =  2.791050 angstrom
           Maximum rank =  0   Radius =  0.325 angstrom
                   Q00  =   0.406825

H          x =  0.511660  y = -2.908251  z =  0.380050 angstrom
           Maximum rank =  0   Radius =  0.325 angstrom
                   Q00  =   0.082558

H          x =  0.375660  y =  1.243749  z = -3.218950 angstrom
           Maximum rank =  0   Radius =  0.325 angstrom
                   Q00  =   0.091509

H          x =  0.647660  y = -0.386251  z = -3.736950 angstrom
           Maximum rank =  0   Radius =  0.325 angstrom
                   Q00  =   0.084604

H          x = -0.013340  y = -2.287251  z = -1.967950 angstrom
           Maximum rank =  0   Radius =  0.325 angstrom
                   Q00  =   0.064076

H          x = -1.077507  y =  0.266019  z = -3.306150 angstrom
           Maximum rank =  0   Radius =  0.325 angstrom
                   Q00  =   0.095032

C          x = -2.287340  y =  1.668749  z =  1.894050 angstrom
           Maximum rank =  0   Radius =  0.650 angstrom
                   Q00  =  -0.238170

C          x = -2.292340  y =  2.159749  z =  0.435050 angstrom
           Maximum rank =  0   Radius =  0.650 angstrom
                   Q00  =  -0.233359

H          x = -2.562340  y =  2.483749  z =  2.566050 angstrom
           Maximum rank =  0   Radius =  0.325 angstrom
                   Q00  =   0.073128

H          x = -3.004340  y =  0.855749  z =  2.008050 angstrom
           Maximum rank =  0   Radius =  0.325 angstrom
                   Q00  =   0.082488

H          x = -1.295340  y =  1.302749  z =  2.159050 angstrom
           Maximum rank =  0   Radius =  0.325 angstrom
                   Q00  =   0.075528

H          x = -2.025340  y =  1.326749  z = -0.218950 angstrom
           Maximum rank =  0   Radius =  0.325 angstrom
                   Q00  =   0.092638

H          x = -1.573361  y =  2.981109  z =  0.299290 angstrom
           Maximum rank =  0   Radius =  0.325 angstrom
                   Q00  =   0.071077

H          x = -3.296091  y =  2.525469  z =  0.172890 angstrom
           Maximum rank =  0   Radius =  0.325 angstrom
                   Q00  =   0.074960

Total multipoles referred to origin at
           x =   0.000000,  y =    0.000000,  z =    0.000000 angstrom
                   Q00  =  -0.000000

Finished at 1:31:34 on 27 Apr 2020

  DMA results are available in the Python driver through the
	  variable('DMA DISTRIBUTED MULTIPOLES')
  and
	  variable('DMA TOTAL MULTIPOLES')
  commands.

    Psi4 stopped on: Monday, 27 April 2020 01:31AM
    Psi4 wall time for execution: 0:02:05.55

*** Psi4 exiting successfully. Buy a developer a beer!
