                               Psi4 1.3.2 release

  ==> Input File <==

--------------------------------------------------------------------------
import numpy as np
set {scf_type pk
basis cc-pvdz
d_convergence 10
gdma_switch   0
gdma_limit    0
gdma_origin   [ 0.0,  0.0,  0.0 ]
}
molecule test {
    units Angstrom
    1 1
    --
    1 1
    C                2.519732453975261    -2.669663032527675    -1.298716151326990
    C                0.473732453975261    -0.579663032527675     1.134283848673010
    C                1.033732453975261    -1.677663032527675     0.481283848673009
    C                0.786732453975261     0.711336967472325     0.704283848673009
    C                1.901732453975261    -1.492663032527675    -0.597716151326991
    C                1.648732453975261     0.899336967472325    -0.369716151326991
    C                2.199732453975261    -0.198663032527675    -1.012716151326991
    O                0.259732453975261     1.801336967472325     1.329283848673009
    H               -0.194267546024739    -0.733663032527675     1.971283848673009
    H                0.790732453975261    -2.679663032527675     0.810283848673009
    H               -0.279267546024739     1.573336967472325     2.096283848673009
    H                1.896732453975261     1.895336967472325    -0.698716151326991
    H                2.933732453975261    -2.358663032527675    -2.258716151326991
    H                1.731732453975261    -3.393663032527675    -1.497716151326990
    H                2.894732453975261    -0.050663032527675    -1.821716151326991
    H                3.302362453975261    -3.164293032527675    -0.704723151326991
    C               -2.695267546024739     0.511336967472325     0.014283848673009
    C               -2.708267546024739     1.039336967472325    -1.417716151326990
    N               -3.855267546024739     1.025336967472325     0.792283848673009
    H               -2.715267546024739    -0.584663032527675    -0.008716151326991
    H               -1.763267546024739     0.821336967472325     0.489283848673009
    H               -2.699267546024739     2.131336967472325    -1.393716151326990
    H               -3.625267546024739     0.718336967472325    -1.918716151326991
    H               -4.735267546024739     0.740336967472325     0.377283848673009
    H               -3.847267546024739     0.669336967472325     1.741283848673009
    H               -3.851267546024739     2.037336967472325     0.848283848673009
    H               -1.841607546024739     0.705176967472325    -2.006987151326991

}
e, wfn = energy('scf', return_wfn=True)
gdma(wfn)
dmavals = variable('DMA DISTRIBUTED MULTIPOLES')
charges = np.array(dmavals)
print(charges)
np.save('SSI-097TYR-179LYS-2-dimer.npy', np.array(charges))--------------------------------------------------------------------------

*** tstart() called on ds3
*** at Mon Apr 27 13:56:02 2020

   => Loading Basis Set <=

    Name: CC-PVDZ
    Role: ORBITAL
    Keyword: BASIS
    atoms 1-7, 17-18  entry C          line   138 file /theoryfs2/ds/metcalf/miniconda2/envs/tf2gpu/share/psi4/basis/cc-pvdz.gbs
    atoms 8           entry O          line   198 file /theoryfs2/ds/metcalf/miniconda2/envs/tf2gpu/share/psi4/basis/cc-pvdz.gbs
    atoms 9-16, 20-27 entry H          line    22 file /theoryfs2/ds/metcalf/miniconda2/envs/tf2gpu/share/psi4/basis/cc-pvdz.gbs
    atoms 19          entry N          line   168 file /theoryfs2/ds/metcalf/miniconda2/envs/tf2gpu/share/psi4/basis/cc-pvdz.gbs

         ---------------------------------------------------------
                                   SCF
               by Justin Turney, Rob Parrish, Andy Simmonett
                          and Daniel G. A. Smith
                              RHF Reference
                        1 Threads,    500 MiB Core
         ---------------------------------------------------------

  ==> Geometry <==

    Molecular point group: c1
    Full point group: C1

    Geometry (in Angstrom), charge = 1, multiplicity = 1:

       Center              X                  Y                   Z               Mass
    ------------   -----------------  -----------------  -----------------  -----------------
         C            2.519732453975    -2.669663032528    -1.298716151327    12.000000000000
         C            0.473732453975    -0.579663032528     1.134283848673    12.000000000000
         C            1.033732453975    -1.677663032528     0.481283848673    12.000000000000
         C            0.786732453975     0.711336967472     0.704283848673    12.000000000000
         C            1.901732453975    -1.492663032528    -0.597716151327    12.000000000000
         C            1.648732453975     0.899336967472    -0.369716151327    12.000000000000
         C            2.199732453975    -0.198663032528    -1.012716151327    12.000000000000
         O            0.259732453975     1.801336967472     1.329283848673    15.994914619570
         H           -0.194267546025    -0.733663032528     1.971283848673     1.007825032230
         H            0.790732453975    -2.679663032528     0.810283848673     1.007825032230
         H           -0.279267546025     1.573336967472     2.096283848673     1.007825032230
         H            1.896732453975     1.895336967472    -0.698716151327     1.007825032230
         H            2.933732453975    -2.358663032528    -2.258716151327     1.007825032230
         H            1.731732453975    -3.393663032528    -1.497716151327     1.007825032230
         H            2.894732453975    -0.050663032528    -1.821716151327     1.007825032230
         H            3.302362453975    -3.164293032528    -0.704723151327     1.007825032230
         C           -2.695267546025     0.511336967472     0.014283848673    12.000000000000
         C           -2.708267546025     1.039336967472    -1.417716151327    12.000000000000
         N           -3.855267546025     1.025336967472     0.792283848673    14.003074004430
         H           -2.715267546025    -0.584663032528    -0.008716151327     1.007825032230
         H           -1.763267546025     0.821336967472     0.489283848673     1.007825032230
         H           -2.699267546025     2.131336967472    -1.393716151327     1.007825032230
         H           -3.625267546025     0.718336967472    -1.918716151327     1.007825032230
         H           -4.735267546025     0.740336967472     0.377283848673     1.007825032230
         H           -3.847267546025     0.669336967472     1.741283848673     1.007825032230
         H           -3.851267546025     2.037336967472     0.848283848673     1.007825032230
         H           -1.841607546025     0.705176967472    -2.006987151327     1.007825032230

  Running in c1 symmetry.

  Rotational constants: A =      0.05238  B =      0.01692  C =      0.01556 [cm^-1]
  Rotational constants: A =   1570.32444  B =    507.20566  C =    466.60058 [MHz]
  Nuclear repulsion =  603.773096423278844

  Charge       = 1
  Multiplicity = 1
  Electrons    = 84
  Nalpha       = 42
  Nbeta        = 42

  ==> Algorithm <==

  SCF Algorithm Type is PK.
  DIIS enabled.
  MOM disabled.
  Fractional occupation disabled.
  Guess Type is SAD.
  Energy threshold   = 1.00e-06
  Density threshold  = 1.00e-10
  Integral threshold = 0.00e+00

  ==> Primary Basis <==

  Basis Set: CC-PVDZ
    Blend: CC-PVDZ
    Number of shells: 114
    Number of basis function: 234
    Number of Cartesian functions: 245
    Spherical Harmonics?: true
    Max angular momentum: 2

  ==> Pre-Iterations <==

   -------------------------------------------------------
    Irrep   Nso     Nmo     Nalpha   Nbeta   Ndocc  Nsocc
   -------------------------------------------------------
     A        234     234       0       0       0       0
   -------------------------------------------------------
    Total     234     234      42      42      42       0
   -------------------------------------------------------

  ==> Integral Setup <==

  Using integral reordering PK algorithm.
  Sizing the integral batches needed.
  Building batch lookup table.
   Calculation information:
      Number of atoms:                  27
      Number of AO shells:             114
      Number of primitives:            322
      Number of atomic orbitals:       245
      Number of basis functions:       234

      Integral cutoff                 1.00e-12
      Number of threads:                 1

	Batch   1 pq = [       0,    9405] index = [             0,44231715] size =     44231715
	Batch   2 pq = [    9405,   13301] index = [      44231715,88464951] size =     44233236
	Batch   3 pq = [   13301,   16290] index = [      88464951,132690195] size =     44225244
	Batch   4 pq = [   16290,   18810] index = [     132690195,176917455] size =     44227260
	Batch   5 pq = [   18810,   21030] index = [     176917455,221140965] size =     44223510
	Batch   6 pq = [   21030,   23037] index = [     221140965,265363203] size =     44222238
	Batch   7 pq = [   23037,   24883] index = [     265363203,309594286] size =     44231083
	Batch   8 pq = [   24883,   26601] index = [     309594286,353819901] size =     44225615
	Batch   9 pq = [   26601,   27495] index = [     353819901,378001260] size =     24181359
  Task number: 35
  Buffer size: 11059200
  Buffer per thread: 2
  We computed 19917084 shell quartets total.
  Whereas there are 21487290 unique shell quartets.

  ==> DiskJK: Disk-Based J/K Matrices <==

    J tasked:                  Yes
    K tasked:                  Yes
    wK tasked:                  No
    Memory [MiB]:              375
    Schwarz Cutoff:          1E-12

    OpenMP threads:              1

  Minimum eigenvalue in the overlap matrix is 3.1842340614E-04.
  Using Symmetric Orthogonalization.

  SCF Guess: Superposition of Atomic Densities via on-the-fly atomic UHF.

  ==> Iterations <==

                        Total Energy        Delta E     RMS |[F,P]|

   @RHF iter SAD:  -478.55429027451385   -4.78554e+02   0.00000e+00
   @RHF iter   1:  -478.98136708742771   -4.27077e-01   2.73485e-03 DIIS
   @RHF iter   2:  -479.21883781034819   -2.37471e-01   1.10680e-03 DIIS
   @RHF iter   3:  -479.25277098888660   -3.39332e-02   2.99721e-04 DIIS
   @RHF iter   4:  -479.25635698455551   -3.58600e-03   1.17800e-04 DIIS
   @RHF iter   5:  -479.25680169442620   -4.44710e-04   2.14139e-05 DIIS
   @RHF iter   6:  -479.25682550106660   -2.38066e-05   6.78064e-06 DIIS
   @RHF iter   7:  -479.25682764154556   -2.14048e-06   2.19174e-06 DIIS
   @RHF iter   8:  -479.25682790650524   -2.64960e-07   7.41191e-07 DIIS
   @RHF iter   9:  -479.25682793512186   -2.86166e-08   2.26151e-07 DIIS
   @RHF iter  10:  -479.25682793779367   -2.67181e-09   6.57697e-08 DIIS
   @RHF iter  11:  -479.25682793814059   -3.46915e-10   2.54706e-08 DIIS
   @RHF iter  12:  -479.25682793820499   -6.44036e-11   1.22282e-08 DIIS
   @RHF iter  13:  -479.25682793822853   -2.35332e-11   5.71960e-09 DIIS
   @RHF iter  14:  -479.25682793823785   -9.32232e-12   2.05273e-09 DIIS
   @RHF iter  15:  -479.25682793823768    1.70530e-13   7.74842e-10 DIIS
   @RHF iter  16:  -479.25682793823404    3.63798e-12   2.20031e-10 DIIS
   @RHF iter  17:  -479.25682793823688   -2.84217e-12   8.66689e-11 DIIS
  Energy and wave function converged.

  ==> Post-Iterations <==

    Orbital Energies [Eh]
    ---------------------

    Doubly Occupied:

       1A    -20.701583     2A    -15.903202     3A    -11.471619
       4A    -11.404033     5A    -11.397983     6A    -11.340847
       7A    -11.338236     8A    -11.331562     9A    -11.328863
      10A    -11.328465    11A    -11.308637    12A     -1.523046
      13A     -1.516708    14A     -1.250997    15A     -1.212459
      16A     -1.134395    17A     -1.119393    18A     -1.051186
      19A     -1.018831    20A     -0.979594    21A     -0.965713
      22A     -0.946623    23A     -0.903766    24A     -0.856721
      25A     -0.839675    26A     -0.791309    27A     -0.770166
      28A     -0.740678    29A     -0.717800    30A     -0.707336
      31A     -0.703908    32A     -0.689063    33A     -0.686452
      34A     -0.674137    35A     -0.669116    36A     -0.655224
      37A     -0.616992    38A     -0.592509    39A     -0.582070
      40A     -0.568194    41A     -0.439812    42A     -0.402899

    Virtual:

      43A     -0.050513    44A      0.011557    45A      0.018972
      46A      0.030074    47A      0.046646    48A      0.056497
      49A      0.070615    50A      0.089503    51A      0.102949
      52A      0.122279    53A      0.125489    54A      0.131077
      55A      0.134875    56A      0.163619    57A      0.168594
      58A      0.174254    59A      0.179014    60A      0.194638
      61A      0.213495    62A      0.217008    63A      0.274778
      64A      0.282247    65A      0.321000    66A      0.357519
      67A      0.377144    68A      0.387818    69A      0.394382
      70A      0.401818    71A      0.417789    72A      0.430721
      73A      0.439439    74A      0.445956    75A      0.520811
      76A      0.543151    77A      0.558930    78A      0.562040
      79A      0.589771    80A      0.594068    81A      0.608501
      82A      0.618845    83A      0.624155    84A      0.626888
      85A      0.636069    86A      0.640201    87A      0.650927
      88A      0.661222    89A      0.680627    90A      0.686116
      91A      0.692062    92A      0.708563    93A      0.719713
      94A      0.727805    95A      0.734001    96A      0.737623
      97A      0.750281    98A      0.762390    99A      0.772969
     100A      0.783262   101A      0.796249   102A      0.799962
     103A      0.804231   104A      0.809519   105A      0.816448
     106A      0.831021   107A      0.839319   108A      0.847561
     109A      0.851123   110A      0.860703   111A      0.866474
     112A      0.913452   113A      0.918720   114A      0.938227
     115A      0.957101   116A      0.982727   117A      1.029990
     118A      1.031737   119A      1.044307   120A      1.056405
     121A      1.071144   122A      1.119302   123A      1.140929
     124A      1.149668   125A      1.164892   126A      1.189605
     127A      1.202903   128A      1.206326   129A      1.216335
     130A      1.246282   131A      1.256042   132A      1.278260
     133A      1.283124   134A      1.307549   135A      1.359686
     136A      1.373671   137A      1.390411   138A      1.425394
     139A      1.445965   140A      1.464808   141A      1.470013
     142A      1.477671   143A      1.520036   144A      1.525397
     145A      1.527141   146A      1.594085   147A      1.610218
     148A      1.624291   149A      1.637425   150A      1.649512
     151A      1.662193   152A      1.691219   153A      1.695848
     154A      1.705444   155A      1.725924   156A      1.731066
     157A      1.747674   158A      1.768309   159A      1.778053
     160A      1.782824   161A      1.792828   162A      1.801520
     163A      1.817473   164A      1.820269   165A      1.824505
     166A      1.830471   167A      1.855068   168A      1.861057
     169A      1.871298   170A      1.880067   171A      1.887755
     172A      1.896809   173A      1.912457   174A      1.925317
     175A      1.938540   176A      1.950975   177A      1.961270
     178A      1.967197   179A      1.975575   180A      1.986762
     181A      2.003419   182A      2.036717   183A      2.039630
     184A      2.046012   185A      2.081700   186A      2.101947
     187A      2.124724   188A      2.136279   189A      2.154762
     190A      2.168467   191A      2.175003   192A      2.185659
     193A      2.212922   194A      2.261640   195A      2.288630
     196A      2.311847   197A      2.315583   198A      2.325390
     199A      2.351536   200A      2.379154   201A      2.387695
     202A      2.404893   203A      2.445286   204A      2.448589
     205A      2.453382   206A      2.520477   207A      2.524527
     208A      2.542915   209A      2.584645   210A      2.599803
     211A      2.641911   212A      2.648474   213A      2.682910
     214A      2.688984   215A      2.701676   216A      2.713933
     217A      2.751957   218A      2.764320   219A      2.789032
     220A      2.814278   221A      2.878299   222A      2.904199
     223A      2.911133   224A      2.994832   225A      3.035150
     226A      3.100613   227A      3.127234   228A      3.137042
     229A      3.185964   230A      3.235538   231A      3.466171
     232A      3.569875   233A      3.868615   234A      4.082566

    Final Occupation by Irrep:
              A
    DOCC [    42 ]

  @RHF Final Energy:  -479.25682793823688

   => Energetics <=

    Nuclear Repulsion Energy =            603.7730964232788438
    One-Electron Energy =               -1835.6962449203892902
    Two-Electron Energy =                 752.6663205588736218
    Total Energy =                       -479.2568279382369383

Computation Completed

Properties will be evaluated at   0.000000,   0.000000,   0.000000 [a0]

Properties computed using the SCF density matrix

  Nuclear Dipole Moment: [e a0]
     X:   -11.2391      Y:    -1.5631      Z:    -3.7230

  Electronic Dipole Moment: [e a0]
     X:     4.9238      Y:     2.6550      Z:     4.7504

  Dipole Moment: [e a0]
     X:    -6.3152      Y:     1.0919      Z:     1.0274     Total:     6.4908

  Dipole Moment: [D]
     X:   -16.0517      Y:     2.7753      Z:     2.6114     Total:    16.4979

*** tstop() called on ds3 at Mon Apr 27 13:59:16 2020
Module time:
	user time   =     143.80 seconds =       2.40 minutes
	system time =      57.50 seconds =       0.96 minutes
	total time  =        194 seconds =       3.23 minutes
Total time:
	user time   =     143.80 seconds =       2.40 minutes
	system time =      57.50 seconds =       0.96 minutes
	total time  =        194 seconds =       3.23 minutes
                                     G D M A

                                 by Anthony Stone

                           version 2.2.06, 22 June 2011

               Distributed Multipoles from Gaussian wavefunctions

Starting at 13:59:16 on 27 Apr 2020

Using SCF density matrix from file ./SSI/SSI-097TYR-179LYS-2-dimer.test.8309.fchk

                         Distributed Multipole Analysis

Standard DMA

Positions and radii in angstrom
Multipole moments in atomic units, ea_0^k for rank k

C          x =  2.519732  y = -2.669663  z = -1.298716 angstrom
           Maximum rank =  0   Radius =  0.650 angstrom
                   Q00  =  -0.192796

C          x =  0.473732  y = -0.579663  z =  1.134284 angstrom
           Maximum rank =  0   Radius =  0.650 angstrom
                   Q00  =  -0.212453

C          x =  1.033732  y = -1.677663  z =  0.481284 angstrom
           Maximum rank =  0   Radius =  0.650 angstrom
                   Q00  =  -0.067575

C          x =  0.786732  y =  0.711337  z =  0.704284 angstrom
           Maximum rank =  0   Radius =  0.650 angstrom
                   Q00  =   0.316588

C          x =  1.901732  y = -1.492663  z = -0.597716 angstrom
           Maximum rank =  0   Radius =  0.650 angstrom
                   Q00  =  -0.124580

C          x =  1.648732  y =  0.899337  z = -0.369716 angstrom
           Maximum rank =  0   Radius =  0.650 angstrom
                   Q00  =  -0.100807

C          x =  2.199732  y = -0.198663  z = -1.012716 angstrom
           Maximum rank =  0   Radius =  0.650 angstrom
                   Q00  =   0.039364

O          x =  0.259732  y =  1.801337  z =  1.329284 angstrom
           Maximum rank =  0   Radius =  0.650 angstrom
                   Q00  =  -0.660869

H          x = -0.194268  y = -0.733663  z =  1.971284 angstrom
           Maximum rank =  0   Radius =  0.325 angstrom
                   Q00  =   0.060933

H          x =  0.790732  y = -2.679663  z =  0.810284 angstrom
           Maximum rank =  0   Radius =  0.325 angstrom
                   Q00  =   0.082291

H          x = -0.279268  y =  1.573337  z =  2.096284 angstrom
           Maximum rank =  0   Radius =  0.325 angstrom
                   Q00  =   0.393286

H          x =  1.896732  y =  1.895337  z = -0.698716 angstrom
           Maximum rank =  0   Radius =  0.325 angstrom
                   Q00  =   0.090589

H          x =  2.933732  y = -2.358663  z = -2.258716 angstrom
           Maximum rank =  0   Radius =  0.325 angstrom
                   Q00  =   0.105669

H          x =  1.731732  y = -3.393663  z = -1.497716 angstrom
           Maximum rank =  0   Radius =  0.325 angstrom
                   Q00  =   0.097588

H          x =  2.894732  y = -0.050663  z = -1.821716 angstrom
           Maximum rank =  0   Radius =  0.325 angstrom
                   Q00  =   0.082667

H          x =  3.302362  y = -3.164293  z = -0.704723 angstrom
           Maximum rank =  0   Radius =  0.325 angstrom
                   Q00  =   0.116057

C          x = -2.695268  y =  0.511337  z =  0.014284 angstrom
           Maximum rank =  0   Radius =  0.650 angstrom
                   Q00  =  -0.019367

C          x = -2.708268  y =  1.039337  z = -1.417716 angstrom
           Maximum rank =  0   Radius =  0.650 angstrom
                   Q00  =  -0.219229

N          x = -3.855268  y =  1.025337  z =  0.792284 angstrom
           Maximum rank =  0   Radius =  0.650 angstrom
                   Q00  =  -0.138012

H          x = -2.715268  y = -0.584663  z = -0.008716 angstrom
           Maximum rank =  0   Radius =  0.325 angstrom
                   Q00  =   0.127160

H          x = -1.763268  y =  0.821337  z =  0.489284 angstrom
           Maximum rank =  0   Radius =  0.325 angstrom
                   Q00  =   0.095607

H          x = -2.699268  y =  2.131337  z = -1.393716 angstrom
           Maximum rank =  0   Radius =  0.325 angstrom
                   Q00  =   0.099903

H          x = -3.625268  y =  0.718337  z = -1.918716 angstrom
           Maximum rank =  0   Radius =  0.325 angstrom
                   Q00  =   0.098514

H          x = -4.735268  y =  0.740337  z =  0.377284 angstrom
           Maximum rank =  0   Radius =  0.325 angstrom
                   Q00  =   0.255320

H          x = -3.847268  y =  0.669337  z =  1.741284 angstrom
           Maximum rank =  0   Radius =  0.325 angstrom
                   Q00  =   0.253277

H          x = -3.851268  y =  2.037337  z =  0.848284 angstrom
           Maximum rank =  0   Radius =  0.325 angstrom
                   Q00  =   0.258343

H          x = -1.841608  y =  0.705177  z = -2.006987 angstrom
           Maximum rank =  0   Radius =  0.325 angstrom
                   Q00  =   0.162530

Total multipoles referred to origin at
           x =   0.000000,  y =    0.000000,  z =    0.000000 angstrom
                   Q00  =   1.000000

Finished at 13:59:16 on 27 Apr 2020

  DMA results are available in the Python driver through the
	  variable('DMA DISTRIBUTED MULTIPOLES')
  and
	  variable('DMA TOTAL MULTIPOLES')
  commands.

    Psi4 stopped on: Monday, 27 April 2020 01:59PM
    Psi4 wall time for execution: 0:03:13.53

*** Psi4 exiting successfully. Buy a developer a beer!
