                               Psi4 1.3.2 release

  ==> Input File <==

--------------------------------------------------------------------------
import numpy as np
set {scf_type pk
basis cc-pvdz
d_convergence 10
gdma_switch   0
gdma_limit    0
gdma_origin   [ 0.0,  0.0,  0.0 ]
}
molecule test {
    units Angstrom
    0 1
    --
    0 1
    C                3.928730713464684     0.638977297573335     1.247945753782012
    C                0.981730713464684    -1.136022702426665    -0.095054246217988
    C                1.527730713464684     0.029977297573335     0.526945753782012
    C                2.923730713464684    -0.250022702426665     0.655945753782012
    C                3.127730713464684    -1.468022702426665     0.107945753782012
    C               -0.927269286535316    -0.305022702426665    -0.328054246217988
    C               -0.309269286535316    -1.430022702426665    -0.452054246217988
    C               -0.549269286535316     0.951977297573335     0.350945753782012
    C                0.673730713464684     1.083977297573335     0.840945753782012
    N                1.994730713464684    -1.998022702426665    -0.312054246217988
    H               -1.342269286535316    -0.294022702426665    -1.306054246217988
    H               -0.621269286535316    -2.279022702426665    -1.027054246217987
    H               -1.066269286535316     1.843977297573335     0.126945753782012
    H                1.037730713464684     2.014977297573335     1.250945753782013
    H                1.926730713464684    -2.869022702426665    -0.820054246217988
    H                4.071730713464683    -1.801022702426665    -0.242054246217988
    H                4.341730713464685     0.172977297573335     2.143945753782012
    H                3.420730713464684     1.555977297573335     1.548945753782012
    H                4.731490713464685     0.875472297573335     0.534055753782012
    C               -4.568269286535315     0.760977297573335    -0.761054246217988
    C               -4.595269286535316     2.263977297573335    -0.933054246217988
    C               -3.185269286535316     0.440977297573335    -0.479054246217988
    H               -5.227269286535315     0.445977297573335     0.049945753782012
    H               -4.888269286535316     0.261977297573335    -1.667054246217988
    H               -3.918269286535316     2.521977297573335    -1.747054246217987
    H               -3.208269286535316    -0.613022702426665    -0.756054246217988
    H               -2.621269286535316     1.107977297573335    -1.137054246217988
    H               -4.275739286535315     2.878390297573335    -0.078424246217988
    H               -5.592392286535316     2.603905297573335    -1.249594246217987
    H               -2.920059286535316     0.500395297573335     0.586845753782012

}
e, wfn = energy('scf', return_wfn=True)
gdma(wfn)
dmavals = variable('DMA DISTRIBUTED MULTIPOLES')
charges = np.array(dmavals)
print(charges)
np.save('SSI-092TRP-100GLN-1-dimer.npy', np.array(charges))--------------------------------------------------------------------------

*** tstart() called on ds3
*** at Tue Apr 28 14:13:04 2020

   => Loading Basis Set <=

    Name: CC-PVDZ
    Role: ORBITAL
    Keyword: BASIS
    atoms 1-9, 20-22   entry C          line   138 file /theoryfs2/ds/metcalf/miniconda2/envs/tf2gpu/share/psi4/basis/cc-pvdz.gbs
    atoms 10           entry N          line   168 file /theoryfs2/ds/metcalf/miniconda2/envs/tf2gpu/share/psi4/basis/cc-pvdz.gbs
    atoms 11-19, 23-30 entry H          line    22 file /theoryfs2/ds/metcalf/miniconda2/envs/tf2gpu/share/psi4/basis/cc-pvdz.gbs

         ---------------------------------------------------------
                                   SCF
               by Justin Turney, Rob Parrish, Andy Simmonett
                          and Daniel G. A. Smith
                              RHF Reference
                        1 Threads,    500 MiB Core
         ---------------------------------------------------------

  ==> Geometry <==

    Molecular point group: c1
    Full point group: C1

    Geometry (in Angstrom), charge = 0, multiplicity = 1:

       Center              X                  Y                   Z               Mass
    ------------   -----------------  -----------------  -----------------  -----------------
         C            3.928730713465     0.638977297573     1.247945753782    12.000000000000
         C            0.981730713465    -1.136022702427    -0.095054246218    12.000000000000
         C            1.527730713465     0.029977297573     0.526945753782    12.000000000000
         C            2.923730713465    -0.250022702427     0.655945753782    12.000000000000
         C            3.127730713465    -1.468022702427     0.107945753782    12.000000000000
         C           -0.927269286535    -0.305022702427    -0.328054246218    12.000000000000
         C           -0.309269286535    -1.430022702427    -0.452054246218    12.000000000000
         C           -0.549269286535     0.951977297573     0.350945753782    12.000000000000
         C            0.673730713465     1.083977297573     0.840945753782    12.000000000000
         N            1.994730713465    -1.998022702427    -0.312054246218    14.003074004430
         H           -1.342269286535    -0.294022702427    -1.306054246218     1.007825032230
         H           -0.621269286535    -2.279022702427    -1.027054246218     1.007825032230
         H           -1.066269286535     1.843977297573     0.126945753782     1.007825032230
         H            1.037730713465     2.014977297573     1.250945753782     1.007825032230
         H            1.926730713465    -2.869022702427    -0.820054246218     1.007825032230
         H            4.071730713465    -1.801022702427    -0.242054246218     1.007825032230
         H            4.341730713465     0.172977297573     2.143945753782     1.007825032230
         H            3.420730713465     1.555977297573     1.548945753782     1.007825032230
         H            4.731490713465     0.875472297573     0.534055753782     1.007825032230
         C           -4.568269286535     0.760977297573    -0.761054246218    12.000000000000
         C           -4.595269286535     2.263977297573    -0.933054246218    12.000000000000
         C           -3.185269286535     0.440977297573    -0.479054246218    12.000000000000
         H           -5.227269286535     0.445977297573     0.049945753782     1.007825032230
         H           -4.888269286535     0.261977297573    -1.667054246218     1.007825032230
         H           -3.918269286535     2.521977297573    -1.747054246218     1.007825032230
         H           -3.208269286535    -0.613022702427    -0.756054246218     1.007825032230
         H           -2.621269286535     1.107977297573    -1.137054246218     1.007825032230
         H           -4.275739286535     2.878390297573    -0.078424246218     1.007825032230
         H           -5.592392286535     2.603905297573    -1.249594246218     1.007825032230
         H           -2.920059286535     0.500395297573     0.586845753782     1.007825032230

  Running in c1 symmetry.

  Rotational constants: A =      0.07226  B =      0.01117  C =      0.00984 [cm^-1]
  Rotational constants: A =   2166.27730  B =    334.86777  C =    294.84683 [MHz]
  Nuclear repulsion =  760.525007982814827

  Charge       = 0
  Multiplicity = 1
  Electrons    = 96
  Nalpha       = 48
  Nbeta        = 48

  ==> Algorithm <==

  SCF Algorithm Type is PK.
  DIIS enabled.
  MOM disabled.
  Fractional occupation disabled.
  Guess Type is SAD.
  Energy threshold   = 1.00e-06
  Density threshold  = 1.00e-10
  Integral threshold = 0.00e+00

  ==> Primary Basis <==

  Basis Set: CC-PVDZ
    Blend: CC-PVDZ
    Number of shells: 129
    Number of basis function: 267
    Number of Cartesian functions: 280
    Spherical Harmonics?: true
    Max angular momentum: 2

  ==> Pre-Iterations <==

   -------------------------------------------------------
    Irrep   Nso     Nmo     Nalpha   Nbeta   Ndocc  Nsocc
   -------------------------------------------------------
     A        267     267       0       0       0       0
   -------------------------------------------------------
    Total     267     267      48      48      48       0
   -------------------------------------------------------

  ==> Integral Setup <==

  Using integral reordering PK algorithm.
  Sizing the integral batches needed.
  Building batch lookup table.
   Calculation information:
      Number of atoms:                  30
      Number of AO shells:             129
      Number of primitives:            371
      Number of atomic orbitals:       280
      Number of basis functions:       267

      Integral cutoff                 1.00e-12
      Number of threads:                 1

	Batch   1 pq = [       0,    9405] index = [             0,44231715] size =     44231715
	Batch   2 pq = [    9405,   13301] index = [      44231715,88464951] size =     44233236
	Batch   3 pq = [   13301,   16290] index = [      88464951,132690195] size =     44225244
	Batch   4 pq = [   16290,   18810] index = [     132690195,176917455] size =     44227260
	Batch   5 pq = [   18810,   21030] index = [     176917455,221140965] size =     44223510
	Batch   6 pq = [   21030,   23037] index = [     221140965,265363203] size =     44222238
	Batch   7 pq = [   23037,   24883] index = [     265363203,309594286] size =     44231083
	Batch   8 pq = [   24883,   26601] index = [     309594286,353819901] size =     44225615
	Batch   9 pq = [   26601,   28214] index = [     353819901,398029005] size =     44209104
	Batch  10 pq = [   28214,   29740] index = [     398029005,442248670] size =     44219665
	Batch  11 pq = [   29740,   31191] index = [     442248670,486454836] size =     44206166
	Batch  12 pq = [   31191,   32578] index = [     486454836,530679331] size =     44224495
	Batch  13 pq = [   32578,   33908] index = [     530679331,574893186] size =     44213855
	Batch  14 pq = [   33908,   35188] index = [     574893186,619115266] size =     44222080
	Batch  15 pq = [   35188,   35778] index = [     619115266,640050531] size =     20935265
  Task number: 58
  Buffer size: 11059200
  Buffer per thread: 2
  We computed 32707896 shell quartets total.
  Whereas there are 35158305 unique shell quartets.

  ==> DiskJK: Disk-Based J/K Matrices <==

    J tasked:                  Yes
    K tasked:                  Yes
    wK tasked:                  No
    Memory [MiB]:              375
    Schwarz Cutoff:          1E-12

    OpenMP threads:              1

  Minimum eigenvalue in the overlap matrix is 2.7184699514E-04.
  Using Symmetric Orthogonalization.

  SCF Guess: Superposition of Atomic Densities via on-the-fly atomic UHF.

  ==> Iterations <==

                        Total Energy        Delta E     RMS |[F,P]|

   @RHF iter SAD:  -519.28418811771564   -5.19284e+02   0.00000e+00
   @RHF iter   1:  -518.26228039085686    1.02191e+00   2.67261e-03 DIIS
   @RHF iter   2:  -518.55146690442007   -2.89187e-01   1.19239e-03 DIIS
   @RHF iter   3:  -518.60462734402461   -5.31604e-02   2.99163e-04 DIIS
   @RHF iter   4:  -518.60921445363033   -4.58711e-03   1.33929e-04 DIIS
   @RHF iter   5:  -518.60994841043464   -7.33957e-04   2.36867e-05 DIIS
   @RHF iter   6:  -518.61000032481672   -5.19144e-05   1.11408e-05 DIIS
   @RHF iter   7:  -518.61001611697407   -1.57922e-05   5.32813e-06 DIIS
   @RHF iter   8:  -518.61002170329220   -5.58632e-06   2.43079e-06 DIIS
   @RHF iter   9:  -518.61002305725344   -1.35396e-06   1.07154e-06 DIIS
   @RHF iter  10:  -518.61002326882738   -2.11574e-07   4.09802e-07 DIIS
   @RHF iter  11:  -518.61002329765893   -2.88316e-08   1.75667e-07 DIIS
   @RHF iter  12:  -518.61002330235817   -4.69925e-09   6.60670e-08 DIIS
   @RHF iter  13:  -518.61002330287897   -5.20799e-10   2.28508e-08 DIIS
   @RHF iter  14:  -518.61002330296913   -9.01537e-11   1.20617e-08 DIIS
   @RHF iter  15:  -518.61002330298948   -2.03499e-11   5.39224e-09 DIIS
   @RHF iter  16:  -518.61002330300039   -1.09139e-11   2.00846e-09 DIIS
   @RHF iter  17:  -518.61002330299800    2.38742e-12   9.27709e-10 DIIS
   @RHF iter  18:  -518.61002330299902   -1.02318e-12   3.05502e-10 DIIS
   @RHF iter  19:  -518.61002330300221   -3.18323e-12   1.49078e-10 DIIS
   @RHF iter  20:  -518.61002330299834    3.86535e-12   5.66664e-11 DIIS
  Energy and wave function converged.

  ==> Post-Iterations <==

    Orbital Energies [Eh]
    ---------------------

    Doubly Occupied:

       1A    -15.591301     2A    -11.255127     3A    -11.235831
       4A    -11.226679     5A    -11.217844     6A    -11.217354
       7A    -11.209580     8A    -11.209243     9A    -11.206552
      10A    -11.205276    11A    -11.203123    12A    -11.198098
      13A    -11.192791    14A     -1.312604    15A     -1.151690
      16A     -1.085862    17A     -1.072521    18A     -1.027539
      19A     -0.977336    20A     -0.933100    21A     -0.915259
      22A     -0.835338    23A     -0.811070    24A     -0.780244
      25A     -0.756594    26A     -0.729704    27A     -0.662246
      28A     -0.640846    29A     -0.632469    30A     -0.626871
      31A     -0.607385    32A     -0.603987    33A     -0.588841
      34A     -0.563043    35A     -0.552996    36A     -0.541294
      37A     -0.539723    38A     -0.527458    39A     -0.502388
      40A     -0.496267    41A     -0.483496    42A     -0.475640
      43A     -0.457622    44A     -0.447203    45A     -0.416862
      46A     -0.359273    47A     -0.291301    48A     -0.249822

    Virtual:

      49A      0.130774    50A      0.155808    51A      0.177760
      52A      0.182334    53A      0.195885    54A      0.208854
      55A      0.212064    56A      0.220641    57A      0.235719
      58A      0.239475    59A      0.244106    60A      0.255350
      61A      0.270428    62A      0.285445    63A      0.291016
      64A      0.296094    65A      0.299478    66A      0.315803
      67A      0.322858    68A      0.359139    69A      0.367823
      70A      0.384901    71A      0.421725    72A      0.425230
      73A      0.435768    74A      0.455763    75A      0.456828
      76A      0.482406    77A      0.492810    78A      0.536292
      79A      0.549114    80A      0.589304    81A      0.601861
      82A      0.617809    83A      0.633445    84A      0.644110
      85A      0.650606    86A      0.661119    87A      0.664990
      88A      0.671625    89A      0.685051    90A      0.696823
      91A      0.710674    92A      0.719486    93A      0.725851
      94A      0.736284    95A      0.743366    96A      0.753083
      97A      0.759203    98A      0.773541    99A      0.784205
     100A      0.799994   101A      0.803857   102A      0.820409
     103A      0.844262   104A      0.864574   105A      0.866742
     106A      0.876304   107A      0.881546   108A      0.886309
     109A      0.894370   110A      0.897829   111A      0.904212
     112A      0.907051   113A      0.915811   114A      0.922715
     115A      0.926172   116A      0.942424   117A      0.946428
     118A      0.948337   119A      0.951196   120A      0.955959
     121A      0.979127   122A      0.983101   123A      0.988625
     124A      1.002465   125A      1.022817   126A      1.026347
     127A      1.037602   128A      1.052944   129A      1.072339
     130A      1.088595   131A      1.098378   132A      1.109456
     133A      1.136539   134A      1.144358   135A      1.158321
     136A      1.183662   137A      1.203553   138A      1.206239
     139A      1.207617   140A      1.226856   141A      1.245401
     142A      1.264660   143A      1.285925   144A      1.296192
     145A      1.317630   146A      1.346651   147A      1.366655
     148A      1.386945   149A      1.406451   150A      1.415837
     151A      1.453055   152A      1.468945   153A      1.483488
     154A      1.488269   155A      1.512854   156A      1.535095
     157A      1.559820   158A      1.566925   159A      1.581333
     160A      1.609849   161A      1.630453   162A      1.632222
     163A      1.655722   164A      1.661274   165A      1.677612
     166A      1.685096   167A      1.707170   168A      1.710735
     169A      1.733556   170A      1.747024   171A      1.766503
     172A      1.785661   173A      1.792915   174A      1.821029
     175A      1.827794   176A      1.839341   177A      1.867229
     178A      1.872289   179A      1.881408   180A      1.889476
     181A      1.893612   182A      1.902248   183A      1.911242
     184A      1.915844   185A      1.927648   186A      1.938673
     187A      1.946526   188A      1.962243   189A      1.962913
     190A      1.970668   191A      1.986799   192A      1.990297
     193A      1.999643   194A      2.008995   195A      2.011668
     196A      2.022959   197A      2.043144   198A      2.058123
     199A      2.069223   200A      2.072942   201A      2.090120
     202A      2.102776   203A      2.122857   204A      2.136255
     205A      2.149315   206A      2.176441   207A      2.192335
     208A      2.198467   209A      2.211486   210A      2.220568
     211A      2.232125   212A      2.237693   213A      2.255158
     214A      2.273141   215A      2.287048   216A      2.316786
     217A      2.330373   218A      2.354400   219A      2.363807
     220A      2.384956   221A      2.400409   222A      2.407291
     223A      2.424269   224A      2.445645   225A      2.455333
     226A      2.473458   227A      2.487708   228A      2.496781
     229A      2.521537   230A      2.539004   231A      2.571937
     232A      2.581717   233A      2.613039   234A      2.620789
     235A      2.627714   236A      2.667095   237A      2.673266
     238A      2.680203   239A      2.706929   240A      2.720541
     241A      2.750112   242A      2.762311   243A      2.764645
     244A      2.784748   245A      2.795171   246A      2.825495
     247A      2.839367   248A      2.857272   249A      2.869386
     250A      2.881345   251A      2.883532   252A      2.920678
     253A      2.937895   254A      2.958413   255A      2.975266
     256A      2.994763   257A      3.030344   258A      3.042289
     259A      3.065103   260A      3.085794   261A      3.115719
     262A      3.154590   263A      3.216029   264A      3.302004
     265A      3.446502   266A      3.779643   267A      3.809031

    Final Occupation by Irrep:
              A
    DOCC [    48 ]

  @RHF Final Energy:  -518.61002330299834

   => Energetics <=

    Nuclear Repulsion Energy =            760.5250079828148273
    One-Electron Energy =               -2210.6206827973364852
    Two-Electron Energy =                 931.4856515115234288
    Total Energy =                       -518.6100233029983428

Computation Completed

Properties will be evaluated at   0.000000,   0.000000,   0.000000 [a0]

Properties computed using the SCF density matrix

  Nuclear Dipole Moment: [e a0]
     X:   -15.1471      Y:     8.3754      Z:    -3.5510

  Electronic Dipole Moment: [e a0]
     X:    15.5316      Y:    -9.0315      Z:     2.8682

  Dipole Moment: [e a0]
     X:     0.3845      Y:    -0.6561      Z:    -0.6828     Total:     1.0220

  Dipole Moment: [D]
     X:     0.9774      Y:    -1.6677      Z:    -1.7354     Total:     2.5977

*** tstop() called on ds3 at Tue Apr 28 14:19:20 2020
Module time:
	user time   =     266.34 seconds =       4.44 minutes
	system time =     106.04 seconds =       1.77 minutes
	total time  =        376 seconds =       6.27 minutes
Total time:
	user time   =     266.34 seconds =       4.44 minutes
	system time =     106.04 seconds =       1.77 minutes
	total time  =        376 seconds =       6.27 minutes
                                     G D M A

                                 by Anthony Stone

                           version 2.2.06, 22 June 2011

               Distributed Multipoles from Gaussian wavefunctions

Starting at 14:19:20 on 28 Apr 2020

Using SCF density matrix from file ./SSI/SSI-092TRP-100GLN-1-dimer.test.8350.fchk

                         Distributed Multipole Analysis

Standard DMA

Positions and radii in angstrom
Multipole moments in atomic units, ea_0^k for rank k

C          x =  3.928731  y =  0.638977  z =  1.247946 angstrom
           Maximum rank =  0   Radius =  0.650 angstrom
                   Q00  =  -0.210861

C          x =  0.981731  y = -1.136023  z = -0.095054 angstrom
           Maximum rank =  0   Radius =  0.650 angstrom
                   Q00  =   0.190374

C          x =  1.527731  y =  0.029977  z =  0.526946 angstrom
           Maximum rank =  0   Radius =  0.650 angstrom
                   Q00  =  -0.085757

C          x =  2.923731  y = -0.250023  z =  0.655946 angstrom
           Maximum rank =  0   Radius =  0.650 angstrom
                   Q00  =  -0.123338

C          x =  3.127731  y = -1.468023  z =  0.107946 angstrom
           Maximum rank =  0   Radius =  0.650 angstrom
                   Q00  =   0.044873

C          x = -0.927269  y = -0.305023  z = -0.328054 angstrom
           Maximum rank =  0   Radius =  0.650 angstrom
                   Q00  =  -0.081181

C          x = -0.309269  y = -1.430023  z = -0.452054 angstrom
           Maximum rank =  0   Radius =  0.650 angstrom
                   Q00  =   0.023337

C          x = -0.549269  y =  0.951977  z =  0.350946 angstrom
           Maximum rank =  0   Radius =  0.650 angstrom
                   Q00  =  -0.169634

C          x =  0.673731  y =  1.083977  z =  0.840946 angstrom
           Maximum rank =  0   Radius =  0.650 angstrom
                   Q00  =  -0.031699

N          x =  1.994731  y = -1.998023  z = -0.312054 angstrom
           Maximum rank =  0   Radius =  0.650 angstrom
                   Q00  =  -0.432810

H          x = -1.342269  y = -0.294023  z = -1.306054 angstrom
           Maximum rank =  0   Radius =  0.325 angstrom
                   Q00  =   0.057585

H          x = -0.621269  y = -2.279023  z = -1.027054 angstrom
           Maximum rank =  0   Radius =  0.325 angstrom
                   Q00  =   0.068381

H          x = -1.066269  y =  1.843977  z =  0.126946 angstrom
           Maximum rank =  0   Radius =  0.325 angstrom
                   Q00  =   0.067220

H          x =  1.037731  y =  2.014977  z =  1.250946 angstrom
           Maximum rank =  0   Radius =  0.325 angstrom
                   Q00  =   0.077920

H          x =  1.926731  y = -2.869023  z = -0.820054 angstrom
           Maximum rank =  0   Radius =  0.325 angstrom
                   Q00  =   0.209119

H          x =  4.071731  y = -1.801023  z = -0.242054 angstrom
           Maximum rank =  0   Radius =  0.325 angstrom
                   Q00  =   0.091333

H          x =  4.341731  y =  0.172977  z =  2.143946 angstrom
           Maximum rank =  0   Radius =  0.325 angstrom
                   Q00  =   0.102099

H          x =  3.420731  y =  1.555977  z =  1.548946 angstrom
           Maximum rank =  0   Radius =  0.325 angstrom
                   Q00  =   0.100845

H          x =  4.731491  y =  0.875472  z =  0.534056 angstrom
           Maximum rank =  0   Radius =  0.325 angstrom
                   Q00  =   0.094206

C          x = -4.568269  y =  0.760977  z = -0.761054 angstrom
           Maximum rank =  0   Radius =  0.650 angstrom
                   Q00  =  -0.008789

C          x = -4.595269  y =  2.263977  z = -0.933054 angstrom
           Maximum rank =  0   Radius =  0.650 angstrom
                   Q00  =  -0.264093

C          x = -3.185269  y =  0.440977  z = -0.479054 angstrom
           Maximum rank =  0   Radius =  0.650 angstrom
                   Q00  =  -0.109767

H          x = -5.227269  y =  0.445977  z =  0.049946 angstrom
           Maximum rank =  0   Radius =  0.325 angstrom
                   Q00  =   0.055570

H          x = -4.888269  y =  0.261977  z = -1.667054 angstrom
           Maximum rank =  0   Radius =  0.325 angstrom
                   Q00  =   0.048049

H          x = -3.918269  y =  2.521977  z = -1.747054 angstrom
           Maximum rank =  0   Radius =  0.325 angstrom
                   Q00  =   0.059060

H          x = -3.208269  y = -0.613023  z = -0.756054 angstrom
           Maximum rank =  0   Radius =  0.325 angstrom
                   Q00  =   0.017568

H          x = -2.621269  y =  1.107977  z = -1.137054 angstrom
           Maximum rank =  0   Radius =  0.325 angstrom
                   Q00  =  -0.008909

H          x = -4.275739  y =  2.878390  z = -0.078424 angstrom
           Maximum rank =  0   Radius =  0.325 angstrom
                   Q00  =   0.077889

H          x = -5.592392  y =  2.603905  z = -1.249594 angstrom
           Maximum rank =  0   Radius =  0.325 angstrom
                   Q00  =   0.071507

H          x = -2.920059  y =  0.500395  z =  0.586846 angstrom
           Maximum rank =  0   Radius =  0.325 angstrom
                   Q00  =   0.069902

Total multipoles referred to origin at
           x =   0.000000,  y =    0.000000,  z =    0.000000 angstrom
                   Q00  =  -0.000000

Finished at 14:19:20 on 28 Apr 2020

  DMA results are available in the Python driver through the
	  variable('DMA DISTRIBUTED MULTIPOLES')
  and
	  variable('DMA TOTAL MULTIPOLES')
  commands.

    Psi4 stopped on: Tuesday, 28 April 2020 02:19PM
    Psi4 wall time for execution: 0:06:15.56

*** Psi4 exiting successfully. Buy a developer a beer!
