                               Psi4 1.3.2 release

  ==> Input File <==

--------------------------------------------------------------------------
import numpy as np
set {scf_type pk
basis cc-pvdz
d_convergence 10
gdma_switch   0
gdma_limit    0
gdma_origin   [ 0.0,  0.0,  0.0 ]
}
molecule test {
    units Angstrom
    0 1
    --
    0 1
    C                2.179693163552269     1.027453523566639     0.284572672400558
    C                3.541693163552269     0.979453523566639     0.973572672400558
    H                2.089693163552270     1.927453523566639    -0.323427327599442
    H                2.073693163552270     0.153453523566639    -0.358427327599442
    H                1.386693163552269     1.013453523566639     1.029572672400558
    H                3.572693163552270     0.094453523566639     1.611572672400558
    H                3.706783163552270     1.895033523566639     1.560481672400558
    H                4.351683163552270     0.919263523566639     0.231750672400558
    C               -1.824306836447731    -0.165546476433361     2.066572672400558
    C               -1.460306836447730     0.781453523566639    -0.233427327599442
    C               -1.252306836447731    -0.251546476433361     0.679572672400558
    C               -0.978306836447731     0.677453523566639    -1.540427327599442
    C               -0.285306836447731    -0.463546476433361    -1.940427327599442
    C               -0.551306836447730    -1.389546476433361     0.275572672400558
    C               -0.071306836447730    -1.497546476433361    -1.028427327599442
    H               -2.006306836447731     1.666453523566639     0.067572672400558
    H               -1.145306836447730     1.466453523566639    -2.246427327599442
    H               -1.631306836447730     0.839453523566639     2.431572672400558
    H               -1.288306836447730    -0.856546476433361     2.720572672400559
    H                0.073693163552269    -0.555546476433361    -2.956427327599441
    H               -0.383306836447730    -2.201546476433360     0.969572672400558
    H                0.456693163552270    -2.382546476433361    -1.339427327599442
    H               -2.901336836447731    -0.384396476433361     2.112495672400558

}
e, wfn = energy('scf', return_wfn=True)
gdma(wfn)
dmavals = variable('DMA DISTRIBUTED MULTIPOLES')
charges = np.array(dmavals)
print(charges)
np.save('SSI-116ALA-162PHE-1-dimer.npy', np.array(charges))--------------------------------------------------------------------------

*** tstart() called on ds3
*** at Tue Apr 28 11:25:22 2020

   => Loading Basis Set <=

    Name: CC-PVDZ
    Role: ORBITAL
    Keyword: BASIS
    atoms 1-2, 9-15  entry C          line   138 file /theoryfs2/ds/metcalf/miniconda2/envs/tf2gpu/share/psi4/basis/cc-pvdz.gbs
    atoms 3-8, 16-23 entry H          line    22 file /theoryfs2/ds/metcalf/miniconda2/envs/tf2gpu/share/psi4/basis/cc-pvdz.gbs

         ---------------------------------------------------------
                                   SCF
               by Justin Turney, Rob Parrish, Andy Simmonett
                          and Daniel G. A. Smith
                              RHF Reference
                        1 Threads,    500 MiB Core
         ---------------------------------------------------------

  ==> Geometry <==

    Molecular point group: c1
    Full point group: C1

    Geometry (in Angstrom), charge = 0, multiplicity = 1:

       Center              X                  Y                   Z               Mass
    ------------   -----------------  -----------------  -----------------  -----------------
         C            2.179693163552     1.027453523567     0.284572672401    12.000000000000
         C            3.541693163552     0.979453523567     0.973572672401    12.000000000000
         H            2.089693163552     1.927453523567    -0.323427327599     1.007825032230
         H            2.073693163552     0.153453523567    -0.358427327599     1.007825032230
         H            1.386693163552     1.013453523567     1.029572672401     1.007825032230
         H            3.572693163552     0.094453523567     1.611572672401     1.007825032230
         H            3.706783163552     1.895033523567     1.560481672401     1.007825032230
         H            4.351683163552     0.919263523567     0.231750672401     1.007825032230
         C           -1.824306836448    -0.165546476433     2.066572672401    12.000000000000
         C           -1.460306836448     0.781453523567    -0.233427327599    12.000000000000
         C           -1.252306836448    -0.251546476433     0.679572672401    12.000000000000
         C           -0.978306836448     0.677453523567    -1.540427327599    12.000000000000
         C           -0.285306836448    -0.463546476433    -1.940427327599    12.000000000000
         C           -0.551306836448    -1.389546476433     0.275572672401    12.000000000000
         C           -0.071306836448    -1.497546476433    -1.028427327599    12.000000000000
         H           -2.006306836448     1.666453523567     0.067572672401     1.007825032230
         H           -1.145306836448     1.466453523567    -2.246427327599     1.007825032230
         H           -1.631306836448     0.839453523567     2.431572672401     1.007825032230
         H           -1.288306836448    -0.856546476433     2.720572672401     1.007825032230
         H            0.073693163552    -0.555546476433    -2.956427327599     1.007825032230
         H           -0.383306836448    -2.201546476433     0.969572672401     1.007825032230
         H            0.456693163552    -2.382546476433    -1.339427327599     1.007825032230
         H           -2.901336836448    -0.384396476433     2.112495672401     1.007825032230

  Running in c1 symmetry.

  Rotational constants: A =      0.05802  B =      0.03359  C =      0.02787 [cm^-1]
  Rotational constants: A =   1739.45939  B =   1006.99620  C =    835.39397 [MHz]
  Nuclear repulsion =  420.393549370071469

  Charge       = 0
  Multiplicity = 1
  Electrons    = 68
  Nalpha       = 34
  Nbeta        = 34

  ==> Algorithm <==

  SCF Algorithm Type is PK.
  DIIS enabled.
  MOM disabled.
  Fractional occupation disabled.
  Guess Type is SAD.
  Energy threshold   = 1.00e-06
  Density threshold  = 1.00e-10
  Integral threshold = 0.00e+00

  ==> Primary Basis <==

  Basis Set: CC-PVDZ
    Blend: CC-PVDZ
    Number of shells: 96
    Number of basis function: 196
    Number of Cartesian functions: 205
    Spherical Harmonics?: true
    Max angular momentum: 2

  ==> Pre-Iterations <==

   -------------------------------------------------------
    Irrep   Nso     Nmo     Nalpha   Nbeta   Ndocc  Nsocc
   -------------------------------------------------------
     A        196     196       0       0       0       0
   -------------------------------------------------------
    Total     196     196      34      34      34       0
   -------------------------------------------------------

  ==> Integral Setup <==

  Using integral reordering PK algorithm.
  Sizing the integral batches needed.
  Building batch lookup table.
   Calculation information:
      Number of atoms:                  23
      Number of AO shells:              96
      Number of primitives:            268
      Number of atomic orbitals:       205
      Number of basis functions:       196

      Integral cutoff                 1.00e-12
      Number of threads:                 1

	Batch   1 pq = [       0,    9405] index = [             0,44231715] size =     44231715
	Batch   2 pq = [    9405,   13301] index = [      44231715,88464951] size =     44233236
	Batch   3 pq = [   13301,   16290] index = [      88464951,132690195] size =     44225244
	Batch   4 pq = [   16290,   18810] index = [     132690195,176917455] size =     44227260
	Batch   5 pq = [   18810,   19306] index = [     176917455,186370471] size =      9453016
  Task number: 17
  Buffer size: 11059200
  Buffer per thread: 2
  We computed 10522825 shell quartets total.
  Whereas there are 10841496 unique shell quartets.

  ==> DiskJK: Disk-Based J/K Matrices <==

    J tasked:                  Yes
    K tasked:                  Yes
    wK tasked:                  No
    Memory [MiB]:              375
    Schwarz Cutoff:          1E-12

    OpenMP threads:              1

  Minimum eigenvalue in the overlap matrix is 3.1533012964E-04.
  Using Symmetric Orthogonalization.

  SCF Guess: Superposition of Atomic Densities via on-the-fly atomic UHF.

  ==> Iterations <==

                        Total Energy        Delta E     RMS |[F,P]|

   @RHF iter SAD:  -347.87724046466894   -3.47877e+02   0.00000e+00
   @RHF iter   1:  -348.76516828102933   -8.87928e-01   2.89406e-03 DIIS
   @RHF iter   2:  -348.95755413310343   -1.92386e-01   1.19274e-03 DIIS
   @RHF iter   3:  -348.98731788702037   -2.97638e-02   2.57424e-04 DIIS
   @RHF iter   4:  -348.98976051286547   -2.44263e-03   5.57364e-05 DIIS
   @RHF iter   5:  -348.98983970100630   -7.91881e-05   1.90987e-05 DIIS
   @RHF iter   6:  -348.98984862257123   -8.92156e-06   4.99516e-06 DIIS
   @RHF iter   7:  -348.98984933542198   -7.12851e-07   1.23456e-06 DIIS
   @RHF iter   8:  -348.98984938406960   -4.86476e-08   3.01152e-07 DIIS
   @RHF iter   9:  -348.98984938903112   -4.96152e-09   1.19874e-07 DIIS
   @RHF iter  10:  -348.98984939008028   -1.04916e-09   6.02110e-08 DIIS
   @RHF iter  11:  -348.98984939043260   -3.52316e-10   2.47996e-08 DIIS
   @RHF iter  12:  -348.98984939050035   -6.77574e-11   1.14327e-08 DIIS
   @RHF iter  13:  -348.98984939050939   -9.03810e-12   4.54981e-09 DIIS
   @RHF iter  14:  -348.98984939051303   -3.63798e-12   1.15598e-09 DIIS
   @RHF iter  15:  -348.98984939051263    3.97904e-13   3.58511e-10 DIIS
   @RHF iter  16:  -348.98984939051252    1.13687e-13   1.03353e-10 DIIS
   @RHF iter  17:  -348.98984939051360   -1.08002e-12   4.20904e-11 DIIS
  Energy and wave function converged.

  ==> Post-Iterations <==

    Orbital Energies [Eh]
    ---------------------

    Doubly Occupied:

       1A    -11.240694     2A    -11.235923     3A    -11.235250
       4A    -11.231708     5A    -11.231534     6A    -11.230839
       7A    -11.229389     8A    -11.209907     9A    -11.200952
      10A     -1.151826    11A     -1.044841    12A     -1.011241
      13A     -1.006914    14A     -0.931225    15A     -0.825738
      16A     -0.824500    17A     -0.795045    18A     -0.690557
      19A     -0.632423    20A     -0.630525    21A     -0.590898
      22A     -0.584766    23A     -0.583080    24A     -0.579048
      25A     -0.561893    26A     -0.534827    27A     -0.500695
      28A     -0.485134    29A     -0.482287    30A     -0.479859
      31A     -0.473676    32A     -0.467436    33A     -0.331658
      34A     -0.321088

    Virtual:

      35A      0.133472    36A      0.139554    37A      0.176232
      38A      0.198277    39A      0.202662    40A      0.215287
      41A      0.241233    42A      0.251802    43A      0.258146
      44A      0.261013    45A      0.267896    46A      0.271593
      47A      0.281947    48A      0.291830    49A      0.308830
      50A      0.320050    51A      0.364351    52A      0.376143
      53A      0.400873    54A      0.451205    55A      0.461705
      56A      0.477767    57A      0.493203    58A      0.562746
      59A      0.571236    60A      0.597198    61A      0.600579
      62A      0.606732    63A      0.643227    64A      0.653886
      65A      0.672444    66A      0.680168    67A      0.696186
      68A      0.702881    69A      0.738075    70A      0.741375
      71A      0.749811    72A      0.759903    73A      0.776322
      74A      0.778389    75A      0.817782    76A      0.835453
      77A      0.846839    78A      0.855948    79A      0.861252
      80A      0.877124    81A      0.878080    82A      0.894698
      83A      0.898126    84A      0.902084    85A      0.905039
      86A      0.915786    87A      0.926463    88A      0.929598
      89A      0.936045    90A      0.940923    91A      0.964207
      92A      0.988353    93A      0.998681    94A      1.007590
      95A      1.038930    96A      1.075566    97A      1.119776
      98A      1.136081    99A      1.143918   100A      1.154625
     101A      1.158462   102A      1.170529   103A      1.199574
     104A      1.233677   105A      1.245681   106A      1.247404
     107A      1.254707   108A      1.278395   109A      1.301413
     110A      1.305771   111A      1.320610   112A      1.324816
     113A      1.411356   114A      1.481010   115A      1.497906
     116A      1.512251   117A      1.516253   118A      1.556804
     119A      1.605973   120A      1.615286   121A      1.677055
     122A      1.688407   123A      1.695063   124A      1.702587
     125A      1.735635   126A      1.748632   127A      1.769594
     128A      1.785939   129A      1.819381   130A      1.852266
     131A      1.874076   132A      1.882455   133A      1.890665
     134A      1.907196   135A      1.911812   136A      1.917250
     137A      1.922755   138A      1.940119   139A      1.942922
     140A      1.943191   141A      1.948750   142A      1.957632
     143A      1.964823   144A      1.981989   145A      1.987415
     146A      1.988434   147A      2.004267   148A      2.019946
     149A      2.059383   150A      2.072453   151A      2.092231
     152A      2.102070   153A      2.120629   154A      2.125307
     155A      2.147932   156A      2.158550   157A      2.169806
     158A      2.179001   159A      2.199866   160A      2.247446
     161A      2.278670   162A      2.295720   163A      2.301962
     164A      2.316302   165A      2.323460   166A      2.328958
     167A      2.357269   168A      2.462369   169A      2.473118
     170A      2.479558   171A      2.484759   172A      2.509097
     173A      2.533295   174A      2.576734   175A      2.587746
     176A      2.624642   177A      2.748572   178A      2.756167
     179A      2.768731   180A      2.776119   181A      2.785754
     182A      2.810870   183A      2.816870   184A      2.845721
     185A      2.864082   186A      2.869906   187A      2.883402
     188A      2.958848   189A      2.974940   190A      2.996392
     191A      3.015891   192A      3.044830   193A      3.151539
     194A      3.197186   195A      3.299571   196A      3.966045

    Final Occupation by Irrep:
              A
    DOCC [    34 ]

  @RHF Final Energy:  -348.98984939051360

   => Energetics <=

    Nuclear Repulsion Energy =            420.3935493700714687
    One-Electron Energy =               -1303.6320441763907638
    Two-Electron Energy =                 534.2486454158057541
    Total Energy =                       -348.9898493905135410

Computation Completed

Properties will be evaluated at   0.000000,   0.000000,   0.000000 [a0]

Properties computed using the SCF density matrix

  Nuclear Dipole Moment: [e a0]
     X:     7.8333      Y:     3.3701      Z:     5.1664

  Electronic Dipole Moment: [e a0]
     X:    -8.0005      Y:    -3.3992      Z:    -5.1107

  Dipole Moment: [e a0]
     X:    -0.1673      Y:    -0.0291      Z:     0.0557     Total:     0.1787

  Dipole Moment: [D]
     X:    -0.4251      Y:    -0.0739      Z:     0.1417     Total:     0.4542

*** tstop() called on ds3 at Tue Apr 28 11:27:01 2020
Module time:
	user time   =      74.09 seconds =       1.23 minutes
	system time =      28.83 seconds =       0.48 minutes
	total time  =         99 seconds =       1.65 minutes
Total time:
	user time   =      74.09 seconds =       1.23 minutes
	system time =      28.83 seconds =       0.48 minutes
	total time  =         99 seconds =       1.65 minutes
                                     G D M A

                                 by Anthony Stone

                           version 2.2.06, 22 June 2011

               Distributed Multipoles from Gaussian wavefunctions

Starting at 11:27:1 on 28 Apr 2020

Using SCF density matrix from file ./SSI/SSI-116ALA-162PHE-1-dimer.test.12960.fchk

                         Distributed Multipole Analysis

Standard DMA

Positions and radii in angstrom
Multipole moments in atomic units, ea_0^k for rank k

C          x =  2.179693  y =  1.027454  z =  0.284573 angstrom
           Maximum rank =  0   Radius =  0.650 angstrom
                   Q00  =  -0.223595

C          x =  3.541693  y =  0.979454  z =  0.973573 angstrom
           Maximum rank =  0   Radius =  0.650 angstrom
                   Q00  =  -0.237214

H          x =  2.089693  y =  1.927454  z = -0.323427 angstrom
           Maximum rank =  0   Radius =  0.325 angstrom
                   Q00  =   0.071231

H          x =  2.073693  y =  0.153454  z = -0.358427 angstrom
           Maximum rank =  0   Radius =  0.325 angstrom
                   Q00  =   0.085279

H          x =  1.386693  y =  1.013454  z =  1.029573 angstrom
           Maximum rank =  0   Radius =  0.325 angstrom
                   Q00  =   0.078733

H          x =  3.572693  y =  0.094454  z =  1.611573 angstrom
           Maximum rank =  0   Radius =  0.325 angstrom
                   Q00  =   0.074862

H          x =  3.706783  y =  1.895034  z =  1.560482 angstrom
           Maximum rank =  0   Radius =  0.325 angstrom
                   Q00  =   0.072741

H          x =  4.351683  y =  0.919264  z =  0.231751 angstrom
           Maximum rank =  0   Radius =  0.325 angstrom
                   Q00  =   0.073142

C          x = -1.824307  y = -0.165546  z =  2.066573 angstrom
           Maximum rank =  0   Radius =  0.650 angstrom
                   Q00  =  -0.194498

C          x = -1.460307  y =  0.781454  z = -0.233427 angstrom
           Maximum rank =  0   Radius =  0.650 angstrom
                   Q00  =  -0.018254

C          x = -1.252307  y = -0.251546  z =  0.679573 angstrom
           Maximum rank =  0   Radius =  0.650 angstrom
                   Q00  =  -0.103173

C          x = -0.978307  y =  0.677454  z = -1.540427 angstrom
           Maximum rank =  0   Radius =  0.650 angstrom
                   Q00  =  -0.074274

C          x = -0.285307  y = -0.463546  z = -1.940427 angstrom
           Maximum rank =  0   Radius =  0.650 angstrom
                   Q00  =  -0.081127

C          x = -0.551307  y = -1.389546  z =  0.275573 angstrom
           Maximum rank =  0   Radius =  0.650 angstrom
                   Q00  =  -0.049968

C          x = -0.071307  y = -1.497546  z = -1.028427 angstrom
           Maximum rank =  0   Radius =  0.650 angstrom
                   Q00  =  -0.078678

H          x = -2.006307  y =  1.666454  z =  0.067573 angstrom
           Maximum rank =  0   Radius =  0.325 angstrom
                   Q00  =   0.056525

H          x = -1.145307  y =  1.466454  z = -2.246427 angstrom
           Maximum rank =  0   Radius =  0.325 angstrom
                   Q00  =   0.065150

H          x = -1.631307  y =  0.839454  z =  2.431573 angstrom
           Maximum rank =  0   Radius =  0.325 angstrom
                   Q00  =   0.096964

H          x = -1.288307  y = -0.856546  z =  2.720573 angstrom
           Maximum rank =  0   Radius =  0.325 angstrom
                   Q00  =   0.096364

H          x =  0.073693  y = -0.555546  z = -2.956427 angstrom
           Maximum rank =  0   Radius =  0.325 angstrom
                   Q00  =   0.061997

H          x = -0.383307  y = -2.201546  z =  0.969573 angstrom
           Maximum rank =  0   Radius =  0.325 angstrom
                   Q00  =   0.057291

H          x =  0.456693  y = -2.382546  z = -1.339427 angstrom
           Maximum rank =  0   Radius =  0.325 angstrom
                   Q00  =   0.064213

H          x = -2.901337  y = -0.384396  z =  2.112496 angstrom
           Maximum rank =  0   Radius =  0.325 angstrom
                   Q00  =   0.106288

Total multipoles referred to origin at
           x =   0.000000,  y =    0.000000,  z =    0.000000 angstrom
                   Q00  =  -0.000000

Finished at 11:27:1 on 28 Apr 2020

  DMA results are available in the Python driver through the
	  variable('DMA DISTRIBUTED MULTIPOLES')
  and
	  variable('DMA TOTAL MULTIPOLES')
  commands.

    Psi4 stopped on: Tuesday, 28 April 2020 11:27AM
    Psi4 wall time for execution: 0:01:39.02

*** Psi4 exiting successfully. Buy a developer a beer!
