                               Psi4 1.3.2 release

  ==> Input File <==

--------------------------------------------------------------------------
import numpy as np
set {scf_type pk
basis cc-pvdz
d_convergence 10
gdma_switch   0
gdma_limit    0
gdma_origin   [ 0.0,  0.0,  0.0 ]
}
molecule test {
    units Angstrom
    0 1
    --
    0 1
    C                0.004177161380014    -1.614255134749395    -1.152851491829717
    C               -1.398822838619986    -1.246255134749395    -1.616851491829717
    H                0.684177161380014    -0.795255134749395    -1.382851491829717
    H                0.006177161380014    -1.780255134749395    -0.078851491829717
    H                0.345177161380014    -2.519255134749395    -1.656851491829717
    H               -1.695822838619986    -0.323255134749395    -1.121851491829717
    H               -1.370902838619986    -1.088735134749395    -2.705156491829717
    H               -2.110132838619986    -2.039562134749394    -1.343545491829716
    C                0.077177161380014     1.181744865250606     1.016148508170283
    C                1.316177161380014     1.677744865250606     1.749148508170284
    H                0.183177161380014     1.342744865250605    -0.057851491829717
    H               -0.060822838619986     0.121744865250605     1.222148508170283
    H               -0.800822838619986     1.718744865250605     1.376148508170284
    H                1.193177161380014     1.464744865250605     2.809148508170283
    H                1.430667161380014     2.761794865250605     1.601746508170283
    H                2.211327161380014     1.148694865250605     1.390228508170283

}
e, wfn = energy('scf', return_wfn=True)
gdma(wfn)
dmavals = variable('DMA DISTRIBUTED MULTIPOLES')
charges = np.array(dmavals)
print(charges)
np.save('SSI-003LEU-033LEU-1-dimer.npy', np.array(charges))--------------------------------------------------------------------------

*** tstart() called on ds3
*** at Mon Apr 27 23:43:01 2020

   => Loading Basis Set <=

    Name: CC-PVDZ
    Role: ORBITAL
    Keyword: BASIS
    atoms 1-2, 9-10  entry C          line   138 file /theoryfs2/ds/metcalf/miniconda2/envs/tf2gpu/share/psi4/basis/cc-pvdz.gbs
    atoms 3-8, 11-16 entry H          line    22 file /theoryfs2/ds/metcalf/miniconda2/envs/tf2gpu/share/psi4/basis/cc-pvdz.gbs

         ---------------------------------------------------------
                                   SCF
               by Justin Turney, Rob Parrish, Andy Simmonett
                          and Daniel G. A. Smith
                              RHF Reference
                        1 Threads,    500 MiB Core
         ---------------------------------------------------------

  ==> Geometry <==

    Molecular point group: c1
    Full point group: C1

    Geometry (in Angstrom), charge = 0, multiplicity = 1:

       Center              X                  Y                   Z               Mass
    ------------   -----------------  -----------------  -----------------  -----------------
         C            0.004177161380    -1.614255134749    -1.152851491830    12.000000000000
         C           -1.398822838620    -1.246255134749    -1.616851491830    12.000000000000
         H            0.684177161380    -0.795255134749    -1.382851491830     1.007825032230
         H            0.006177161380    -1.780255134749    -0.078851491830     1.007825032230
         H            0.345177161380    -2.519255134749    -1.656851491830     1.007825032230
         H           -1.695822838620    -0.323255134749    -1.121851491830     1.007825032230
         H           -1.370902838620    -1.088735134749    -2.705156491830     1.007825032230
         H           -2.110132838620    -2.039562134749    -1.343545491830     1.007825032230
         C            0.077177161380     1.181744865251     1.016148508170    12.000000000000
         C            1.316177161380     1.677744865251     1.749148508170    12.000000000000
         H            0.183177161380     1.342744865251    -0.057851491830     1.007825032230
         H           -0.060822838620     0.121744865251     1.222148508170     1.007825032230
         H           -0.800822838620     1.718744865251     1.376148508170     1.007825032230
         H            1.193177161380     1.464744865251     2.809148508170     1.007825032230
         H            1.430667161380     2.761794865251     1.601746508170     1.007825032230
         H            2.211327161380     1.148694865251     1.390228508170     1.007825032230

  Running in c1 symmetry.

  Rotational constants: A =      0.48494  B =      0.05717  C =      0.05330 [cm^-1]
  Rotational constants: A =  14538.07210  B =   1713.89543  C =   1597.80355 [MHz]
  Nuclear repulsion =  125.429257203147586

  Charge       = 0
  Multiplicity = 1
  Electrons    = 36
  Nalpha       = 18
  Nbeta        = 18

  ==> Algorithm <==

  SCF Algorithm Type is PK.
  DIIS enabled.
  MOM disabled.
  Fractional occupation disabled.
  Guess Type is SAD.
  Energy threshold   = 1.00e-06
  Density threshold  = 1.00e-10
  Integral threshold = 0.00e+00

  ==> Primary Basis <==

  Basis Set: CC-PVDZ
    Blend: CC-PVDZ
    Number of shells: 60
    Number of basis function: 116
    Number of Cartesian functions: 120
    Spherical Harmonics?: true
    Max angular momentum: 2

  ==> Pre-Iterations <==

   -------------------------------------------------------
    Irrep   Nso     Nmo     Nalpha   Nbeta   Ndocc  Nsocc
   -------------------------------------------------------
     A        116     116       0       0       0       0
   -------------------------------------------------------
    Total     116     116      18      18      18       0
   -------------------------------------------------------

  ==> Integral Setup <==

  Using integral reordering PK algorithm.
  Sizing the integral batches needed.
  Building batch lookup table.
   Calculation information:
      Number of atoms:                  16
      Number of AO shells:              60
      Number of primitives:            148
      Number of atomic orbitals:       120
      Number of basis functions:       116

      Integral cutoff                 1.00e-12
      Number of threads:                 1

	Batch   1 pq = [       0,    6786] index = [             0,23028291] size =     23028291
  Task number: 3
  Buffer size: 11059200
  Buffer per thread: 2
  We computed 1526954 shell quartets total.
  Whereas there are 1675365 unique shell quartets.

  ==> DiskJK: Disk-Based J/K Matrices <==

    J tasked:                  Yes
    K tasked:                  Yes
    wK tasked:                  No
    Memory [MiB]:              375
    Schwarz Cutoff:          1E-12

    OpenMP threads:              1

  Minimum eigenvalue in the overlap matrix is 6.8571227497E-03.
  Using Symmetric Orthogonalization.

  SCF Guess: Superposition of Atomic Densities via on-the-fly atomic UHF.

  ==> Iterations <==

                        Total Energy        Delta E     RMS |[F,P]|

   @RHF iter SAD:  -157.39415812401992   -1.57394e+02   0.00000e+00
   @RHF iter   1:  -158.30460196558911   -9.10444e-01   4.23486e-03 DIIS
   @RHF iter   2:  -158.43960727872212   -1.35005e-01   1.79991e-03 DIIS
   @RHF iter   3:  -158.46313003471269   -2.35228e-02   3.51069e-04 DIIS
   @RHF iter   4:  -158.46496983679182   -1.83980e-03   3.82261e-05 DIIS
   @RHF iter   5:  -158.46499294342090   -2.31066e-05   6.09838e-06 DIIS
   @RHF iter   6:  -158.46499352612332   -5.82702e-07   6.94710e-07 DIIS
   @RHF iter   7:  -158.46499353295943   -6.83610e-09   1.24918e-07 DIIS
   @RHF iter   8:  -158.46499353313666   -1.77238e-10   3.90229e-08 DIIS
   @RHF iter   9:  -158.46499353315573   -1.90710e-11   8.85486e-09 DIIS
   @RHF iter  10:  -158.46499353315690   -1.16529e-12   2.35944e-09 DIIS
   @RHF iter  11:  -158.46499353315687    2.84217e-14   3.71155e-10 DIIS
   @RHF iter  12:  -158.46499353315676    1.13687e-13   5.60850e-11 DIIS
  Energy and wave function converged.

  ==> Post-Iterations <==

    Orbital Energies [Eh]
    ---------------------

    Doubly Occupied:

       1A    -11.218658     2A    -11.217617     3A    -11.216104
       4A    -11.214617     5A     -1.022414     6A     -1.017888
       7A     -0.836835     8A     -0.833099     9A     -0.606252
      10A     -0.604281    11A     -0.597063    12A     -0.592070
      13A     -0.500399    14A     -0.496968    15A     -0.492150
      16A     -0.486857    17A     -0.482729    18A     -0.479314

    Virtual:

      19A      0.174206    20A      0.198211    21A      0.228952
      22A      0.230362    23A      0.243570    24A      0.257797
      25A      0.263324    26A      0.273655    27A      0.282401
      28A      0.291831    29A      0.316614    30A      0.372455
      31A      0.388207    32A      0.418190    33A      0.570709
      34A      0.587543    35A      0.599233    36A      0.610767
      37A      0.612661    38A      0.636317    39A      0.669795
      40A      0.674238    41A      0.691268    42A      0.824505
      43A      0.842344    44A      0.868329    45A      0.888799
      46A      0.890344    47A      0.894978    48A      0.896639
      49A      0.907473    50A      0.911036    51A      0.919354
      52A      0.924261    53A      0.948006    54A      0.967853
      55A      0.980622    56A      0.990147    57A      1.124052
      58A      1.125999    59A      1.133787    60A      1.167932
      61A      1.224472    62A      1.262189    63A      1.475634
      64A      1.480401    65A      1.481919    66A      1.491084
      67A      1.552395    68A      1.608184    69A      1.674438
      70A      1.681444    71A      1.685584    72A      1.724829
      73A      1.850515    74A      1.858456    75A      1.870622
      76A      1.890267    77A      1.900525    78A      1.924714
      79A      1.939589    80A      1.944161    81A      1.944867
      82A      1.950684    83A      1.960944    84A      1.961992
      85A      1.972320    86A      1.976243    87A      1.997196
      88A      2.037163    89A      2.099710    90A      2.110661
      91A      2.118307    92A      2.138017    93A      2.281777
      94A      2.301281    95A      2.317794    96A      2.330612
      97A      2.455734    98A      2.459683    99A      2.462585
     100A      2.479179   101A      2.565721   102A      2.570684
     103A      2.582380   104A      2.583516   105A      2.762312
     106A      2.770287   107A      2.789708   108A      2.809077
     109A      2.844809   110A      2.846416   111A      2.852356
     112A      2.855385   113A      2.943715   114A      2.955377
     115A      2.969446   116A      2.991746

    Final Occupation by Irrep:
              A
    DOCC [    18 ]

  @RHF Final Energy:  -158.46499353315676

   => Energetics <=

    Nuclear Repulsion Energy =            125.4292572031475856
    One-Electron Energy =                -459.9578710142385489
    Two-Electron Energy =                 176.0636202779342057
    Total Energy =                       -158.4649935331567576

Computation Completed

Properties will be evaluated at   0.000000,   0.000000,   0.000000 [a0]

Properties computed using the SCF density matrix

  Nuclear Dipole Moment: [e a0]
     X:     0.0144      Y:     0.0114      Z:     0.0492

  Electronic Dipole Moment: [e a0]
     X:    -0.0153      Y:    -0.0085      Z:    -0.0315

  Dipole Moment: [e a0]
     X:    -0.0009      Y:     0.0029      Z:     0.0177     Total:     0.0180

  Dipole Moment: [D]
     X:    -0.0023      Y:     0.0074      Z:     0.0451     Total:     0.0457

*** tstop() called on ds3 at Mon Apr 27 23:43:18 2020
Module time:
	user time   =      13.43 seconds =       0.22 minutes
	system time =       4.05 seconds =       0.07 minutes
	total time  =         17 seconds =       0.28 minutes
Total time:
	user time   =      13.43 seconds =       0.22 minutes
	system time =       4.05 seconds =       0.07 minutes
	total time  =         17 seconds =       0.28 minutes
                                     G D M A

                                 by Anthony Stone

                           version 2.2.06, 22 June 2011

               Distributed Multipoles from Gaussian wavefunctions

Starting at 23:43:18 on 27 Apr 2020

Using SCF density matrix from file ./SSI/SSI-003LEU-033LEU-1-dimer.test.3808.fchk

                         Distributed Multipole Analysis

Standard DMA

Positions and radii in angstrom
Multipole moments in atomic units, ea_0^k for rank k

C          x =  0.004177  y = -1.614255  z = -1.152851 angstrom
           Maximum rank =  0   Radius =  0.650 angstrom
                   Q00  =  -0.232694

C          x = -1.398823  y = -1.246255  z = -1.616851 angstrom
           Maximum rank =  0   Radius =  0.650 angstrom
                   Q00  =  -0.233868

H          x =  0.684177  y = -0.795255  z = -1.382851 angstrom
           Maximum rank =  0   Radius =  0.325 angstrom
                   Q00  =   0.076878

H          x =  0.006177  y = -1.780255  z = -0.078851 angstrom
           Maximum rank =  0   Radius =  0.325 angstrom
                   Q00  =   0.076744

H          x =  0.345177  y = -2.519255  z = -1.656851 angstrom
           Maximum rank =  0   Radius =  0.325 angstrom
                   Q00  =   0.077432

H          x = -1.695823  y = -0.323255  z = -1.121851 angstrom
           Maximum rank =  0   Radius =  0.325 angstrom
                   Q00  =   0.080769

H          x = -1.370903  y = -1.088735  z = -2.705156 angstrom
           Maximum rank =  0   Radius =  0.325 angstrom
                   Q00  =   0.076885

H          x = -2.110133  y = -2.039562  z = -1.343545 angstrom
           Maximum rank =  0   Radius =  0.325 angstrom
                   Q00  =   0.078350

C          x =  0.077177  y =  1.181745  z =  1.016149 angstrom
           Maximum rank =  0   Radius =  0.650 angstrom
                   Q00  =  -0.231107

C          x =  1.316177  y =  1.677745  z =  1.749149 angstrom
           Maximum rank =  0   Radius =  0.650 angstrom
                   Q00  =  -0.237659

H          x =  0.183177  y =  1.342745  z = -0.057851 angstrom
           Maximum rank =  0   Radius =  0.325 angstrom
                   Q00  =   0.077031

H          x = -0.060823  y =  0.121745  z =  1.222149 angstrom
           Maximum rank =  0   Radius =  0.325 angstrom
                   Q00  =   0.078747

H          x = -0.800823  y =  1.718745  z =  1.376149 angstrom
           Maximum rank =  0   Radius =  0.325 angstrom
                   Q00  =   0.077234

H          x =  1.193177  y =  1.464745  z =  2.809149 angstrom
           Maximum rank =  0   Radius =  0.325 angstrom
                   Q00  =   0.078405

H          x =  1.430667  y =  2.761795  z =  1.601747 angstrom
           Maximum rank =  0   Radius =  0.325 angstrom
                   Q00  =   0.078546

H          x =  2.211327  y =  1.148695  z =  1.390229 angstrom
           Maximum rank =  0   Radius =  0.325 angstrom
                   Q00  =   0.078308

Total multipoles referred to origin at
           x =   0.000000,  y =    0.000000,  z =    0.000000 angstrom
                   Q00  =  -0.000000

Finished at 23:43:18 on 27 Apr 2020

  DMA results are available in the Python driver through the
	  variable('DMA DISTRIBUTED MULTIPOLES')
  and
	  variable('DMA TOTAL MULTIPOLES')
  commands.

    Psi4 stopped on: Monday, 27 April 2020 11:43PM
    Psi4 wall time for execution: 0:00:17.27

*** Psi4 exiting successfully. Buy a developer a beer!
